Title
81329
    1CHL1    C3    1   5.380   5.203  10.294  0.2121  0.2881 -0.2399
    1CHL1    H3    2   5.371   5.313  10.282  0.0522  0.0936 -2.0401
    1CHL1    O3    3   5.397   5.171  10.423 -0.5725 -0.1655  0.0897
    1CHL1   H3'    4   5.330   5.104  10.437 -1.5744  1.1730  1.8103
    1CHL1    C4    5   5.250   5.134  10.255 -0.5239 -0.2102 -0.2746
    1CHL1   H4A    6   5.255   5.025  10.275  3.2711  0.5003  3.1653
    1CHL1   H4B    7   5.162   5.175  10.310 -0.5917 -0.3252 -0.2947
    1CHL1    C5    8   5.230   5.154  10.104 -0.0099  0.1747 -0.3145
    1CHL1    C6    9   5.111   5.200  10.059  0.0574 -0.3178  0.2344
    1CHL1    H6   10   5.030   5.225  10.129 -0.5221 -0.9241 -0.2129
    1CHL1    C7   11   5.063   5.215   9.917 -1.1812 -0.1665  0.3966
    1CHL1   H7A   12   4.959   5.178   9.909 -2.0615  2.3411 -0.2948
    1CHL1   H7B   13   5.072   5.323   9.893  0.9403 -0.5612 -0.6574
    1CHL1    C8   14   5.167   5.142   9.827  1.3960 -0.0055 -0.8584
    1CHL1    H8   15   5.136   5.036   9.830 -0.5592  0.5614 -0.6567
    1CHL1   C14   16   5.153   5.195   9.690 -1.3997 -0.6185  0.7624
    1CHL1   H14   17   5.202   5.294   9.701 -1.2338 -0.5176 -0.7393
    1CHL1   C15   18   5.016   5.221   9.633  0.0712  0.1780  0.4020
    1CHL1  H15A   19   4.944   5.142   9.665  0.7287 -0.7482 -0.3968
    1CHL1  H15B   20   4.976   5.318   9.670 -1.1595 -0.8735  1.9224
    1CHL1   C16   21   5.036   5.233   9.477  0.2832 -0.8296 -0.5950
    1CHL1  H16A   22   4.958   5.163   9.438 -0.4189 -1.2741  1.5260
    1CHL1  H16B   23   5.020   5.339   9.448 -1.0407 -0.9000 -0.1917
    1CHL1   C17   24   5.179   5.195   9.448  0.0772  0.2035  0.3741
    1CHL1   H17   25   5.236   5.289   9.436 -1.9166  1.2797 -0.8844
    1CHL1   C13   26   5.231   5.125   9.580  0.3593  0.2462  0.4335
    1CHL1   C18   27   5.204   4.973   9.570  0.3183  0.1028 -0.0744
    1CHL1  H18A   28   5.236   4.935   9.669 -0.6279  0.7327  0.4838
    1CHL1  H18B   29   5.095   4.958   9.589  0.3555 -1.7238 -1.2002
    1CHL1  H18C   30   5.252   4.915   9.489 -2.4805 -1.4954 -0.6458
    1CHL1   C12   31   5.378   5.141   9.619  0.1060  0.3459 -0.4136
    1CHL1  H12A   32   5.450   5.085   9.556  0.5717 -0.7286  1.0716
    1CHL1  H12B   33   5.407   5.247   9.604 -1.3923  0.8185 -0.0730
    1CHL1   C11   34   5.411   5.105   9.763 -0.3995  0.0123  0.1663
    1CHL1  H11A   35   5.416   4.994   9.768  2.4210  0.1796  2.5894
    1CHL1  H11B   36   5.515   5.138   9.783 -0.7944  0.9283  0.7090
    1CHL1    C9   37   5.312   5.160   9.872 -0.3205 -0.1392  0.1913
    1CHL1    H9   38   5.326   5.270   9.865  0.5584 -0.2273  0.5443
    1CHL1   C10   39   5.348   5.117  10.014  0.0048  0.3754 -0.6013
    1CHL1   C19   40   5.357   4.968  10.012 -0.6184  0.8818  0.7596
    1CHL1  H19A   41   5.378   4.931  10.115 -1.1131 -1.7905 -0.0480
    1CHL1  H19B   42   5.269   4.916   9.969  0.1786 -0.9784  1.3444
    1CHL1  H19C   43   5.439   4.930   9.947 -0.7132  2.8631 -0.5517
    1CHL1    C1   44   5.474   5.188  10.069 -0.4607 -0.2870 -0.0459
    1CHL1   H1A   45   5.570   5.174  10.013 -0.4459 -0.1321 -0.0579
    1CHL1   H1B   46   5.451   5.297  10.064  0.6434 -0.1258 -2.1962
    1CHL1    C2   47   5.497   5.155  10.212 -0.7012  0.1045 -0.0891
    1CHL1   H2A   48   5.591   5.203  10.246 -0.2449  0.3192 -1.6198
    1CHL1   H2B   49   5.515   5.045  10.220 -3.1268 -0.4083 -1.1029
    1CHL1   C20   50   5.195   5.122   9.312 -0.3357 -0.0264  0.2728
    1CHL1   H20   51   5.160   5.018   9.327 -1.0611  0.3790  1.5907
    1CHL1   C21   52   5.345   5.115   9.282  0.2756  0.3107  0.4713
    1CHL1  H21A   53   5.349   5.097   9.172 -1.0722 -0.3528  0.5229
    1CHL1  H21B   54   5.413   5.040   9.328  0.6839  0.8173  0.7074
    1CHL1  H21C   55   5.397   5.214   9.287 -0.8734  0.8864  1.0920
    1CHL1   C22   56   5.112   5.182   9.196 -1.1665 -0.7410 -0.0355
    1CHL1  H22A   57   5.008   5.202   9.230 -0.3522  0.2994  1.9226
    1CHL1  H22B   58   5.151   5.284   9.175 -3.2698  0.1638  0.2854
    1CHL1   C23   59   5.103   5.088   9.067  0.3112  0.4834  0.5142
    1CHL1  H23A   60   5.206   5.061   9.035  0.1174 -2.1790  1.9818
    1CHL1  H23B   61   5.046   4.998   9.102 -0.0705  0.7396  0.5555
    1CHL1   C24   62   5.019   5.152   8.956 -0.0919 -0.0026 -1.0538
    1CHL1  H24A   63   4.936   5.194   9.017  0.6609 -2.6867  1.9182
    1CHL1  H24B   64   5.077   5.232   8.906 -0.6650  0.3334 -1.1845
    1CHL1   C25   65   4.961   5.061   8.844 -0.2089 -0.7706 -0.0079
    1CHL1   H25   66   4.899   4.982   8.892 -1.6431 -0.0129 -0.5922
    1CHL1   C26   67   4.865   5.137   8.751 -0.0369 -0.0609 -0.2312
    1CHL1  H26A   68   4.928   5.177   8.668  1.4295 -0.4030  0.7039
    1CHL1  H26B   69   4.787   5.074   8.703  0.1421  1.2054 -2.2490
    1CHL1  H26C   70   4.817   5.218   8.810 -2.3156 -1.8517  0.4606
    1CHL1   C27   71   5.072   5.000   8.758 -0.6052 -0.2742  1.0222
    1CHL1  H27A   72   5.134   5.087   8.725 -3.7614  0.6949 -2.6587
    1CHL1  H27B   73   5.133   4.923   8.811 -0.4444  0.5147  2.0086
    1CHL1  H27C   74   5.022   4.967   8.665 -1.2204  2.1059  0.4569
    2CHL1    C3   75   6.381   3.174   9.949  0.2420  0.4286  0.1333
    2CHL1    H3   76   6.280   3.218   9.938  0.0175 -0.2141 -0.3657
    2CHL1    O3   77   6.406   3.170  10.086  0.3276  0.3588 -0.0542
    2CHL1   H3'   78   6.428   3.079  10.106 -2.2566 -0.3219 -0.0454
    2CHL1    C4   79   6.373   3.028   9.905  0.2462 -0.0549 -0.9492
    2CHL1   H4A   80   6.471   2.988   9.939 -0.9339  0.7326  3.8129
    2CHL1   H4B   81   6.292   2.973   9.957  2.3380  0.2470  2.8273
    2CHL1    C5   82   6.358   3.015   9.756  0.3315 -0.3274 -0.1805
    2CHL1    C6   83   6.249   2.953   9.706 -0.4276  0.4281  0.0827
    2CHL1    H6   84   6.172   2.906   9.769  0.0061  0.5207  0.6868
    2CHL1    C7   85   6.230   2.937   9.556  0.5859 -0.0755 -0.2525
    2CHL1   H7A   86   6.194   2.836   9.527 -3.9007  1.5527 -0.7826
    2CHL1   H7B   87   6.151   3.013   9.537  1.2094  0.4671 -0.6741
    2CHL1    C8   88   6.359   2.971   9.476 -0.5477  0.1719  0.3519
    2CHL1    H8   89   6.425   2.882   9.483 -0.6154  0.2439  1.9986
    2CHL1   C14   90   6.322   2.990   9.329  0.8949 -0.0122 -0.1588
    2CHL1   H14   91   6.260   3.081   9.319 -0.0860 -0.4643  1.5877
    2CHL1   C15   92   6.243   2.881   9.266  0.0123  0.4486 -0.9632
    2CHL1  H15A   93   6.292   2.782   9.277  0.1916  0.7478  1.2067
    2CHL1  H15B   94   6.136   2.889   9.295  0.6815  2.0088  1.2135
    2CHL1   C16   95   6.244   2.926   9.118  0.3130 -0.4097  0.6199
    2CHL1  H16A   96   6.260   2.833   9.060 -2.6621 -0.9100  0.5474
    2CHL1  H16B   97   6.148   2.969   9.083  1.7601  1.8078 -0.8191
    2CHL1   C17   98   6.370   3.022   9.092  0.5358 -0.1348  0.8972
    2CHL1   H17   99   6.319   3.120   9.081  0.0041 -0.3207  1.6628
    2CHL1   C13  100   6.438   3.026   9.235  0.5317  0.2617  0.3972
    2CHL1   C18  101   6.547   2.916   9.253  0.1117  0.1666 -0.5425
    2CHL1  H18A  102   6.587   2.914   9.357 -0.1331 -0.9995 -0.4548
    2CHL1  H18B  103   6.503   2.816   9.231 -0.2365  0.3247 -0.5578
    2CHL1  H18C  104   6.633   2.937   9.185  0.0492  0.1897 -0.6138
    2CHL1   C12  105   6.490   3.160   9.280 -0.4022 -0.9219 -1.1478
    2CHL1  H12A  106   6.579   3.181   9.216  0.4063  1.1916  0.6163
    2CHL1  H12B  107   6.414   3.239   9.266  0.2250 -0.5223 -2.4021
    2CHL1   C11  108   6.535   3.159   9.429  0.1989  0.3158 -0.0019
    2CHL1  H11A  109   6.630   3.101   9.436 -2.4051 -4.1162  0.0727
    2CHL1  H11B  110   6.561   3.263   9.456 -1.2403  0.3491  1.2870
    2CHL1    C9  111   6.430   3.103   9.524  0.7556  0.3867 -0.3334
    2CHL1    H9  112   6.348   3.178   9.519  0.2824 -0.1442 -0.5663
    2CHL1   C10  113   6.465   3.097   9.676 -0.5498 -0.0718  0.3496
    2CHL1   C19  114   6.595   3.018   9.696 -0.7787 -0.0840 -0.3958
    2CHL1  H19A  115   6.592   2.913   9.661  2.0364  0.7133 -3.2072
    2CHL1  H19B  116   6.678   3.072   9.647  0.4649 -1.3832  0.2445
    2CHL1  H19C  117   6.628   3.025   9.802  0.4259 -0.2370 -0.7531
    2CHL1    C1  118   6.485   3.242   9.733 -1.2428 -0.3457 -1.0281
    2CHL1   H1A  119   6.563   3.287   9.669 -1.8396 -2.7972 -3.5936
    2CHL1   H1B  120   6.397   3.307   9.711 -0.9531  1.2327  2.1957
    2CHL1    C2  121   6.495   3.253   9.884 -0.0904  0.3349 -0.2133
    2CHL1   H2A  122   6.486   3.361   9.911 -2.8181  0.4051 -1.2428
    2CHL1   H2B  123   6.594   3.212   9.914  0.2428  0.8643 -0.5708
    2CHL1   C20  124   6.454   2.987   8.969  0.6418  0.1817 -0.3323
    2CHL1   H20  125   6.504   2.889   8.984 -0.4539 -0.5491 -1.4006
    2CHL1   C21  126   6.567   3.090   8.965  0.6029 -0.5585  0.7763
    2CHL1  H21A  127   6.629   3.074   8.874  1.2953  0.6154  1.0410
    2CHL1  H21B  128   6.650   3.075   9.037  0.2004 -4.0752  0.5969
    2CHL1  H21C  129   6.521   3.191   8.960 -1.3196 -1.4701 -0.6773
    2CHL1   C22  130   6.371   2.983   8.839 -0.6498  0.2304 -0.4700
    2CHL1  H22A  131   6.295   2.903   8.847 -0.8925  0.5745  0.7065
    2CHL1  H22B  132   6.312   3.076   8.832 -0.2688  0.2588 -3.8880
    2CHL1   C23  133   6.458   2.954   8.717 -0.0886 -0.3017  0.4743
    2CHL1  H23A  134   6.522   3.038   8.682  0.9989 -0.8866  1.0328
    2CHL1  H23B  135   6.511   2.860   8.743 -0.8133 -1.2764 -1.4829
    2CHL1   C24  136   6.357   2.910   8.609 -0.2521 -0.1215 -0.5574
    2CHL1  H24A  137   6.277   2.838   8.635 -1.3739  1.1798 -0.3900
    2CHL1  H24B  138   6.304   2.992   8.556 -0.1344 -2.1053 -3.8953
    2CHL1   C25  139   6.439   2.839   8.497 -0.6081  0.3459  0.2454
    2CHL1   H25  140   6.516   2.774   8.543 -0.1499  0.0501 -0.9145
    2CHL1   C26  141   6.356   2.749   8.412  0.0310  0.8199 -0.4214
    2CHL1  H26A  142   6.259   2.802   8.400 -0.3606  0.9636  2.8960
    2CHL1  H26B  143   6.390   2.735   8.308 -0.8678 -0.7758 -0.5132
    2CHL1  H26C  144   6.329   2.655   8.465 -0.1457  2.0672  1.7717
    2CHL1   C27  145   6.508   2.942   8.398  0.6963 -0.8571 -0.1018
    2CHL1  H27A  146   6.565   2.883   8.324  0.5600 -0.5777 -0.4331
    2CHL1  H27B  147   6.423   2.992   8.347 -0.0227  0.3597  2.2266
    2CHL1  H27C  148   6.574   3.011   8.454 -0.2433 -0.8003  0.9623
    3CHL1    C3  149   0.181   2.799  10.345  0.3658 -0.8361  0.5039
    3CHL1    H3  150   0.285   2.760  10.342  0.8419  0.5361 -2.4457
    3CHL1    O3  151   0.127   2.812  10.478 -0.6653 -0.2896  0.0868
    3CHL1   H3'  152   0.043   2.856  10.464 -0.0008  0.9144 -0.2188
    3CHL1    C4  153   0.195   2.939  10.281  0.7408  0.4193  0.5405
    3CHL1   H4A  154   0.088   2.970  10.281  0.5879  0.0622 -2.5455
    3CHL1   H4B  155   0.248   3.014  10.344  1.6328  1.2084 -1.1278
    3CHL1    C5  156   0.238   2.920  10.134  0.4245 -0.0725 -0.3362
    3CHL1    C6  157   0.346   2.986  10.093  0.2750  0.4745  0.1205
    3CHL1    H6  158   0.399   3.051  10.164  0.0601  0.2213  0.5165
    3CHL1    C7  159   0.406   2.975   9.953  0.4954  0.8780 -0.3781
    3CHL1   H7A  160   0.443   3.072   9.913  1.2969  0.2361 -1.1870
    3CHL1   H7B  161   0.498   2.914   9.954 -0.4111 -0.5150  2.2740
    3CHL1    C8  162   0.300   2.915   9.858  0.6700 -0.2174 -0.3681
    3CHL1    H8  163   0.225   2.996   9.844 -1.9318 -2.2978  1.1189
    3CHL1   C14  164   0.358   2.890   9.724  0.8112  0.3610 -0.6008
    3CHL1   H14  165   0.443   2.820   9.739  0.7822 -0.3739 -3.5521
    3CHL1   C15  166   0.426   3.007   9.656 -0.2707  0.8976  0.0302
    3CHL1  H15A  167   0.362   3.098   9.657 -1.0295  0.3899 -0.8268
    3CHL1  H15B  168   0.521   3.036   9.704  0.3964 -0.0108 -0.7216
    3CHL1   C16  169   0.450   2.945   9.513 -0.2159 -0.2576 -0.1222
    3CHL1  H16A  170   0.436   3.027   9.439 -1.7385 -0.5097 -0.1256
    3CHL1  H16B  171   0.551   2.899   9.505 -0.6610 -1.4999  1.2002
    3CHL1   C17  172   0.344   2.833   9.492  0.1680 -0.2588  1.0530
    3CHL1   H17  173   0.403   2.740   9.485 -0.5097 -0.5892 -0.4033
    3CHL1   C13  174   0.258   2.841   9.617 -0.2946  1.0801 -0.2543
    3CHL1   C18  175   0.148   2.944   9.591 -0.2288  0.9392  0.5639
    3CHL1  H18A  176   0.177   3.044   9.554 -0.7077  0.3613 -1.4068
    3CHL1  H18B  177   0.089   2.898   9.509  0.7253 -1.2878  1.0845
    3CHL1  H18C  178   0.078   2.951   9.677  0.7923  1.2756  1.3909
    3CHL1   C12  179   0.196   2.712   9.668  0.2510 -0.1772  0.4850
    3CHL1  H12A  180   0.126   2.670   9.593  1.4165 -2.5360  0.6604
    3CHL1  H12B  181   0.286   2.646   9.661 -0.3135 -0.8218 -0.7817
    3CHL1   C11  182   0.146   2.718   9.810 -0.2792  0.5335 -0.2719
    3CHL1  H11A  183   0.044   2.758   9.792 -1.6180 -2.1478  0.9504
    3CHL1  H11B  184   0.124   2.614   9.844 -1.0372  0.7470 -0.0972
    3CHL1    C9  185   0.227   2.799   9.913 -0.2968  0.7513  0.0641
    3CHL1    H9  186   0.310   2.726   9.925 -0.9397  0.2773  1.8987
    3CHL1   C10  187   0.157   2.819  10.049  0.9852  0.4488 -0.2330
    3CHL1   C19  188   0.015   2.884  10.025  0.1659 -0.1094  0.0173
    3CHL1  H19A  189  -0.028   2.914  10.122  1.7896 -2.7327  1.6187
    3CHL1  H19B  190   0.015   2.964   9.948  2.5653 -0.0582  0.0260
    3CHL1  H19C  191  -0.058   2.807   9.991 -0.9759 -0.1591  2.5049
    3CHL1    C1  192   0.142   2.679  10.125  0.3621 -0.5117 -0.1375
    3CHL1   H1A  193   0.073   2.620  10.062  1.2242 -1.1827 -0.4597
    3CHL1   H1B  194   0.238   2.623  10.125  0.8174  0.2497 -1.0690
    3CHL1    C2  195   0.097   2.699  10.271  0.8154 -0.4421  0.4333
    3CHL1   H2A  196   0.098   2.601  10.324  1.5446  0.3177  1.8351
    3CHL1   H2B  197  -0.007   2.737  10.274  1.3358  1.3253 -2.1922
    3CHL1   C20  198   0.277   2.838   9.351  0.6031  0.1734  0.1084
    3CHL1   H20  199   0.219   2.933   9.350  1.1653  0.5066 -1.7906
    3CHL1   C21  200   0.188   2.711   9.334 -0.3987  0.0942  0.0555
    3CHL1  H21A  201   0.247   2.617   9.339  0.6952  0.6047 -2.4240
    3CHL1  H21B  202   0.154   2.713   9.228  1.9453 -1.1003 -0.7594
    3CHL1  H21C  203   0.101   2.711   9.403 -1.6899 -1.4845 -1.5126
    3CHL1   C22  204   0.378   2.846   9.231  0.2662  0.2435 -0.7217
    3CHL1  H22A  205   0.470   2.897   9.266  0.8663 -1.4107  0.1580
    3CHL1  H22B  206   0.415   2.744   9.210  2.2671  1.0082 -0.9862
    3CHL1   C23  207   0.312   2.894   9.109  0.0447  0.2322 -0.0053
    3CHL1  H23A  208   0.220   2.833   9.093  2.3001 -3.4082  0.4617
    3CHL1  H23B  209   0.276   2.999   9.124 -1.1256 -0.2095  0.3170
    3CHL1   C24  210   0.389   2.876   8.981 -0.5961  0.4257 -0.1559
    3CHL1  H24A  211   0.486   2.925   9.003 -0.2664 -0.5393  0.5753
    3CHL1  H24B  212   0.391   2.765   8.978  0.3421  0.4655 -1.5173
    3CHL1   C25  213   0.339   2.925   8.847  0.2786 -0.0028 -1.1907
    3CHL1   H25  214   0.320   3.034   8.838  2.0253  0.2361 -2.2305
    3CHL1   C26  215   0.442   2.879   8.745 -0.6362  0.6508 -0.2185
    3CHL1  H26A  216   0.437   2.770   8.728 -0.1530  0.8964 -2.0157
    3CHL1  H26B  217   0.428   2.920   8.643 -2.8955  0.6607  0.0658
    3CHL1  H26C  218   0.544   2.902   8.782 -0.7620  0.9355 -0.0466
    3CHL1   C27  219   0.205   2.856   8.808  0.2778 -0.0460  0.0380
    3CHL1  H27A  220   0.133   2.891   8.886 -2.5640  2.0001 -3.3803
    3CHL1  H27B  221   0.170   2.891   8.709 -2.1123 -2.0217  0.1339
    3CHL1  H27C  222   0.213   2.745   8.812 -1.0858 -0.1159  1.5282
    4CHL1    C3  223   6.285   4.493  10.432  0.1026  0.1958  0.3602
    4CHL1    H3  224   6.362   4.417  10.409  1.4669  2.1856 -1.8663
    4CHL1    O3  225   6.263   4.483  10.571  0.3644  0.2101 -0.1771
    4CHL1   H3'  226   6.186   4.535  10.597  0.6057 -0.0904  1.1760
    4CHL1    C4  227   6.333   4.630  10.379  0.2030  0.5081  0.2653
    4CHL1   H4A  228   6.254   4.702  10.408 -0.2432 -0.3924  1.2889
    4CHL1   H4B  229   6.423   4.658  10.439  0.6085  0.8773 -0.4998
    4CHL1    C5  230   6.352   4.623  10.225 -0.2762 -0.2562 -0.1058
    4CHL1    C6  231   6.470   4.662  10.161  1.1927  0.0531 -0.4122
    4CHL1    H6  232   6.549   4.711  10.220  0.1299  1.4760 -0.1559
    4CHL1    C7  233   6.492   4.670  10.013  0.4628 -1.1569 -0.5846
    4CHL1   H7A  234   6.539   4.760   9.968 -1.2945  0.0054 -0.1464
    4CHL1   H7B  235   6.562   4.587   9.991  0.4542 -0.9752 -1.3167
    4CHL1    C8  236   6.359   4.653   9.932 -0.3305  0.3634 -0.6369
    4CHL1    H8  237   6.303   4.748   9.935 -2.2620 -0.6231 -3.2764
    4CHL1   C14  238   6.391   4.629   9.785 -0.2220 -0.4385  0.6207
    4CHL1   H14  239   6.445   4.533   9.774 -0.1701 -0.5815  2.1165
    4CHL1   C15  240   6.491   4.724   9.709  0.7315 -0.1513 -0.2061
    4CHL1  H15A  241   6.473   4.829   9.739 -2.6670 -0.9758  0.8888
    4CHL1  H15B  242   6.594   4.695   9.739  0.6928  0.0895  0.1603
    4CHL1   C16  243   6.465   4.683   9.565  0.0576 -0.2481  0.0056
    4CHL1  H16A  244   6.438   4.775   9.509  0.0492 -0.2235  0.0502
    4CHL1  H16B  245   6.556   4.641   9.517  1.3274  0.9676  1.2872
    4CHL1   C17  246   6.353   4.579   9.564 -0.5735  0.5202 -0.1625
    4CHL1   H17  247   6.401   4.480   9.577  0.6132  1.2404  1.1498
    4CHL1   C13  248   6.270   4.605   9.695 -0.0968 -0.0165 -0.4769
    4CHL1   C18  249   6.188   4.738   9.677 -0.3974  0.9145 -0.0696
    4CHL1  H18A  250   6.226   4.806   9.598  2.3368 -1.7961 -1.2073
    4CHL1  H18B  251   6.081   4.715   9.658 -0.0600 -0.3045 -0.5412
    4CHL1  H18C  252   6.195   4.789   9.776  0.3898 -0.6983  0.7224
    4CHL1   C12  253   6.192   4.482   9.749  0.1500  0.1950  0.1797
    4CHL1  H12A  254   6.101   4.485   9.686  1.5774  1.1669 -1.9041
    4CHL1  H12B  255   6.252   4.389   9.741  0.8841  0.4288  2.7134
    4CHL1   C11  256   6.155   4.510   9.899 -0.0865  0.9165  0.3367
    4CHL1  H11A  257   6.099   4.605   9.889 -0.2038  0.6723 -1.6537
    4CHL1  H11B  258   6.092   4.428   9.939  0.0687  1.5368  1.8568
    4CHL1    C9  259   6.273   4.541   9.991  0.8754  0.5587  0.4446
    4CHL1    H9  260   6.332   4.449  10.011 -1.0175 -0.7511  0.1494
    4CHL1   C10  261   6.235   4.566  10.142  0.0844  0.2909 -0.6455
    4CHL1   C19  262   6.123   4.669  10.144 -0.5795 -0.4536 -0.3313
    4CHL1  H19A  263   6.144   4.765  10.091  2.2639 -0.0315  1.4883
    4CHL1  H19B  264   6.028   4.628  10.102 -0.5699 -1.3015  0.4611
    4CHL1  H19C  265   6.104   4.699  10.249  2.3934  0.9949 -0.1804
    4CHL1    C1  266   6.185   4.437  10.209  0.2958  0.6912 -0.6525
    4CHL1   H1A  267   6.101   4.384  10.158 -0.6965 -1.1676  2.7651
    4CHL1   H1B  268   6.261   4.358  10.191  0.5149  0.2329  2.1135
    4CHL1    C2  269   6.152   4.448  10.360 -0.4972 -0.0924 -0.4888
    4CHL1   H2A  270   6.124   4.349  10.401 -3.0669  0.3770 -1.0195
    4CHL1   H2B  271   6.065   4.516  10.372 -0.0979  0.0738  1.5238
    4CHL1   C20  272   6.275   4.592   9.426 -0.1941 -0.1223 -0.2233
    4CHL1   H20  273   6.218   4.687   9.428  0.1714  0.0955 -0.1340
    4CHL1   C21  274   6.192   4.464   9.411 -0.5066  0.6673 -0.2585
    4CHL1  H21A  275   6.268   4.389   9.441  0.3944  1.4164 -0.6561
    4CHL1  H21B  276   6.167   4.445   9.305 -1.1356  1.5025 -0.2641
    4CHL1  H21C  277   6.103   4.457   9.478 -0.2029 -2.1777 -0.1088
    4CHL1   C22  278   6.365   4.598   9.302 -0.5081  0.4401 -0.0503
    4CHL1  H22A  279   6.430   4.685   9.325  1.9083 -2.0384  2.8882
    4CHL1  H22B  280   6.438   4.515   9.289 -1.8328 -1.0434  1.7364
    4CHL1   C23  281   6.294   4.631   9.161  0.2405  0.1466 -0.0762
    4CHL1  H23A  282   6.245   4.540   9.119 -1.3194  1.6591 -1.6162
    4CHL1  H23B  283   6.209   4.700   9.177 -2.9506 -3.6346  0.2335
    4CHL1   C24  284   6.400   4.675   9.064 -0.0908  0.1920 -0.6727
    4CHL1  H24A  285   6.441   4.769   9.108 -1.9380  1.8380 -2.3434
    4CHL1  H24B  286   6.478   4.597   9.050  0.0871 -0.2557  2.4595
    4CHL1   C25  287   6.336   4.720   8.926  0.2039  0.3693  0.0774
    4CHL1   H25  288   6.261   4.793   8.963  0.3969  0.0123  1.1948
    4CHL1   C26  289   6.431   4.780   8.824 -0.5867 -0.4247  0.1885
    4CHL1  H26A  290   6.476   4.875   8.861  0.4955 -0.3453 -1.2908
    4CHL1  H26B  291   6.514   4.709   8.803 -0.2011  0.5502 -1.6576
    4CHL1  H26C  292   6.380   4.800   8.728 -0.7316  0.6543  0.4827
    4CHL1   C27  293   6.251   4.613   8.858  0.9624  0.3053  0.3203
    4CHL1  H27A  294   6.178   4.650   8.783  2.1844  0.7112 -0.6879
    4CHL1  H27B  295   6.306   4.539   8.797 -0.9201  1.7979 -3.2929
    4CHL1  H27C  296   6.188   4.551   8.924 -1.3719  0.9154 -1.2846
    5CHL1    C3  297   0.606   1.921  10.187 -0.6247 -0.0471  0.2089
    5CHL1    H3  298   0.617   1.813  10.163 -0.2579  0.3927 -1.6461
    5CHL1    O3  299   0.568   1.933  10.324  0.4937 -0.7609 -0.2421
    5CHL1   H3'  300   0.555   2.027  10.342  1.0569 -0.7249  0.0051
    5CHL1    C4  301   0.744   1.989  10.154 -0.5492 -0.6296 -0.1299
    5CHL1   H4A  302   0.733   2.095  10.184  0.1482 -0.2488 -1.1947
    5CHL1   H4B  303   0.813   1.937  10.223 -0.1163  1.7510  1.2604
    5CHL1    C5  304   0.782   1.978  10.009 -0.3484  0.4467  0.2500
    5CHL1    C6  305   0.887   1.903   9.967 -0.3449  0.6121  0.6080
    5CHL1    H6  306   0.949   1.864  10.049 -2.7067 -1.4506  1.5035
    5CHL1    C7  307   0.928   1.876   9.831 -0.5016 -0.1940  0.4686
    5CHL1   H7A  308   1.039   1.877   9.829 -0.4984  0.4145  0.9848
    5CHL1   H7B  309   0.894   1.773   9.807 -0.0916  0.0292 -1.1312
    5CHL1    C8  310   0.859   1.973   9.729 -0.2965  0.1629  0.2266
    5CHL1    H8  311   0.910   2.070   9.744  0.7369  0.0877 -2.5560
    5CHL1   C14  312   0.876   1.924   9.594 -0.0508  0.4103  0.3787
    5CHL1   H14  313   0.821   1.828   9.587  2.8131 -1.4006  1.7400
    5CHL1   C15  314   1.020   1.893   9.544  0.1087 -0.5925 -0.2407
    5CHL1  H15A  315   1.081   1.978   9.579 -1.4528  1.2615 -1.9157
    5CHL1  H15B  316   1.055   1.795   9.584 -0.4868 -0.9678 -0.6243
    5CHL1   C16  317   1.008   1.889   9.392 -0.1828  0.0357  0.8576
    5CHL1  H16A  318   1.080   1.956   9.340  0.4680 -2.1795 -1.2000
    5CHL1  H16B  319   1.020   1.783   9.362 -2.4119 -0.7588  2.6852
    5CHL1   C17  320   0.867   1.949   9.353  1.0128 -0.1099  0.3258
    5CHL1   H17  321   0.793   1.867   9.346  1.3587 -0.2638 -1.9967
    5CHL1   C13  322   0.812   2.016   9.481 -0.4128 -0.6015  0.0324
    5CHL1   C18  323   0.882   2.154   9.490  0.2054  0.7441 -0.4186
    5CHL1  H18A  324   0.993   2.151   9.495  0.2137  1.1685 -0.2501
    5CHL1  H18B  325   0.863   2.229   9.411 -0.6506 -0.0500 -0.9817
    5CHL1  H18C  326   0.870   2.202   9.590 -0.2473  1.3019 -0.7381
    5CHL1   C12  327   0.663   2.020   9.506  0.3078  1.6128  0.4997
    5CHL1  H12A  328   0.622   2.098   9.437 -1.1906  0.0155 -0.4846
    5CHL1  H12B  329   0.605   1.931   9.471 -0.3742  2.6153 -1.0110
    5CHL1   C11  330   0.635   2.063   9.647  0.6142 -0.3924  0.6226
    5CHL1  H11A  331   0.663   2.171   9.649  0.6039 -0.3136 -2.2552
    5CHL1  H11B  332   0.526   2.050   9.662  0.3745 -0.1231 -0.8819
    5CHL1    C9  333   0.706   1.976   9.759 -0.1997 -0.1011 -0.3636
    5CHL1    H9  334   0.696   1.866   9.751  1.0091 -0.1283 -1.9216
    5CHL1   C10  335   0.680   2.025   9.906 -0.0385  0.0409  0.0420
    5CHL1   C19  336   0.687   2.177   9.918 -0.8084  0.5547  0.0279
    5CHL1  H19A  337   0.595   2.225   9.878 -0.5416 -0.2461 -1.5615
    5CHL1  H19B  338   0.685   2.208  10.025 -1.0950  0.7732 -0.0404
    5CHL1  H19C  339   0.777   2.227   9.876  0.1235 -1.6022 -0.5958
    5CHL1    C1  340   0.534   1.969   9.944 -0.2327 -0.1727 -0.3797
    5CHL1   H1A  341   0.455   2.019   9.883 -0.0858 -0.0070 -0.4330
    5CHL1   H1B  342   0.533   1.858   9.932 -0.0422 -0.5612  2.7630
    5CHL1    C2  343   0.506   1.990  10.092  0.0432  0.5038  0.2896
    5CHL1   H2A  344   0.408   1.942  10.115 -1.0894  2.6483  0.0884
    5CHL1   H2B  345   0.493   2.095  10.125 -3.3152  0.2119  0.0742
    5CHL1   C20  346   0.873   2.029   9.219 -0.2362 -0.4786 -0.8420
    5CHL1   H20  347   0.944   2.115   9.221 -2.6647  1.5986 -1.7510
    5CHL1   C21  348   0.744   2.087   9.176  0.0019 -0.7445  0.4379
    5CHL1  H21A  349   0.700   2.152   9.255  2.1233  1.2552  0.0370
    5CHL1  H21B  350   0.670   2.009   9.147  1.6849 -1.3377 -2.4577
    5CHL1  H21C  351   0.765   2.149   9.086 -0.2134 -1.2546  0.0326
    5CHL1   C22  352   0.915   1.929   9.103  0.2863 -0.4130  0.3899
    5CHL1  H22A  353   0.891   1.974   9.004 -0.7346 -2.0339 -0.1309
    5CHL1  H22B  354   1.020   1.894   9.113  1.1968  1.5975 -1.7664
    5CHL1   C23  355   0.834   1.796   9.096  0.4146  0.0382  0.2325
    5CHL1  H23A  356   0.865   1.738   9.185 -0.4487  0.9693  1.1576
    5CHL1  H23B  357   0.726   1.819   9.108  0.7618  1.1112  1.3757
    5CHL1   C24  358   0.855   1.719   8.965 -0.8868 -0.5243  0.4147
    5CHL1  H24A  359   0.819   1.774   8.876  3.6814  1.8397 -0.1459
    5CHL1  H24B  360   0.962   1.699   8.941 -0.7320  0.7612  0.0257
    5CHL1   C25  361   0.787   1.586   8.952 -0.1230 -0.2009  0.3494
    5CHL1   H25  362   0.802   1.541   8.852  0.1268  1.2712 -0.2850
    5CHL1   C26  363   0.835   1.474   9.053 -0.4403  0.4115 -0.1989
    5CHL1  H26A  364   0.812   1.495   9.160  0.7912  1.5987 -0.1595
    5CHL1  H26B  365   0.786   1.382   9.012 -0.2088  0.0241  0.3937
    5CHL1  H26C  366   0.944   1.459   9.038 -0.7752 -2.5076 -0.0258
    5CHL1   C27  367   0.639   1.597   8.964  0.8372 -0.3343 -0.9949
    5CHL1  H27A  368   0.610   1.663   9.048  1.0208  0.0094 -1.1978
    5CHL1  H27B  369   0.599   1.641   8.870 -0.9707  1.3632  0.5348
    5CHL1  H27C  370   0.585   1.500   8.969  1.2323 -0.5090 -0.0784
    6CHL1    C3  371   5.022   6.541  10.368  1.0388 -1.1331  0.6404
    6CHL1    H3  372   5.014   6.430  10.367  0.4565 -1.0986  1.4042
    6CHL1    O3  373   4.985   6.581  10.495  0.3283 -0.2610  0.0076
    6CHL1   H3'  374   4.967   6.675  10.489 -0.2454 -0.2694  1.3473
    6CHL1    C4  375   5.168   6.590  10.338 -0.0711 -0.8286 -0.0400
    6CHL1   H4A  376   5.170   6.701  10.344 -0.0098 -0.9033  1.7559
    6CHL1   H4B  377   5.236   6.559  10.421  0.7387  2.1577  0.4677
    6CHL1    C5  378   5.205   6.546  10.194  0.7581 -0.1653 -0.4814
    6CHL1    C6  379   5.319   6.474  10.170  0.2470  0.9632  0.1657
    6CHL1    H6  380   5.390   6.433  10.243  0.3708 -2.0621 -1.5891
    6CHL1    C7  381   5.369   6.443  10.033  0.4733  0.5685 -0.6065
    6CHL1   H7A  382   5.478   6.464  10.022  0.8463 -1.0600 -0.1799
    6CHL1   H7B  383   5.353   6.336  10.011  0.9426  0.8594 -2.4250
    6CHL1    C8  384   5.295   6.521   9.924 -0.9900 -0.6239 -0.1106
    6CHL1    H8  385   5.329   6.627   9.928 -2.8536 -0.0275  0.5312
    6CHL1   C14  386   5.338   6.462   9.790 -0.1893 -0.0109 -0.0724
    6CHL1   H14  387   5.299   6.358   9.786  3.2001 -1.2900 -1.6459
    6CHL1   C15  388   5.483   6.468   9.742 -0.3562  0.3036  0.3049
    6CHL1  H15A  389   5.521   6.571   9.759  2.3402 -0.5162 -0.4821
    6CHL1  H15B  390   5.556   6.395   9.784  0.1173 -1.3427 -3.1882
    6CHL1   C16  391   5.474   6.447   9.587  0.9595 -0.7538  0.4070
    6CHL1  H16A  392   5.538   6.516   9.528 -0.1694 -0.2558 -0.2639
    6CHL1  H16B  393   5.509   6.346   9.557  0.3279 -0.5006 -1.2694
    6CHL1   C17  394   5.320   6.455   9.550 -0.0167  0.4468 -0.1348
    6CHL1   H17  395   5.287   6.350   9.564  1.5739 -0.2156 -1.1815
    6CHL1   C13  396   5.261   6.530   9.676 -0.5196 -0.1794  0.5348
    6CHL1   C18  397   5.289   6.683   9.655 -0.0168 -0.3853  0.0577
    6CHL1  H18A  398   5.204   6.733   9.604 -0.3149 -1.1642 -0.2172
    6CHL1  H18B  399   5.304   6.733   9.753  0.3558 -1.1492  0.3988
    6CHL1  H18C  400   5.389   6.701   9.611  0.8086 -4.2161  0.1679
    6CHL1   C12  401   5.108   6.514   9.697  0.0100 -0.3167 -0.2684
    6CHL1  H12A  402   5.058   6.554   9.606 -1.2964 -2.9337 -0.7524
    6CHL1  H12B  403   5.080   6.408   9.716  0.0340 -0.4280 -0.8385
    6CHL1   C11  404   5.063   6.571   9.823 -0.1979 -0.5821  0.3829
    6CHL1  H11A  405   5.097   6.677   9.820 -0.0904 -0.6078  0.6422
    6CHL1  H11B  406   4.953   6.567   9.837 -0.2110 -0.8491  0.1930
    6CHL1    C9  407   5.146   6.517   9.946  1.4559 -0.7724  0.8484
    6CHL1    H9  408   5.117   6.411   9.957 -1.6925 -0.4272 -2.8855
    6CHL1   C10  409   5.105   6.585  10.085 -0.4735 -0.3895  0.5015
    6CHL1   C19  410   5.130   6.737  10.069  0.5764  0.0111 -0.4504
    6CHL1  H19A  411   5.058   6.769   9.990  1.3716  0.4766 -0.9884
    6CHL1  H19B  412   5.119   6.794  10.163 -0.1300  1.7370 -1.5535
    6CHL1  H19C  413   5.225   6.770  10.022  0.7324 -0.0456 -0.1748
    6CHL1    C1  414   4.955   6.555  10.123  0.3628  0.2420 -0.4652
    6CHL1   H1A  415   4.884   6.605  10.054 -0.6101 -0.6982 -0.1621
    6CHL1   H1B  416   4.936   6.448  10.102 -0.1972  0.1225  0.6110
    6CHL1    C2  417   4.921   6.603  10.266 -0.5397 -0.1323 -0.0293
    6CHL1   H2A  418   4.818   6.572  10.295 -1.0272 -0.3911 -1.9490
    6CHL1   H2B  419   4.913   6.713  10.271  2.3421  0.0662  1.0067
    6CHL1   C20  420   5.279   6.491   9.405  0.2120  0.5028 -0.1324
    6CHL1   H20  421   5.273   6.602   9.397 -1.3357  0.3713 -0.9665
    6CHL1   C21  422   5.140   6.429   9.372  0.4333  0.0105  0.3119
    6CHL1  H21A  423   5.149   6.318   9.371  0.9734  0.0577 -0.9688
    6CHL1  H21B  424   5.119   6.462   9.268 -0.8675  0.1370  0.6071
    6CHL1  H21C  425   5.057   6.472   9.432 -0.5978 -1.5584  0.0511
    6CHL1   C22  426   5.384   6.442   9.298  0.1300 -0.0447 -0.5937
    6CHL1  H22A  427   5.479   6.490   9.329  0.3358 -0.2833 -0.8537
    6CHL1  H22B  428   5.392   6.332   9.312 -1.2557  0.0861  1.3683
    6CHL1   C23  429   5.355   6.499   9.165 -0.1712 -0.1314  0.5448
    6CHL1  H23A  430   5.264   6.449   9.127  0.7196 -0.3363 -1.4443
    6CHL1  H23B  431   5.345   6.609   9.153  1.3866 -0.1099 -0.8205
    6CHL1   C24  432   5.453   6.432   9.071 -0.1275  0.2975  0.3594
    6CHL1  H24A  433   5.552   6.482   9.081  1.1587 -1.6872 -1.9518
    6CHL1  H24B  434   5.463   6.325   9.099 -0.2910  0.3436  0.5978
    6CHL1   C25  435   5.403   6.432   8.926  0.4815 -0.5087 -0.0284
    6CHL1   H25  436   5.294   6.412   8.915  0.4411  0.6823 -1.9685
    6CHL1   C26  437   5.413   6.571   8.870  0.3714  0.1788  0.5605
    6CHL1  H26A  438   5.344   6.648   8.910  1.3123  0.9272  0.7800
    6CHL1  H26B  439   5.519   6.605   8.874 -0.6889  3.6127  0.8189
    6CHL1  H26C  440   5.388   6.564   8.762  0.1603 -1.7153  0.7094
    6CHL1   C27  441   5.473   6.334   8.844  0.0115  0.3314 -0.1920
    6CHL1  H27A  442   5.581   6.362   8.846  0.1487 -0.1548 -0.6156
    6CHL1  H27B  443   5.471   6.232   8.887  0.8171 -0.2491 -1.4828
    6CHL1  H27C  444   5.443   6.337   8.737  3.6379  1.4140 -1.2633
    7CHL1    C3  445   1.693   3.515  10.445  0.3448 -0.0922  0.2358
    7CHL1    H3  446   1.606   3.575  10.409 -2.9009 -3.6009  1.8841
    7CHL1    O3  447   1.678   3.524  10.587  0.4794 -0.4617  0.5689
    7CHL1   H3'  448   1.747   3.466  10.619  2.2767  0.1580 -1.9799
    7CHL1    C4  449   1.684   3.368  10.406 -0.7352  0.2974 -0.0563
    7CHL1   H4A  450   1.762   3.304  10.452 -2.4160 -1.0189  1.0196
    7CHL1   H4B  451   1.583   3.333  10.435 -1.3311  0.2899 -2.0867
    7CHL1    C5  452   1.692   3.346  10.259 -0.5813 -0.6337 -0.2692
    7CHL1    C6  453   1.585   3.295  10.189 -0.3500 -0.3662  0.0273
    7CHL1    H6  454   1.500   3.255  10.247  1.5528 -0.5185  2.7883
    7CHL1    C7  455   1.576   3.274  10.044 -0.4274  0.5032  0.1522
    7CHL1   H7A  456   1.528   3.175  10.027 -0.3863  0.8865 -2.3164
    7CHL1   H7B  457   1.522   3.359   9.997  0.0874  0.0434 -1.2809
    7CHL1    C8  458   1.714   3.292   9.980  0.5127 -0.2442  0.2200
    7CHL1    H8  459   1.778   3.204  10.004  0.6718 -0.4708 -1.0231
    7CHL1   C14  460   1.699   3.299   9.826 -0.4776 -0.0983  0.1931
    7CHL1   H14  461   1.643   3.392   9.801 -1.8640 -0.9156  0.2018
    7CHL1   C15  462   1.626   3.187   9.762 -0.1467  0.3971 -0.7369
    7CHL1  H15A  463   1.639   3.092   9.818  2.7535  0.7967 -0.6723
    7CHL1  H15B  464   1.516   3.199   9.745 -0.5456 -2.6698 -0.5933
    7CHL1   C16  465   1.684   3.177   9.621 -0.7650 -0.7051 -0.5285
    7CHL1  H16A  466   1.737   3.080   9.607  0.4318 -0.0522 -0.6044
    7CHL1  H16B  467   1.600   3.182   9.548 -0.4550  1.3422 -0.7569
    7CHL1   C17  468   1.788   3.291   9.602 -0.0109 -0.5529  0.0830
    7CHL1   H17  469   1.733   3.386   9.584 -0.1573 -1.1196 -2.6108
    7CHL1   C13  470   1.832   3.313   9.751  0.5839  0.2768  0.0517
    7CHL1   C18  471   1.925   3.197   9.785 -0.1831 -0.5096 -0.2869
    7CHL1  H18A  472   2.023   3.207   9.734  0.2951 -0.3900  0.6412
    7CHL1  H18B  473   1.952   3.170   9.890  2.6195  1.4260 -0.4616
    7CHL1  H18C  474   1.879   3.105   9.743  1.7512 -0.6840 -2.0992
    7CHL1   C12  475   1.885   3.455   9.794  0.3516  0.0570 -0.2743
    7CHL1  H12A  476   1.986   3.459   9.747  0.9866  0.8579  1.1175
    7CHL1  H12B  477   1.821   3.541   9.767 -0.8896 -0.3384  1.3356
    7CHL1   C11  478   1.905   3.462   9.948  0.8605  0.2074 -0.3647
    7CHL1  H11A  479   1.988   3.392   9.968  0.0158 -0.5940  0.4186
    7CHL1  H11B  480   1.934   3.562   9.987  0.4481  0.4363 -0.6375
    7CHL1    C9  481   1.782   3.418  10.032  0.3166 -0.0002  0.8035
    7CHL1    H9  482   1.711   3.502  10.015  2.7714  1.8848 -0.5251
    7CHL1   C10  483   1.808   3.417  10.186 -0.4240 -0.6454  0.5835
    7CHL1   C19  484   1.936   3.336  10.204  0.6519 -0.4561  0.2481
    7CHL1  H19A  485   1.944   3.247  10.138  0.6332 -0.0924 -0.2456
    7CHL1  H19B  486   2.025   3.401  10.194 -0.1070  0.5148 -0.2729
    7CHL1  H19C  487   1.948   3.302  10.309 -1.2235  0.4427  0.7747
    7CHL1    C1  488   1.837   3.561  10.246  0.2344  1.0118  0.7009
    7CHL1   H1A  489   1.937   3.600  10.221  0.2493 -0.2188 -1.2805
    7CHL1   H1B  490   1.768   3.626  10.187  0.4967  0.5324 -0.1313
    7CHL1    C2  491   1.823   3.580  10.396  0.4042  0.2083  0.1393
    7CHL1   H2A  492   1.813   3.688  10.418  2.1723  0.4247 -0.0964
    7CHL1   H2B  493   1.913   3.534  10.442  0.2587 -0.7388 -0.5204
    7CHL1   C20  494   1.881   3.267   9.484 -0.0875  0.0798  0.5849
    7CHL1   H20  495   1.950   3.183   9.505 -0.2051 -0.0150  0.5975
    7CHL1   C21  496   1.964   3.397   9.455  0.1548 -0.0781 -0.0533
    7CHL1  H21A  497   2.034   3.380   9.370 -0.9694  1.4495 -1.2956
    7CHL1  H21B  498   2.012   3.426   9.551 -2.5353 -1.2777  1.7118
    7CHL1  H21C  499   1.905   3.486   9.427  1.6246  0.1922 -2.5268
    7CHL1   C22  500   1.802   3.217   9.360 -0.2614  0.5793  0.0907
    7CHL1  H22A  501   1.757   3.117   9.377 -0.8475  0.7809 -0.2464
    7CHL1  H22B  502   1.720   3.287   9.334 -3.0597 -1.7619  2.2925
    7CHL1   C23  503   1.897   3.197   9.231 -0.0466  0.2091  0.3952
    7CHL1  H23A  504   1.945   3.293   9.203  0.1471  0.0112  0.0376
    7CHL1  H23B  505   1.971   3.118   9.258 -2.3325 -1.7871  1.0399
    7CHL1   C24  506   1.816   3.146   9.105  0.1003 -0.2765  1.1108
    7CHL1  H24A  507   1.756   3.054   9.121  2.1027 -1.3619  2.7172
    7CHL1  H24B  508   1.736   3.221   9.089 -0.5587 -1.2091 -0.0211
    7CHL1   C25  509   1.904   3.145   8.974 -0.1255  0.2722 -0.0898
    7CHL1   H25  510   1.954   3.244   8.977  1.1612 -0.3655 -0.0194
    7CHL1   C26  511   2.016   3.034   8.985  0.7518  0.3724 -0.4211
    7CHL1  H26A  512   2.098   3.058   8.913  0.8889  0.9882 -0.0660
    7CHL1  H26B  513   2.061   3.038   9.086  0.1349 -2.4542 -0.0070
    7CHL1  H26C  514   1.968   2.934   8.978  1.8188 -0.2052  0.3791
    7CHL1   C27  515   1.831   3.141   8.841  0.2117 -0.1444 -0.2308
    7CHL1  H27A  516   1.773   3.048   8.824 -0.3643  0.0050  0.8534
    7CHL1  H27B  517   1.752   3.219   8.833 -0.2666 -0.6622 -0.5967
    7CHL1  H27C  518   1.901   3.172   8.761  1.2643 -0.1598  0.6772
    8CHL1    C3  519   1.714   4.834  10.233 -0.7770 -0.2224  0.8744
    8CHL1    H3  520   1.618   4.780  10.250 -0.8829  0.2622  1.8340
    8CHL1    O3  521   1.783   4.849  10.355 -0.1559  0.4204 -0.0125
    8CHL1   H3'  522   1.854   4.911  10.340 -1.2659  1.7004 -0.0213
    8CHL1    C4  523   1.796   4.756  10.134 -0.7794  0.5766  0.7175
    8CHL1   H4A  524   1.889   4.812  10.115 -1.2478  0.7405 -1.2041
    8CHL1   H4B  525   1.819   4.656  10.176  0.1645  1.1864  1.6644
    8CHL1    C5  526   1.719   4.734  10.007 -0.2594 -0.2366 -0.4223
    8CHL1    C6  527   1.695   4.607   9.962  0.4391 -0.6811  0.2025
    8CHL1    H6  528   1.732   4.515  10.009  1.3468  0.4270  1.7070
    8CHL1    C7  529   1.627   4.570   9.834  0.1332 -0.7253  0.4175
    8CHL1   H7A  530   1.688   4.488   9.790  0.0155 -1.0537  0.8676
    8CHL1   H7B  531   1.526   4.540   9.868 -0.0398  0.5672  1.0929
    8CHL1    C8  532   1.623   4.696   9.740 -0.2043 -0.2955  0.0165
    8CHL1    H8  533   1.725   4.719   9.702 -0.0624  2.9368  2.1529
    8CHL1   C14  534   1.527   4.676   9.629 -0.2879  1.6251  0.8302
    8CHL1   H14  535   1.424   4.663   9.667 -0.6372 -2.0076 -1.0993
    8CHL1   C15  536   1.567   4.559   9.531  0.1899 -1.0435 -0.5322
    8CHL1  H15A  537   1.677   4.559   9.515  0.5664 -0.7181  1.9527
    8CHL1  H15B  538   1.549   4.456   9.569 -0.4554 -0.0687  1.8849
    8CHL1   C16  539   1.485   4.583   9.404  0.0464  0.6550 -0.3743
    8CHL1  H16A  540   1.540   4.555   9.312  1.1825 -3.9797  1.5691
    8CHL1  H16B  541   1.394   4.519   9.404 -0.8866  1.9647 -1.4957
    8CHL1   C17  542   1.434   4.729   9.417  0.4105  0.2394 -0.6077
    8CHL1   H17  543   1.333   4.718   9.462  1.3028  1.1479  1.7127
    8CHL1   C13  544   1.518   4.794   9.534  0.5651 -0.3466 -0.6322
    8CHL1   C18  545   1.652   4.839   9.478  0.3971 -0.7468 -0.5488
    8CHL1  H18A  546   1.703   4.756   9.424 -0.2967 -0.8093 -1.1155
    8CHL1  H18B  547   1.625   4.925   9.414 -0.1124 -0.1554  0.4537
    8CHL1  H18C  548   1.721   4.862   9.561  0.0237 -0.1183 -0.4123
    8CHL1   C12  549   1.459   4.913   9.604 -0.2306 -0.0039  0.2467
    8CHL1  H12A  550   1.461   5.000   9.535 -1.7654  1.0061  1.4370
    8CHL1  H12B  551   1.354   4.893   9.636 -0.7337  1.1396 -0.6474
    8CHL1   C11  552   1.536   4.943   9.737  0.7256  0.5409 -0.3235
    8CHL1  H11A  553   1.615   5.013   9.703  1.2816  0.9373  1.7149
    8CHL1  H11B  554   1.469   5.006   9.800  1.5641  1.0268  0.0888
    8CHL1    C9  555   1.581   4.819   9.819 -0.4609  1.0008  0.0887
    8CHL1    H9  556   1.485   4.794   9.868 -0.5896  0.1473 -0.5811
    8CHL1   C10  557   1.678   4.860   9.939  0.5319 -0.7503  0.0451
    8CHL1   C19  558   1.802   4.921   9.885  0.3343 -0.0752 -0.8979
    8CHL1  H19A  559   1.770   5.012   9.831  0.6809  0.8197  0.3817
    8CHL1  H19B  560   1.874   4.953   9.964  0.0624  0.9584 -1.0641
    8CHL1  H19C  561   1.856   4.849   9.820 -0.4449 -1.5330  0.0124
    8CHL1    C1  562   1.615   4.964  10.039 -0.9952  0.3244  0.4081
    8CHL1   H1A  563   1.610   5.066   9.995  2.9941  1.0743  1.4335
    8CHL1   H1B  564   1.513   4.924  10.056 -1.3686  0.2981 -1.7196
    8CHL1    C2  565   1.694   4.979  10.175 -0.1220  0.1449  0.1766
    8CHL1   H2A  566   1.634   5.052  10.233 -2.2461 -0.5498 -1.1118
    8CHL1   H2B  567   1.793   5.026  10.156  0.2492 -0.0550  1.5469
    8CHL1   C20  568   1.412   4.810   9.286 -0.6500  0.3823  0.0508
    8CHL1   H20  569   1.418   4.918   9.312 -0.5509 -0.1773  2.5347
    8CHL1   C21  570   1.266   4.777   9.242 -0.0268 -0.1334 -0.4921
    8CHL1  H21A  571   1.255   4.671   9.211  1.0083 -0.5113  0.3872
    8CHL1  H21B  572   1.231   4.845   9.161  1.0772  1.2841  0.1992
    8CHL1  H21C  573   1.189   4.805   9.317  0.4890  1.0691 -0.4086
    8CHL1   C22  574   1.513   4.775   9.177  0.6243 -0.0625  1.1630
    8CHL1  H22A  575   1.609   4.753   9.228  1.2395 -0.6445 -0.2181
    8CHL1  H22B  576   1.481   4.687   9.117  1.0748  0.2088  0.5103
    8CHL1   C23  577   1.536   4.887   9.071  0.6968  0.2379  0.0226
    8CHL1  H23A  578   1.439   4.911   9.022 -1.6348 -2.3143  3.1020
    8CHL1  H23B  579   1.568   4.973   9.133 -0.1975  1.7125 -1.5312
    8CHL1   C24  580   1.646   4.866   8.966 -0.1907 -1.0301  0.3644
    8CHL1  H24A  581   1.725   4.835   9.038 -0.9148  2.3588  2.7535
    8CHL1  H24B  582   1.602   4.791   8.897 -0.3131  0.4211 -1.1816
    8CHL1   C25  583   1.682   4.992   8.881  0.0994  0.3878 -0.2822
    8CHL1   H25  584   1.618   4.989   8.790 -2.0212  0.6828  1.1549
    8CHL1   C26  585   1.666   5.129   8.949 -0.0877 -0.3734 -0.0671
    8CHL1  H26A  586   1.731   5.149   9.037  0.7459 -0.1161 -0.7267
    8CHL1  H26B  587   1.706   5.194   8.868 -0.4822 -2.1726 -1.7575
    8CHL1  H26C  588   1.563   5.154   8.981  0.6852  3.2124 -0.1656
    8CHL1   C27  589   1.823   4.966   8.834 -0.2299  0.8024 -0.2537
    8CHL1  H27A  590   1.826   4.878   8.767  0.9416  0.2817  0.4576
    8CHL1  H27B  591   1.868   5.034   8.759  0.3887 -1.1337 -1.6708
    8CHL1  H27C  592   1.899   4.943   8.912  1.1112  0.4297 -1.6513
    9CHL1    C3  593   4.580   1.189  10.104  0.8538  1.4821 -0.3401
    9CHL1    H3  594   4.622   1.292  10.116 -2.1808  2.7868 -0.4096
    9CHL1    O3  595   4.569   1.124  10.235  0.2757  1.1714  0.0780
    9CHL1   H3'  596   4.522   1.189  10.287  0.3278 -0.7452  2.6869
    9CHL1    C4  597   4.440   1.193  10.040  0.8539 -0.1662 -0.4581
    9CHL1   H4A  598   4.394   1.093  10.053 -0.8072  0.7129  0.4788
    9CHL1   H4B  599   4.377   1.262  10.100 -0.4357 -0.8624 -0.9914
    9CHL1    C5  600   4.441   1.251   9.902 -0.7575 -0.8296 -0.1578
    9CHL1    C6  601   4.357   1.348   9.861 -0.2795  0.4276 -0.3262
    9CHL1    H6  602   4.295   1.401   9.935 -1.5569 -3.6708  1.6840
    9CHL1    C7  603   4.342   1.411   9.725 -0.2729  0.1523 -0.3656
    9CHL1   H7A  604   4.238   1.400   9.687 -0.0936 -2.4117 -0.2434
    9CHL1   H7B  605   4.367   1.519   9.730 -0.1452  0.3740 -3.8994
    9CHL1    C8  606   4.427   1.330   9.620 -0.8732  1.2841 -0.1304
    9CHL1    H8  607   4.352   1.251   9.597 -1.0417  1.6191 -0.7188
    9CHL1   C14  608   4.454   1.419   9.503  0.4097 -0.1382 -0.1178
    9CHL1   H14  609   4.515   1.505   9.539 -0.9482  0.2255  1.3511
    9CHL1   C15  610   4.324   1.483   9.436  0.0063 -0.1102  0.3459
    9CHL1  H15A  611   4.242   1.408   9.435 -0.3298  0.2252  1.4657
    9CHL1  H15B  612   4.276   1.563   9.496  1.1679 -1.0674  2.6452
    9CHL1   C16  613   4.367   1.524   9.297  0.0636  0.0912 -0.4899
    9CHL1  H16A  614   4.280   1.493   9.236 -0.9253  2.0178 -0.0718
    9CHL1  H16B  615   4.386   1.633   9.298  1.4417 -0.1479  0.7657
    9CHL1   C17  616   4.500   1.454   9.280 -0.4228 -0.4597 -0.4324
    9CHL1   H17  617   4.581   1.523   9.313  1.0410 -2.0298 -0.6988
    9CHL1   C13  618   4.513   1.345   9.386  0.6072 -0.4598 -0.4395
    9CHL1   C18  619   4.435   1.219   9.333 -0.4201  0.5805 -0.3820
    9CHL1  H18A  620   4.481   1.158   9.253  0.0246 -0.2942  0.5246
    9CHL1  H18B  621   4.421   1.151   9.420 -2.1681 -1.1423 -1.9726
    9CHL1  H18C  622   4.333   1.249   9.301 -0.1421 -1.8016 -3.7165
    9CHL1   C12  623   4.658   1.303   9.431  0.3125 -0.1317  0.7375
    9CHL1  H12A  624   4.712   1.264   9.343 -0.3079 -1.5932  0.9964
    9CHL1  H12B  625   4.715   1.388   9.473 -2.4686  1.0142  2.3728
    9CHL1   C11  626   4.647   1.209   9.558 -0.8661  0.4698 -0.0266
    9CHL1  H11A  627   4.609   1.113   9.518 -1.7603  1.5134 -1.7987
    9CHL1  H11B  628   4.747   1.181   9.598 -0.7772 -2.6855 -2.2826
    9CHL1    C9  629   4.563   1.270   9.671  0.4129  0.4580 -0.4602
    9CHL1    H9  630   4.632   1.353   9.696  1.5187 -1.2702  2.5122
    9CHL1   C10  631   4.542   1.184   9.802 -0.0398 -0.5834  0.1577
    9CHL1   C19  632   4.487   1.046   9.763 -0.8520  0.1996 -0.7928
    9CHL1  H19A  633   4.458   0.988   9.854 -0.0351  1.2236  0.1468
    9CHL1  H19B  634   4.394   1.061   9.706 -0.6856  4.0327 -0.1524
    9CHL1  H19C  635   4.562   0.974   9.722 -0.3732 -0.4280  1.0869
    9CHL1    C1  636   4.681   1.170   9.870 -0.3176 -0.4350  0.6934
    9CHL1   H1A  637   4.740   1.105   9.801  0.0661 -0.9939  1.5409
    9CHL1   H1B  638   4.723   1.271   9.886 -1.2510  0.1530 -0.5064
    9CHL1    C2  639   4.674   1.108  10.014 -0.5967  0.2406 -0.5899
    9CHL1   H2A  640   4.770   1.091  10.067 -0.6854  1.3825 -0.0501
    9CHL1   H2B  641   4.627   1.007  10.006 -1.9716  0.7566  0.5910
    9CHL1   C20  642   4.534   1.419   9.139 -0.0447  0.5295 -0.6305
    9CHL1   H20  643   4.601   1.331   9.136 -0.7434 -0.1133  1.5019
    9CHL1   C21  644   4.621   1.532   9.088  0.4981  0.4447  0.4923
    9CHL1  H21A  645   4.633   1.519   8.978 -0.2113 -1.9232  0.6714
    9CHL1  H21B  646   4.722   1.535   9.134  1.5121 -0.0258 -1.6106
    9CHL1  H21C  647   4.564   1.626   9.100 -0.2233  0.1601 -0.5886
    9CHL1   C22  648   4.414   1.375   9.051  0.2882  0.3997  0.4072
    9CHL1  H22A  649   4.344   1.300   9.094 -1.8939  1.5808 -0.9809
    9CHL1  H22B  650   4.358   1.467   9.027  1.5380  0.8980 -0.7179
    9CHL1   C23  651   4.457   1.303   8.921  0.2025 -0.3247 -0.9881
    9CHL1  H23A  652   4.364   1.294   8.862  1.2453 -1.3926 -2.5173
    9CHL1  H23B  653   4.530   1.368   8.868 -1.0524  0.3507 -1.8994
    9CHL1   C24  654   4.505   1.158   8.935 -0.4257  0.1228 -0.3983
    9CHL1  H24A  655   4.600   1.144   8.992 -1.7134 -0.9361  1.5614
    9CHL1  H24B  656   4.421   1.099   8.979  0.8883 -1.3275  0.2210
    9CHL1   C25  657   4.535   1.097   8.799 -0.1314 -0.6806  0.4514
    9CHL1   H25  658   4.446   1.134   8.744  1.8444 -0.6486 -2.8535
    9CHL1   C26  659   4.655   1.156   8.719 -0.0529 -0.5843 -0.6310
    9CHL1  H26A  660   4.755   1.133   8.761 -0.3120 -0.4807  0.0507
    9CHL1  H26B  661   4.643   1.118   8.615  0.3351 -1.5634 -0.3191
    9CHL1  H26C  662   4.652   1.267   8.720  1.2285 -0.5584  0.6084
    9CHL1   C27  663   4.543   0.953   8.821  0.0141 -0.0511 -0.3713
    9CHL1  H27A  664   4.629   0.936   8.889  1.6941 -0.7861 -2.6278
    9CHL1  H27B  665   4.451   0.910   8.865  0.5897  0.2404  1.1807
    9CHL1  H27C  666   4.553   0.902   8.723 -0.6724  0.1264 -0.5313
   10CHL1    C3  667   3.808   4.727  10.089  0.5147  0.2867 -0.1852
   10CHL1    H3  668   3.728   4.655  10.060  0.2358  0.7626 -0.6322
   10CHL1    O3  669   3.846   4.712  10.224 -0.1373 -0.0637 -0.1668
   10CHL1   H3'  670   3.877   4.623  10.240  1.9498  0.6280 -0.2562
   10CHL1    C4  671   3.933   4.704  10.005 -0.8887 -0.0396  0.8728
   10CHL1   H4A  672   4.018   4.770  10.032 -0.0690  0.3389 -2.3395
   10CHL1   H4B  673   3.955   4.595  10.007 -0.3775  0.0365  0.0164
   10CHL1    C5  674   3.903   4.731   9.859 -0.0849  0.4160 -0.0447
   10CHL1    C6  675   3.933   4.644   9.767 -0.3279  0.5549  0.1742
   10CHL1    H6  676   3.983   4.551   9.800  2.0094  2.0616  0.9853
   10CHL1    C7  677   3.917   4.655   9.618  0.3556  0.8346 -1.0747
   10CHL1   H7A  678   4.011   4.614   9.573  1.0766  1.3084 -0.0119
   10CHL1   H7B  679   3.831   4.590   9.591  0.0186  0.8729 -0.0713
   10CHL1    C8  680   3.880   4.799   9.577  0.5455 -0.2877 -0.1185
   10CHL1    H8  681   3.971   4.862   9.566  0.7468 -0.7622 -1.2227
   10CHL1   C14  682   3.813   4.792   9.445  0.8598 -0.8347 -0.7265
   10CHL1   H14  683   3.719   4.733   9.455  0.3005 -0.2714 -2.4658
   10CHL1   C15  684   3.884   4.713   9.336 -0.7789 -0.2109  0.0695
   10CHL1  H15A  685   3.994   4.725   9.338 -0.8131  0.0564  2.9125
   10CHL1  H15B  686   3.848   4.608   9.342 -1.7177  0.0368 -1.0602
   10CHL1   C16  687   3.820   4.773   9.209 -0.9393  0.5151  0.4118
   10CHL1  H16A  688   3.912   4.802   9.153 -0.7180 -3.4066 -1.4430
   10CHL1  H16B  689   3.771   4.684   9.164  0.8442  0.7277 -2.0968
   10CHL1   C17  690   3.724   4.890   9.250  0.9473 -0.2435 -0.1109
   10CHL1   H17  691   3.618   4.857   9.254  1.1701 -1.0449 -0.6478
   10CHL1   C13  692   3.771   4.934   9.388 -0.1149 -1.0450  0.6718
   10CHL1   C18  693   3.897   5.020   9.378  0.4439  0.7498 -0.0715
   10CHL1  H18A  694   3.968   4.983   9.301  1.2247  2.8208 -0.3724
   10CHL1  H18B  695   3.868   5.121   9.342  2.2631  0.8879 -1.2084
   10CHL1  H18C  696   3.943   5.037   9.477  0.3461  1.0804 -0.0831
   10CHL1   C12  697   3.673   4.997   9.485  0.0433 -0.7240  0.4611
   10CHL1  H12A  698   3.649   5.104   9.467 -0.4566 -1.0303 -0.7343
   10CHL1  H12B  699   3.577   4.941   9.479 -0.3911  0.1414 -1.0300
   10CHL1   C11  700   3.720   5.003   9.631 -0.0592  0.4750  0.0898
   10CHL1  H11A  701   3.799   5.080   9.641 -2.8436  3.3103  0.8458
   10CHL1  H11B  702   3.639   5.046   9.693 -1.4759 -0.3109 -1.1594
   10CHL1    C9  703   3.783   4.865   9.681  0.3419  0.1724  0.5986
   10CHL1    H9  704   3.695   4.798   9.683  0.4809 -0.0183  0.4052
   10CHL1   C10  705   3.829   4.864   9.825 -0.0188 -0.6033 -0.5124
   10CHL1   C19  706   3.936   4.983   9.851  0.0744 -0.2104  0.1109
   10CHL1  H19A  707   3.885   5.079   9.834  1.5231  0.8073  1.3605
   10CHL1  H19B  708   3.987   4.988   9.950  1.6458  0.6622 -0.7322
   10CHL1  H19C  709   4.011   4.984   9.769 -0.6271  0.8410 -0.5272
   10CHL1    C1  710   3.705   4.883   9.922 -0.0537  0.3155 -0.1024
   10CHL1   H1A  711   3.669   4.986   9.904 -0.7428 -0.0124 -0.5973
   10CHL1   H1B  712   3.618   4.816   9.905  0.4736  0.0697 -1.8506
   10CHL1    C2  713   3.745   4.865  10.073 -0.2044 -0.5524  0.0121
   10CHL1   H2A  714   3.651   4.879  10.131  0.7013  2.8603  0.7520
   10CHL1   H2B  715   3.822   4.940  10.101 -1.0136  0.3668 -0.1838
   10CHL1   C20  716   3.717   4.994   9.130 -0.2072 -0.0244 -0.3066
   10CHL1   H20  717   3.815   5.043   9.111  0.8277 -1.4201  1.3748
   10CHL1   C21  718   3.613   5.100   9.162 -0.0872  0.7676 -0.0498
   10CHL1  H21A  719   3.558   5.074   9.255  0.8738  1.4103  0.6984
   10CHL1  H21B  720   3.541   5.134   9.085 -0.4062  0.1607 -0.0272
   10CHL1  H21C  721   3.664   5.196   9.186 -2.5957  2.3305 -0.7836
   10CHL1   C22  722   3.674   4.926   8.996  0.4273  0.0736 -0.5435
   10CHL1  H22A  723   3.735   4.835   8.982  0.9047  0.4299 -0.7932
   10CHL1  H22B  724   3.565   4.906   9.012  0.3585  1.2023  0.4792
   10CHL1   C23  725   3.691   5.014   8.875 -0.8452 -0.2345 -0.1660
   10CHL1  H23A  726   3.634   5.107   8.897 -0.3597  0.8845 -3.3066
   10CHL1  H23B  727   3.800   5.026   8.859 -0.8923 -0.4318 -0.6475
   10CHL1   C24  728   3.629   4.939   8.754 -0.5638  0.7924  0.1310
   10CHL1  H24A  729   3.686   4.846   8.736 -0.8640 -0.1440  3.5431
   10CHL1  H24B  730   3.525   4.907   8.778  0.0100 -2.6230 -1.6963
   10CHL1   C25  731   3.623   5.023   8.631  0.0451  0.3887 -0.0139
   10CHL1   H25  732   3.572   4.963   8.553  2.6412 -0.6528 -0.9898
   10CHL1   C26  733   3.534   5.146   8.649  0.4934  0.3693 -0.1862
   10CHL1  H26A  734   3.562   5.207   8.738  0.0083 -1.1674  1.0542
   10CHL1  H26B  735   3.546   5.196   8.551 -0.6507 -0.6165 -0.8401
   10CHL1  H26C  736   3.431   5.107   8.659  1.0243 -1.1276 -0.3692
   10CHL1   C27  737   3.760   5.058   8.587 -0.4173 -0.0462  0.5334
   10CHL1  H27A  738   3.769   5.073   8.477 -1.6989 -6.3065 -0.5999
   10CHL1  H27B  739   3.792   5.151   8.639 -0.7269  1.1401 -1.3529
   10CHL1  H27C  740   3.830   4.975   8.611 -2.3014 -0.8697  3.3732
   11CHL1    C3  741   6.193   1.560  10.089  0.3834 -0.2534 -0.8092
   11CHL1    H3  742   6.097   1.585  10.039 -1.4755 -2.7978  1.3367
   11CHL1    O3  743   6.167   1.531  10.227 -0.0265  0.3641 -0.1340
   11CHL1   H3'  744   6.249   1.531  10.277 -0.7536 -1.6115  1.1236
   11CHL1    C4  745   6.248   1.431  10.028  0.1350  0.4235 -0.1000
   11CHL1   H4A  746   6.332   1.388  10.086  0.6210  0.4755 -0.7545
   11CHL1   H4B  747   6.155   1.371  10.040  0.1129  0.3928 -0.4128
   11CHL1    C5  748   6.289   1.447   9.883 -0.2074 -0.5075 -0.2147
   11CHL1    C6  749   6.245   1.364   9.787  0.1281  0.3378 -0.1944
   11CHL1    H6  750   6.177   1.282   9.817  0.6858 -0.8751 -2.1476
   11CHL1    C7  751   6.281   1.375   9.640 -0.1008  0.1625  0.5251
   11CHL1   H7A  752   6.308   1.275   9.600  1.7976 -0.0095  2.1454
   11CHL1   H7B  753   6.200   1.408   9.572  0.1056 -0.2992  0.0549
   11CHL1    C8  754   6.404   1.469   9.614  0.7671  0.4610  0.1064
   11CHL1    H8  755   6.495   1.410   9.637  0.6096 -0.8860 -2.4839
   11CHL1   C14  756   6.429   1.494   9.462 -0.2181 -0.5004 -0.2358
   11CHL1   H14  757   6.341   1.554   9.430 -0.5528  1.3307  3.8548
   11CHL1   C15  758   6.435   1.369   9.375  0.1095  0.0146 -0.5795
   11CHL1  H15A  759   6.497   1.290   9.423  1.8405 -0.2393 -3.1269
   11CHL1  H15B  760   6.341   1.312   9.362  1.1294 -1.4361 -1.8180
   11CHL1   C16  761   6.501   1.417   9.248  0.4500 -0.0628 -0.0004
   11CHL1  H16A  762   6.590   1.354   9.229  0.2206 -0.2208 -0.5893
   11CHL1  H16B  763   6.430   1.410   9.162 -0.3292  2.0984  0.4423
   11CHL1   C17  764   6.542   1.561   9.271 -0.3407  0.3943 -0.0970
   11CHL1   H17  765   6.459   1.626   9.236 -0.7049  0.4581  0.8571
   11CHL1   C13  766   6.545   1.581   9.429 -0.5998 -0.7628  1.3815
   11CHL1   C18  767   6.684   1.525   9.475  0.7786 -0.3070 -0.5153
   11CHL1  H18A  768   6.688   1.504   9.584  0.0994  2.2029  0.0217
   11CHL1  H18B  769   6.711   1.427   9.430  0.9079 -0.5881  0.1576
   11CHL1  H18C  770   6.772   1.585   9.444  0.4285  0.4192 -0.1230
   11CHL1   C12  771   6.521   1.713   9.507 -0.3280  0.2558  0.3060
   11CHL1  H12A  772   6.596   1.793   9.490  0.0825 -0.2661 -0.3193
   11CHL1  H12B  773   6.426   1.760   9.472 -0.5640 -0.3900  0.0874
   11CHL1   C11  774   6.510   1.689   9.660  0.6762 -0.7384 -0.5001
   11CHL1  H11A  775   6.608   1.659   9.703  1.1249 -0.3207 -1.2308
   11CHL1  H11B  776   6.491   1.788   9.706 -2.2954 -0.1934 -2.7699
   11CHL1    C9  777   6.395   1.599   9.701 -0.1245  0.3036 -0.4177
   11CHL1    H9  778   6.302   1.650   9.666 -0.1845  0.3563 -0.1778
   11CHL1   C10  779   6.388   1.567   9.852  0.1513  0.2944 -1.0054
   11CHL1   C19  780   6.527   1.531   9.904 -0.1450 -0.7830  0.5258
   11CHL1  H19A  781   6.596   1.618   9.898 -0.8825 -0.4042 -4.2864
   11CHL1  H19B  782   6.532   1.516  10.014  1.6718  1.3481  0.7659
   11CHL1  H19C  783   6.575   1.451   9.843 -1.1226  0.1381 -1.4683
   11CHL1    C1  784   6.335   1.690   9.930  0.2490 -0.2550 -0.7956
   11CHL1   H1A  785   6.405   1.777   9.920  0.4288 -0.2003  0.6874
   11CHL1   H1B  786   6.248   1.725   9.871  0.3197  0.2860 -0.5872
   11CHL1    C2  787   6.298   1.670  10.074 -0.5966 -0.2985  0.5625
   11CHL1   H2A  788   6.269   1.768  10.119  0.8056  0.9031 -1.0837
   11CHL1   H2B  789   6.383   1.641  10.140 -1.5147  0.1154  1.9645
   11CHL1   C20  790   6.669   1.602   9.190  0.2183 -0.2086 -0.1882
   11CHL1   H20  791   6.757   1.545   9.225 -1.1247 -2.3970 -0.2550
   11CHL1   C21  792   6.680   1.755   9.210 -0.2920 -0.8684  0.9856
   11CHL1  H21A  793   6.781   1.781   9.173  0.5935 -1.0300  3.1956
   11CHL1  H21B  794   6.676   1.778   9.319 -0.1320  1.5752  0.4879
   11CHL1  H21C  795   6.596   1.812   9.164  1.3767  2.2757  1.7134
   11CHL1   C22  796   6.657   1.565   9.043  0.0915 -0.3749  0.4108
   11CHL1  H22A  797   6.744   1.606   8.988  0.5038  1.6726  2.5199
   11CHL1  H22B  798   6.663   1.458   9.016 -2.4098 -0.8621  1.6056
   11CHL1   C23  799   6.531   1.619   8.967 -0.2665 -0.8452 -0.1939
   11CHL1  H23A  800   6.436   1.601   9.021 -1.3502 -1.0377 -2.1332
   11CHL1  H23B  801   6.517   1.729   8.963  0.6191 -0.7310 -0.1574
   11CHL1   C24  802   6.526   1.566   8.821 -0.2333  0.4894  0.2806
   11CHL1  H24A  803   6.523   1.458   8.846 -1.7136  0.5786  0.5216
   11CHL1  H24B  804   6.431   1.610   8.784 -0.7946 -1.8434 -1.1044
   11CHL1   C25  805   6.646   1.595   8.733 -0.0382 -0.0348 -1.0160
   11CHL1   H25  806   6.734   1.555   8.787 -1.4906  0.2485  1.6855
   11CHL1   C26  807   6.624   1.520   8.602  0.3839  0.5145  0.0046
   11CHL1  H26A  808   6.723   1.498   8.559 -0.1957  1.7177 -2.0087
   11CHL1  H26B  809   6.575   1.421   8.610  0.7539  0.3059 -0.3285
   11CHL1  H26C  810   6.563   1.586   8.536 -0.6605 -0.2453  0.1914
   11CHL1   C27  811   6.679   1.742   8.698  0.5206  0.6318 -0.3628
   11CHL1  H27A  812   6.592   1.794   8.652  0.2126  1.1274  0.7660
   11CHL1  H27B  813   6.703   1.801   8.789 -0.0696  1.4431 -0.7227
   11CHL1  H27C  814   6.766   1.767   8.634  2.1144  1.3584  2.0191
   12CHL1    C3  815   2.366   4.416  10.294 -0.1738 -0.0144 -0.2982
   12CHL1    H3  816   2.393   4.524  10.293  1.1215 -0.3208 -0.4178
   12CHL1    O3  817   2.375   4.378  10.429 -0.2758 -0.6025 -0.5468
   12CHL1   H3'  818   2.328   4.445  10.478  0.8475  0.7183 -1.2560
   12CHL1    C4  819   2.231   4.395  10.239  0.6147  0.0148 -0.0365
   12CHL1   H4A  820   2.206   4.289  10.264  1.4249 -0.4683 -1.2632
   12CHL1   H4B  821   2.152   4.457  10.287 -1.4890 -2.2824 -0.4144
   12CHL1    C5  822   2.229   4.420  10.087  0.2820  0.1270  0.4681
   12CHL1    C6  823   2.136   4.500  10.035 -0.3376 -0.0012  0.2691
   12CHL1    H6  824   2.067   4.558  10.098  0.9719  0.3586  1.3977
   12CHL1    C7  825   2.106   4.525   9.891  0.0615 -0.2139 -0.0170
   12CHL1   H7A  826   1.997   4.537   9.875 -0.1722 -1.1676  0.7913
   12CHL1   H7B  827   2.158   4.618   9.860 -0.9307  0.4125  0.1704
   12CHL1    C8  828   2.172   4.419   9.800 -0.2894  0.0416  0.1910
   12CHL1    H8  829   2.123   4.320   9.809  1.1449 -0.5799  1.4749
   12CHL1   C14  830   2.183   4.465   9.651  0.8623 -0.3442  0.0659
   12CHL1   H14  831   2.235   4.563   9.657  1.0306 -0.5481  2.0497
   12CHL1   C15  832   2.047   4.496   9.583  0.0492 -0.1145 -0.0345
   12CHL1  H15A  833   1.976   4.410   9.581 -0.4808  0.3175  0.2671
   12CHL1  H15B  834   2.003   4.588   9.626  0.3469  1.7664 -3.5214
   12CHL1   C16  835   2.091   4.518   9.439 -0.1172 -0.7525  0.4103
   12CHL1  H16A  836   2.018   4.469   9.372  2.1310 -1.7699 -1.3622
   12CHL1  H16B  837   2.084   4.624   9.409 -1.0853 -0.9162  0.0572
   12CHL1   C17  838   2.237   4.464   9.422 -0.4052  0.1859  0.3372
   12CHL1   H17  839   2.309   4.545   9.444 -1.0176  0.4903  1.2453
   12CHL1   C13  840   2.250   4.380   9.550  0.4288  0.4561  0.0353
   12CHL1   C18  841   2.185   4.243   9.524  0.1136 -0.2095  0.0749
   12CHL1  H18A  842   2.090   4.259   9.468  0.8426 -1.1573 -1.4910
   12CHL1  H18B  843   2.256   4.172   9.477  1.1015  0.3479  0.7238
   12CHL1  H18C  844   2.163   4.202   9.625  2.7253  0.1828  0.8218
   12CHL1   C12  845   2.389   4.366   9.608  0.1643  0.1002 -0.2500
   12CHL1  H12A  846   2.459   4.314   9.539  0.7037 -0.4896  0.7190
   12CHL1  H12B  847   2.437   4.465   9.626  0.2584 -0.4377  2.6382
   12CHL1   C11  848   2.394   4.309   9.752  0.6012 -0.7072 -0.0874
   12CHL1  H11A  849   2.339   4.212   9.750 -1.2188  0.3191 -1.4673
   12CHL1  H11B  850   2.500   4.298   9.785  1.0260  1.7068 -0.5450
   12CHL1    C9  851   2.313   4.388   9.852 -0.4206  0.5172 -0.0911
   12CHL1    H9  852   2.370   4.483   9.838 -0.7326  0.1904 -3.9580
   12CHL1   C10  853   2.322   4.341   9.999 -0.2008 -0.1577  0.6720
   12CHL1   C19  854   2.277   4.192  10.004 -0.1162  0.5893 -0.0049
   12CHL1  H19A  855   2.183   4.172   9.950  1.0342  1.0660 -2.2213
   12CHL1  H19B  856   2.360   4.147   9.945 -0.6096  0.9545 -0.9846
   12CHL1  H19C  857   2.279   4.149  10.107  0.0197  1.4572  0.3628
   12CHL1    C1  858   2.460   4.346  10.071 -0.3008 -0.2083 -0.2199
   12CHL1   H1A  859   2.542   4.282  10.030 -0.5522 -0.8371  0.2508
   12CHL1   H1B  860   2.493   4.450  10.051 -1.3727  0.3703  0.9694
   12CHL1    C2  861   2.464   4.326  10.216  0.6710 -0.2562 -0.4068
   12CHL1   H2A  862   2.568   4.329  10.255  0.6308 -0.2004 -0.3052
   12CHL1   H2B  863   2.435   4.220  10.234  2.0941 -1.0110 -2.4126
   12CHL1   C20  864   2.263   4.401   9.281  0.1940  0.0285  0.2267
   12CHL1   H20  865   2.198   4.312   9.262  0.2641 -0.3693  1.7501
   12CHL1   C21  866   2.408   4.366   9.268 -0.5072  0.1347  0.3606
   12CHL1  H21A  867   2.464   4.447   9.320  1.3379 -0.7334 -0.2481
   12CHL1  H21B  868   2.435   4.366   9.161 -1.1573  1.2462  0.1962
   12CHL1  H21C  869   2.422   4.261   9.303 -0.3934 -0.7219 -2.1469
   12CHL1   C22  870   2.229   4.497   9.167  0.3205  0.3346 -1.1130
   12CHL1  H22A  871   2.272   4.460   9.072  0.7530  2.6640 -1.8698
   12CHL1  H22B  872   2.120   4.511   9.154  0.1433  0.8216  0.7507
   12CHL1   C23  873   2.286   4.637   9.194 -0.0639  0.0443 -0.5196
   12CHL1  H23A  874   2.237   4.682   9.283 -1.5668 -1.2306 -0.6868
   12CHL1  H23B  875   2.396   4.624   9.208 -0.6021 -2.7071  1.5022
   12CHL1   C24  876   2.250   4.733   9.074 -0.3153 -0.5938 -0.9668
   12CHL1  H24A  877   2.288   4.681   8.984  0.6565 -3.0812  0.8300
   12CHL1  H24B  878   2.140   4.744   9.068 -0.4822  0.3191  2.4537
   12CHL1   C25  879   2.309   4.876   9.076  0.2770  0.2633 -1.0217
   12CHL1   H25  880   2.274   4.918   9.173 -0.6758  1.8478 -2.0415
   12CHL1   C26  881   2.460   4.880   9.084  0.0777  0.6746  0.0337
   12CHL1  H26A  882   2.501   4.838   8.990 -3.0912 -0.5298 -0.8613
   12CHL1  H26B  883   2.495   4.985   9.097  0.3894  0.5979 -0.1802
   12CHL1  H26C  884   2.505   4.831   9.172  0.7560  2.1445  0.5324
   12CHL1   C27  885   2.264   4.967   8.961  0.0856  0.7426  0.0098
   12CHL1  H27A  886   2.309   5.068   8.956  0.9090  0.3232 -1.3673
   12CHL1  H27B  887   2.291   4.927   8.860 -1.6266  0.1268 -0.2282
   12CHL1  H27C  888   2.154   4.975   8.973 -0.2893 -0.1086 -2.5054
   13CHL1    C3  889   1.433   6.530   9.907  0.5999  0.1359 -0.8715
   13CHL1    H3  890   1.363   6.447   9.927 -1.4634  1.9767 -0.2541
   13CHL1    O3  891   1.459   6.616  10.024 -0.5996  0.3812  0.3569
   13CHL1   H3'  892   1.554   6.611  10.038 -0.8035 -1.3037  1.1917
   13CHL1    C4  893   1.568   6.475   9.867  0.1637 -0.2936  0.1601
   13CHL1   H4A  894   1.644   6.555   9.848  1.4493 -1.5942 -0.2669
   13CHL1   H4B  895   1.621   6.415   9.944  0.3787  1.3414  1.3223
   13CHL1    C5  896   1.550   6.390   9.746 -0.1086 -0.3516  0.0879
   13CHL1    C6  897   1.597   6.266   9.734 -0.3864 -0.1083  0.3559
   13CHL1    H6  898   1.663   6.238   9.818 -0.1795  0.9568  0.5564
   13CHL1    C7  899   1.584   6.170   9.619  0.0690  0.0580 -0.2063
   13CHL1   H7A  900   1.680   6.126   9.583  0.9664  1.4988  0.3745
   13CHL1   H7B  901   1.527   6.090   9.670  1.1667  0.1960  1.2628
   13CHL1    C8  902   1.515   6.234   9.495  0.6976  0.1358 -0.5626
   13CHL1    H8  903   1.594   6.283   9.435  0.4716  1.0931 -0.0808
   13CHL1   C14  904   1.444   6.123   9.414  0.6596 -0.6749 -0.2788
   13CHL1   H14  905   1.363   6.069   9.466 -0.2021  1.1659  0.3416
   13CHL1   C15  906   1.538   6.018   9.356 -0.4310 -0.1970 -0.8904
   13CHL1  H15A  907   1.641   6.052   9.329  0.9851 -3.3248  0.2458
   13CHL1  H15B  908   1.553   5.932   9.424  3.3695 -0.0204 -1.3982
   13CHL1   C16  909   1.462   5.971   9.232 -0.0036  0.5112  0.5994
   13CHL1  H16A  910   1.534   5.986   9.148 -0.1811  2.8918  0.8285
   13CHL1  H16B  911   1.438   5.864   9.250  1.1529  0.0066 -0.7517
   13CHL1   C17  912   1.335   6.053   9.224 -0.3005  0.3821  0.2323
   13CHL1   H17  913   1.257   6.007   9.289 -0.6545  1.5469  0.6524
   13CHL1   C13  914   1.366   6.188   9.294  0.5189  0.9189 -0.0018
   13CHL1   C18  915   1.454   6.275   9.202 -0.3936 -0.0645  0.4145
   13CHL1  H18A  916   1.551   6.221   9.187 -0.9691 -1.2592  0.9191
   13CHL1  H18B  917   1.410   6.301   9.103  0.5673 -0.2928 -0.0876
   13CHL1  H18C  918   1.474   6.377   9.241  0.0206 -0.2973  0.8104
   13CHL1   C12  919   1.252   6.274   9.341 -0.5057 -0.0322 -0.3093
   13CHL1  H12A  920   1.203   6.329   9.258 -1.8444 -0.9443 -0.1349
   13CHL1  H12B  921   1.182   6.201   9.387  0.5277 -1.4853 -1.0379
   13CHL1   C11  922   1.309   6.386   9.427  0.2309  0.1368  0.6468
   13CHL1  H11A  923   1.347   6.465   9.359  1.8961 -1.0863  0.1135
   13CHL1  H11B  924   1.224   6.429   9.483  0.0398  1.4615 -0.6162
   13CHL1    C9  925   1.405   6.334   9.530 -0.6580 -0.0588 -0.3973
   13CHL1    H9  926   1.343   6.274   9.600 -0.3310 -0.0510 -0.1043
   13CHL1   C10  927   1.460   6.448   9.624  0.2951 -0.4293 -0.1758
   13CHL1   C19  928   1.546   6.544   9.530 -0.7446  0.1374 -0.1560
   13CHL1  H19A  929   1.638   6.489   9.497  0.0526  1.3986 -0.0690
   13CHL1  H19B  930   1.479   6.559   9.442  2.6790 -0.7344 -3.0455
   13CHL1  H19C  931   1.557   6.644   9.576 -3.3649  0.6539 -0.6036
   13CHL1    C1  932   1.345   6.541   9.676  0.6088 -0.0160  0.0585
   13CHL1   H1A  933   1.310   6.607   9.594  3.3742  3.1657  1.3223
   13CHL1   H1B  934   1.258   6.478   9.703  2.2163 -2.1677  0.3834
   13CHL1    C2  935   1.380   6.625   9.796 -0.2690 -0.4654 -0.6535
   13CHL1   H2A  936   1.288   6.672   9.838  0.3373 -0.2301  0.4372
   13CHL1   H2B  937   1.457   6.701   9.770  0.1266 -0.1126  1.3998
   13CHL1   C20  938   1.271   6.065   9.077 -0.3247 -0.1383  0.2661
   13CHL1   H20  939   1.216   6.161   9.079  2.9038  1.8117 -0.9525
   13CHL1   C21  940   1.167   5.949   9.069 -0.3228 -0.4425 -0.8306
   13CHL1  H21A  941   1.086   5.977   9.140  0.4795  3.4694 -1.3750
   13CHL1  H21B  942   1.221   5.855   9.097  1.7746  0.4835 -1.6222
   13CHL1  H21C  943   1.116   5.942   8.971 -2.2688 -1.4122  0.2269
   13CHL1   C22  944   1.371   6.072   8.960 -0.1334  0.2550  0.0786
   13CHL1  H22A  945   1.461   6.134   8.983 -0.0569  0.3679 -0.5336
   13CHL1  H22B  946   1.413   5.971   8.942  0.6532  0.7241 -0.7442
   13CHL1   C23  947   1.322   6.136   8.831  0.1894  0.4998  0.0748
   13CHL1  H23A  948   1.271   6.052   8.780 -0.2351  0.9699 -0.2817
   13CHL1  H23B  949   1.243   6.208   8.861 -0.9073  0.5290 -2.6997
   13CHL1   C24  950   1.425   6.205   8.740 -0.5932  0.0866  0.5072
   13CHL1  H24A  951   1.481   6.289   8.786  0.5303  1.5416 -3.3820
   13CHL1  H24B  952   1.499   6.130   8.706 -0.5971 -0.1635  1.0323
   13CHL1   C25  953   1.361   6.264   8.614  0.1103  0.2767  0.0549
   13CHL1   H25  954   1.307   6.179   8.565 -0.2526  0.8890 -0.6167
   13CHL1   C26  955   1.267   6.374   8.647 -0.5533  0.0200 -0.4210
   13CHL1  H26A  956   1.304   6.438   8.730  0.1985  0.5426 -1.1489
   13CHL1  H26B  957   1.271   6.442   8.559 -0.6925 -0.9722 -1.2041
   13CHL1  H26C  958   1.165   6.335   8.668  0.2254 -1.5955  0.5035
   13CHL1   C27  959   1.479   6.307   8.520 -0.1180  0.3027 -0.7190
   13CHL1  H27A  960   1.538   6.393   8.559 -1.0329  2.3644 -3.6548
   13CHL1  H27B  961   1.543   6.220   8.494  0.0914  0.5665 -1.1081
   13CHL1  H27C  962   1.428   6.348   8.430 -0.8973 -0.9144 -0.8377
   14CHL1    C3  963   1.232   2.698  10.333  0.8256 -0.2472  0.5061
   14CHL1    H3  964   1.324   2.645  10.301  0.6937 -0.4003  0.3826
   14CHL1    O3  965   1.220   2.698  10.476 -0.1917  0.8336 -0.0221
   14CHL1   H3'  966   1.239   2.607  10.501 -0.5171  0.9707  0.7338
   14CHL1    C4  967   1.238   2.842  10.282  0.7226 -0.1569  0.0107
   14CHL1   H4A  968   1.158   2.910  10.319 -0.5164 -1.3195 -0.4742
   14CHL1   H4B  969   1.333   2.885  10.319  0.0710 -0.5827  2.2745
   14CHL1    C5  970   1.244   2.842  10.130  0.2361 -0.2717  0.2378
   14CHL1    C6  971   1.347   2.907  10.067 -0.1218 -0.4841  0.3924
   14CHL1    H6  972   1.430   2.941  10.130 -0.0418  0.1866 -0.0742
   14CHL1    C7  973   1.366   2.919   9.922  0.0618 -0.2894  0.4779
   14CHL1   H7A  974   1.385   3.025   9.893  0.0628 -0.8505 -1.6596
   14CHL1   H7B  975   1.463   2.867   9.904  1.3602  1.9504  0.7028
   14CHL1    C8  976   1.252   2.859   9.836  0.0277 -0.5362 -0.5138
   14CHL1    H8  977   1.174   2.934   9.813  0.4401 -0.2300 -0.9028
   14CHL1   C14  978   1.315   2.824   9.704  0.3133 -0.4435 -0.3950
   14CHL1   H14  979   1.383   2.739   9.725 -1.3994 -1.1403  2.6115
   14CHL1   C15  980   1.403   2.928   9.624  0.1204  0.5765  0.6342
   14CHL1  H15A  981   1.358   3.030   9.630 -0.4481  0.2786  1.3444
   14CHL1  H15B  982   1.510   2.932   9.656 -0.0307  0.0135  1.2147
   14CHL1   C16  983   1.403   2.874   9.484 -0.2007 -0.0937 -0.4335
   14CHL1  H16A  984   1.359   2.951   9.417 -0.0903  0.2799 -0.0785
   14CHL1  H16B  985   1.507   2.846   9.455  0.6816 -0.7758  3.1938
   14CHL1   C17  986   1.306   2.750   9.488 -0.1518 -0.9210 -1.0765
   14CHL1   H17  987   1.361   2.659   9.520  2.1537 -0.0941 -2.4822
   14CHL1   C13  988   1.210   2.777   9.608 -0.4377 -0.0484  0.2616
   14CHL1   C18  989   1.108   2.886   9.572 -0.3657  0.1954 -0.4916
   14CHL1  H18A  990   1.051   2.858   9.480  0.7724 -0.1441 -1.0994
   14CHL1  H18B  991   1.037   2.904   9.655  1.1251 -0.7273  1.0099
   14CHL1  H18C  992   1.148   2.986   9.544 -0.9685  0.8831  1.0541
   14CHL1   C12  993   1.156   2.646   9.675  0.4842 -0.1803 -0.4516
   14CHL1  H12A  994   1.087   2.588   9.610 -1.7469 -0.8766  2.4121
   14CHL1  H12B  995   1.244   2.581   9.692  0.1475 -0.9597 -1.6666
   14CHL1   C11  996   1.082   2.667   9.808  0.2305  0.1731  0.1995
   14CHL1  H11A  997   1.004   2.744   9.790  0.0545  0.1848  0.9955
   14CHL1  H11B  998   1.044   2.572   9.850  1.1769  0.0445  0.7740
   14CHL1    C9  999   1.184   2.741   9.905  0.7549 -0.4110  0.2360
   14CHL1    H9 1000   1.263   2.663   9.914  2.3285  1.0686 -0.4316
   14CHL1   C10 1001   1.141   2.769  10.050 -0.3225  0.1127 -0.0325
   14CHL1   C19 1002   1.009   2.843  10.041  0.2625 -0.4252  0.0370
   14CHL1  H19A 1003   0.971   2.875  10.141  2.5079 -2.8594  1.7457
   14CHL1  H19B 1004   1.021   2.937   9.984 -0.6527 -0.6620 -0.5442
   14CHL1  H19C 1005   0.928   2.789   9.987 -1.5385  0.9393  1.3130
   14CHL1    C1 1006   1.125   2.628  10.115  0.3128  0.2239  0.1291
   14CHL1   H1A 1007   1.049   2.568  10.060 -0.4505 -0.1076  1.5299
   14CHL1   H1B 1008   1.224   2.580  10.097  0.0969  0.5788 -2.1477
   14CHL1    C2 1009   1.111   2.629  10.264 -0.6522  0.0029 -0.3001
   14CHL1   H2A 1010   1.118   2.521  10.288  2.1929  0.0365 -0.8135
   14CHL1   H2B 1011   1.013   2.663  10.304 -1.6859 -4.4451  1.2551
   14CHL1   C20 1012   1.253   2.734   9.348 -0.5273 -0.4519  0.0691
   14CHL1   H20 1013   1.217   2.834   9.317  0.9595  1.0152  2.8233
   14CHL1   C21 1014   1.149   2.624   9.345  0.0536  0.4440  0.5444
   14CHL1  H21A 1015   1.117   2.603   9.241  0.8473 -4.8333  1.2053
   14CHL1  H21B 1016   1.061   2.663   9.402  0.1771  0.5018  0.6951
   14CHL1  H21C 1017   1.197   2.533   9.389  3.5354  0.6526 -2.5572
   14CHL1   C22 1018   1.373   2.702   9.249 -0.3089 -0.5689 -0.4702
   14CHL1  H22A 1019   1.450   2.782   9.259  0.7561 -1.7320  0.8306
   14CHL1  H22B 1020   1.414   2.602   9.272  2.1609  0.8923  1.7595
   14CHL1   C23 1021   1.330   2.706   9.097 -0.5511 -0.9752  0.0386
   14CHL1  H23A 1022   1.257   2.629   9.064 -0.8976  0.0875 -1.6951
   14CHL1  H23B 1023   1.289   2.808   9.081 -1.6654 -1.1996  1.4124
   14CHL1   C24 1024   1.461   2.698   9.011  0.1213 -0.4074 -0.3430
   14CHL1  H24A 1025   1.531   2.779   9.038  1.1408 -1.3693 -0.0538
   14CHL1  H24B 1026   1.516   2.603   9.028 -0.4941 -0.6020  0.6429
   14CHL1   C25 1027   1.426   2.706   8.861 -0.1678  0.0818 -0.5690
   14CHL1   H25 1028   1.342   2.779   8.858  0.3470  0.6367 -1.6652
   14CHL1   C26 1029   1.540   2.760   8.781  0.6764  0.0209  0.5159
   14CHL1  H26A 1030   1.517   2.781   8.674  0.8971 -2.7969 -0.1438
   14CHL1  H26B 1031   1.576   2.856   8.822  0.9332 -0.2932  1.0219
   14CHL1  H26C 1032   1.632   2.698   8.772  0.0038 -0.6306 -2.3613
   14CHL1   C27 1033   1.370   2.576   8.802  0.0832 -0.2598 -0.3238
   14CHL1  H27A 1034   1.445   2.499   8.776 -1.9256 -3.4164  2.8149
   14CHL1  H27B 1035   1.301   2.530   8.875 -0.1884  2.8549  1.4782
   14CHL1  H27C 1036   1.316   2.596   8.706 -0.4885  3.9008  0.7514
   15CHL1    C3 1037   1.372   1.506  10.005 -0.1819  0.4497  0.1933
   15CHL1    H3 1038   1.481   1.502   9.982 -0.6645 -4.9927 -1.9493
   15CHL1    O3 1039   1.350   1.528  10.152 -0.3617 -0.3240  0.1687
   15CHL1   H3' 1040   1.254   1.526  10.157 -0.2755 -2.5026  1.3864
   15CHL1    C4 1041   1.303   1.616   9.929 -0.0469 -0.1211  0.2148
   15CHL1   H4A 1042   1.195   1.624   9.955 -0.4900  0.1165 -1.6280
   15CHL1   H4B 1043   1.347   1.714   9.957 -1.2450  1.4063 -3.0533
   15CHL1    C5 1044   1.316   1.600   9.781 -0.1085  0.5734  0.2623
   15CHL1    C6 1045   1.370   1.702   9.713 -1.0255 -0.2604  0.0848
   15CHL1    H6 1046   1.413   1.790   9.764  1.7526 -1.1092 -0.7253
   15CHL1    C7 1047   1.385   1.708   9.564 -0.0891  0.2430 -0.3347
   15CHL1   H7A 1048   1.342   1.803   9.525  3.4397  1.4216 -1.5519
   15CHL1   H7B 1049   1.492   1.706   9.534 -0.3353 -0.8884 -1.1964
   15CHL1    C8 1050   1.300   1.588   9.500  0.0199  0.4855  1.2345
   15CHL1    H8 1051   1.193   1.617   9.495  0.0812  0.3589 -1.5582
   15CHL1   C14 1052   1.356   1.571   9.359 -0.5874 -0.4357  0.1383
   15CHL1   H14 1053   1.460   1.530   9.363 -0.1463  0.6781  0.2914
   15CHL1   C15 1054   1.357   1.702   9.284  0.2893  0.0456  0.1527
   15CHL1  H15A 1055   1.273   1.773   9.300  0.0442 -0.4415  1.0454
   15CHL1  H15B 1056   1.451   1.753   9.315 -0.1185  0.0825  1.3567
   15CHL1   C16 1057   1.352   1.657   9.134  0.7222  0.1624 -0.5622
   15CHL1  H16A 1058   1.260   1.706   9.094 -0.4757 -0.6291  1.1608
   15CHL1  H16B 1059   1.444   1.693   9.083  0.8988  1.9587  0.9649
   15CHL1   C17 1060   1.332   1.506   9.134  0.1281  0.1788  0.2271
   15CHL1   H17 1061   1.438   1.472   9.125  0.1996  0.3865  0.2745
   15CHL1   C13 1062   1.271   1.475   9.275 -0.1776 -0.4640  0.0606
   15CHL1   C18 1063   1.120   1.507   9.270 -0.0509 -0.1956  0.6568
   15CHL1  H18A 1064   1.065   1.428   9.215  0.1778 -1.1586  1.7873
   15CHL1  H18B 1065   1.068   1.500   9.368  0.2041 -0.8670  0.7454
   15CHL1  H18C 1066   1.082   1.605   9.233  0.1175 -0.6890 -0.8324
   15CHL1   C12 1067   1.295   1.333   9.344  1.0554  0.9940  0.5164
   15CHL1  H12A 1068   1.221   1.260   9.305  0.0371  1.2963  1.8267
   15CHL1  H12B 1069   1.399   1.294   9.345  0.1709 -1.4576  0.3799
   15CHL1   C11 1070   1.248   1.343   9.488  0.1269  0.6959  0.2308
   15CHL1  H11A 1071   1.138   1.338   9.496  0.0562  1.0924 -0.4656
   15CHL1  H11B 1072   1.286   1.248   9.531 -2.8056  0.0307  1.4237
   15CHL1    C9 1073   1.314   1.459   9.573  0.1070  0.0354  0.6657
   15CHL1    H9 1074   1.423   1.436   9.580  0.5734  1.7305 -0.6733
   15CHL1   C10 1075   1.261   1.474   9.718 -0.5293  0.0834  0.4395
   15CHL1   C19 1076   1.114   1.469   9.730  0.3118  0.5075  0.1200
   15CHL1  H19A 1077   1.067   1.540   9.659  1.1696 -0.9785 -1.9999
   15CHL1  H19B 1078   1.076   1.370   9.696 -1.2622  1.0534  0.2476
   15CHL1  H19C 1079   1.076   1.480   9.834 -0.7565  1.7567 -0.3862
   15CHL1    C1 1080   1.321   1.356   9.809  0.0186  0.0604  0.1900
   15CHL1   H1A 1081   1.257   1.272   9.775 -1.6946  1.0990  0.7407
   15CHL1   H1B 1082   1.425   1.343   9.772 -0.3046 -1.8030 -0.0929
   15CHL1    C2 1083   1.301   1.379   9.959  0.6657  0.0396  1.1102
   15CHL1   H2A 1084   1.337   1.286  10.007 -0.4472  0.3963  2.6834
   15CHL1   H2B 1085   1.191   1.375   9.973  0.6536 -1.9637  0.5502
   15CHL1   C20 1086   1.256   1.455   9.009 -0.0733 -0.6674  0.5100
   15CHL1   H20 1087   1.153   1.494   9.021 -0.3556 -1.3977  0.5091
   15CHL1   C21 1088   1.255   1.303   9.008 -0.3544 -0.4674  0.0416
   15CHL1  H21A 1089   1.221   1.255   9.102 -0.5474  2.5219  1.5773
   15CHL1  H21B 1090   1.360   1.273   8.983 -0.0478  0.2912  0.4022
   15CHL1  H21C 1091   1.182   1.271   8.931 -0.4835  0.1787 -0.1118
   15CHL1   C22 1092   1.296   1.504   8.873 -0.3058  0.2756  0.2494
   15CHL1  H22A 1093   1.312   1.613   8.889 -1.2157  0.4711 -0.1406
   15CHL1  H22B 1094   1.391   1.454   8.847 -1.1434 -1.1667 -0.0954
   15CHL1   C23 1095   1.189   1.473   8.767  0.3471 -0.2206 -0.3806
   15CHL1  H23A 1096   1.196   1.367   8.735  0.0051 -0.2698 -0.2985
   15CHL1  H23B 1097   1.084   1.496   8.796  0.9360  2.3703 -0.1815
   15CHL1   C24 1098   1.215   1.569   8.651 -0.1843  0.7226 -0.0979
   15CHL1  H24A 1099   1.175   1.669   8.676  0.0104  0.3816  1.6815
   15CHL1  H24B 1100   1.325   1.569   8.634 -0.1864 -0.3300 -0.1855
   15CHL1   C25 1101   1.165   1.519   8.512  1.1460  0.1789  0.5594
   15CHL1   H25 1102   1.177   1.409   8.502  0.3367  0.2844 -1.7464
   15CHL1   C26 1103   1.008   1.540   8.513  0.0044 -0.6017 -0.1038
   15CHL1  H26A 1104   0.960   1.487   8.598 -2.4070 -0.8809 -1.6082
   15CHL1  H26B 1105   0.976   1.646   8.509  0.1277 -0.5629 -0.0692
   15CHL1  H26C 1106   0.975   1.500   8.415  0.5762 -0.3916 -0.3871
   15CHL1   C27 1107   1.245   1.582   8.396  0.8979 -1.6577 -0.1222
   15CHL1  H27A 1108   1.196   1.567   8.297  0.5364  0.8181 -0.3597
   15CHL1  H27B 1109   1.252   1.692   8.382 -3.6867 -1.2065  0.5277
   15CHL1  H27C 1110   1.352   1.553   8.392  0.6373 -2.7336  0.7528
   16CHL1    C3 1111   1.946   2.151  10.169 -0.2466 -0.1455  0.7148
   16CHL1    H3 1112   1.889   2.246  10.161  0.4023  0.1021 -1.1252
   16CHL1    O3 1113   1.950   2.131  10.313 -0.0171 -0.3004  0.4274
   16CHL1   H3' 1114   2.032   2.083  10.326 -0.8406 -2.6915 -2.6830
   16CHL1    C4 1115   1.866   2.039  10.105  0.1684  0.1899  0.0432
   16CHL1   H4A 1116   1.906   1.939  10.131 -1.0688  0.0831  1.6100
   16CHL1   H4B 1117   1.760   2.036  10.138  0.1591  2.0957  0.2481
   16CHL1    C5 1118   1.853   2.051   9.955 -0.0043 -0.3097  0.2408
   16CHL1    C6 1119   1.733   2.046   9.892 -0.2082  0.1671  0.5858
   16CHL1    H6 1120   1.643   2.033   9.954 -0.5318  1.7640  0.4591
   16CHL1    C7 1121   1.723   2.057   9.741  0.5713  0.0858  0.6495
   16CHL1   H7A 1122   1.647   1.982   9.709  4.1694 -2.3394 -2.5818
   16CHL1   H7B 1123   1.686   2.154   9.702  0.8813 -0.9668 -2.3972
   16CHL1    C8 1124   1.855   2.038   9.673 -0.1513  0.3879  0.1828
   16CHL1    H8 1125   1.883   1.930   9.672 -1.3102  0.0871 -0.9508
   16CHL1   C14 1126   1.848   2.085   9.529  0.2404 -1.2793 -0.8128
   16CHL1   H14 1127   1.842   2.195   9.541  0.4203 -1.3283 -0.2393
   16CHL1   C15 1128   1.735   2.036   9.432 -0.0983  0.6183 -0.0237
   16CHL1  H15A 1129   1.722   1.926   9.443 -1.2006  0.7015 -0.3606
   16CHL1  H15B 1130   1.641   2.096   9.441  0.9260  2.0763  1.1134
   16CHL1   C16 1131   1.791   2.077   9.291  0.1298 -0.3686  0.6562
   16CHL1  H16A 1132   1.810   1.984   9.233  2.7625  0.3810  0.2228
   16CHL1  H16B 1133   1.729   2.152   9.237  1.8181  1.1118  0.7161
   16CHL1   C17 1134   1.932   2.137   9.310 -0.0028 -0.5279  0.2987
   16CHL1   H17 1135   1.914   2.246   9.326  1.6734  0.0203 -1.4054
   16CHL1   C13 1136   1.980   2.080   9.445  0.2899 -0.1441  0.8340
   16CHL1   C18 1137   2.021   1.938   9.431  0.4083  0.0631 -0.0107
   16CHL1  H18A 1138   2.052   1.895   9.528 -1.6412  0.7302  0.9602
   16CHL1  H18B 1139   1.951   1.888   9.360 -0.5128  2.5981 -0.9387
   16CHL1  H18C 1140   2.116   1.945   9.374 -0.3963  0.0326 -1.3856
   16CHL1   C12 1141   2.090   2.165   9.515 -0.2349 -0.2657 -0.1494
   16CHL1  H12A 1142   2.185   2.170   9.457  0.5980  0.4525  1.2563
   16CHL1  H12B 1143   2.058   2.271   9.516 -0.2497 -0.2328 -2.3595
   16CHL1   C11 1144   2.103   2.111   9.657  0.7345  0.4781 -0.2485
   16CHL1  H11A 1145   2.156   2.015   9.647 -3.4266 -2.0276  0.4721
   16CHL1  H11B 1146   2.167   2.189   9.705 -0.3121  1.4189 -0.3500
   16CHL1    C9 1147   1.973   2.110   9.746 -0.5409  0.0550  0.7710
   16CHL1    H9 1148   1.928   2.211   9.756 -2.8186 -1.0118  1.8046
   16CHL1   C10 1149   1.996   2.053   9.887  0.7769  0.2485 -0.2277
   16CHL1   C19 1150   2.062   1.913   9.891  0.2365 -0.1805  0.2097
   16CHL1  H19A 1151   2.029   1.838   9.816 -0.1366  0.2039 -0.0168
   16CHL1  H19B 1152   2.170   1.927   9.872  0.2946  0.0098  0.6724
   16CHL1  H19C 1153   2.051   1.860   9.988  1.7208 -1.9479 -0.5609
   16CHL1    C1 1154   2.078   2.160   9.959  0.7939  0.3255 -0.4195
   16CHL1   H1A 1155   2.174   2.162   9.903  0.1465 -2.0826 -1.6922
   16CHL1   H1B 1156   2.047   2.263   9.934 -0.8658  0.0116  0.3008
   16CHL1    C2 1157   2.090   2.157  10.110  0.3236 -0.3438 -0.0075
   16CHL1   H2A 1158   2.146   2.244  10.150 -0.2375  0.0500 -0.0774
   16CHL1   H2B 1159   2.143   2.065  10.144  1.3114 -0.0656 -0.7480
   16CHL1   C20 1160   2.032   2.137   9.190 -0.2190  0.0642  0.1115
   16CHL1   H20 1161   2.136   2.131   9.228 -0.0043  1.5590 -0.2177
   16CHL1   C21 1162   2.028   2.273   9.119 -0.1561 -0.4673  0.2779
   16CHL1  H21A 1163   2.031   2.360   9.189 -2.3494  1.6739 -2.1706
   16CHL1  H21B 1164   1.935   2.275   9.059  0.5131 -0.5152 -0.7733
   16CHL1  H21C 1165   2.108   2.281   9.042 -0.7444  0.7576 -0.2356
   16CHL1   C22 1166   2.018   2.021   9.086  0.0069  0.7113 -0.4058
   16CHL1  H22A 1167   2.022   1.923   9.139  0.9562 -0.4053 -2.4832
   16CHL1  H22B 1168   1.924   2.032   9.028 -1.1218 -0.0097  1.2425
   16CHL1   C23 1169   2.130   2.017   8.970  0.0924 -0.8081  0.3794
   16CHL1  H23A 1170   2.124   2.117   8.921 -0.7801  0.3236  2.6917
   16CHL1  H23B 1171   2.229   2.013   9.019  0.7541  0.7394 -0.7796
   16CHL1   C24 1172   2.093   1.905   8.875 -0.6827 -0.1139 -0.1930
   16CHL1  H24A 1173   2.103   1.808   8.928  1.8443 -0.0447 -0.5016
   16CHL1  H24B 1174   1.987   1.916   8.842 -0.2731  0.5196 -1.3301
   16CHL1   C25 1175   2.189   1.906   8.755 -0.4074  0.2717 -0.2401
   16CHL1   H25 1176   2.263   1.989   8.761 -1.1373  0.8808  0.3664
   16CHL1   C26 1177   2.259   1.767   8.748 -0.0119 -0.9861  0.1456
   16CHL1  H26A 1178   2.200   1.676   8.770  1.8314 -1.5862  2.8131
   16CHL1  H26B 1179   2.301   1.754   8.646  1.0238 -0.7980  0.5382
   16CHL1  H26C 1180   2.354   1.764   8.805 -0.0911  0.0762  0.3525
   16CHL1   C27 1181   2.112   1.934   8.627 -0.1275  0.4560 -1.0719
   16CHL1  H27A 1182   2.027   1.864   8.630 -1.1765  1.7474  2.8729
   16CHL1  H27B 1183   2.073   2.038   8.635 -0.9874  0.1060 -0.6852
   16CHL1  H27C 1184   2.180   1.926   8.539  2.4841 -0.4714  0.9425
   17CHL1    C3 1185   4.501   5.632  10.377 -0.1424 -0.4291 -0.0482
   17CHL1    H3 1186   4.545   5.534  10.349 -2.5830 -1.2073 -1.3591
   17CHL1    O3 1187   4.501   5.636  10.519 -0.3951  0.4820  0.9513
   17CHL1   H3' 1188   4.488   5.731  10.531  1.1542  1.2137 -2.6142
   17CHL1    C4 1189   4.580   5.756  10.339  0.7703 -0.0359 -0.0955
   17CHL1   H4A 1190   4.534   5.844  10.389  0.1469 -0.0964 -0.5501
   17CHL1   H4B 1191   4.686   5.752  10.372  0.8212 -3.7373 -0.5186
   17CHL1    C5 1192   4.574   5.778  10.182  0.1581  0.6025 -0.1236
   17CHL1    C6 1193   4.677   5.771  10.101 -0.2385  0.1883 -0.6210
   17CHL1    H6 1194   4.778   5.756  10.143 -0.9993 -0.2596  1.1068
   17CHL1    C7 1195   4.681   5.791   9.955 -0.2897 -0.0286  0.5120
   17CHL1   H7A 1196   4.761   5.866   9.935  0.3146 -0.8871 -0.3158
   17CHL1   H7B 1197   4.701   5.694   9.904 -0.7417  0.0895  0.1032
   17CHL1    C8 1198   4.554   5.847   9.891  0.1301 -1.0962 -0.5849
   17CHL1    H8 1199   4.568   5.958   9.888  1.4482 -1.2752 -1.6946
   17CHL1   C14 1200   4.543   5.811   9.739  0.5443 -0.5570 -0.0535
   17CHL1   H14 1201   4.536   5.700   9.734 -0.8247 -0.4441 -0.8986
   17CHL1   C15 1202   4.656   5.834   9.640  0.2328 -0.2163  0.1648
   17CHL1  H15A 1203   4.701   5.936   9.646  0.0377 -0.1463  0.4433
   17CHL1  H15B 1204   4.742   5.767   9.661 -0.3296 -1.2849 -0.8619
   17CHL1   C16 1205   4.585   5.823   9.503 -0.3443  0.4997 -0.3453
   17CHL1  H16A 1206   4.609   5.918   9.450 -0.8744 -0.9758 -3.3597
   17CHL1  H16B 1207   4.624   5.737   9.445  1.5216  2.0064 -1.3814
   17CHL1   C17 1208   4.436   5.818   9.529  0.2472  0.5945  0.3367
   17CHL1   H17 1209   4.427   5.707   9.528  1.6542  0.4736 -0.1965
   17CHL1   C13 1210   4.416   5.873   9.680 -0.1709 -0.0575  0.2619
   17CHL1   C18 1211   4.419   6.024   9.671 -0.2911 -0.2905  0.2341
   17CHL1  H18A 1212   4.514   6.050   9.619  0.8815 -0.6454  2.1233
   17CHL1  H18B 1213   4.325   6.071   9.635 -2.9370 -4.6868  1.1097
   17CHL1  H18C 1214   4.431   6.056   9.777 -0.2551  1.4887 -0.2958
   17CHL1   C12 1215   4.287   5.824   9.746  0.8998  0.1748 -0.2822
   17CHL1  H12A 1216   4.197   5.865   9.696  0.1899  0.2266  1.0194
   17CHL1  H12B 1217   4.291   5.714   9.736 -1.3705  0.1516 -1.3081
   17CHL1   C11 1218   4.294   5.843   9.900  0.1165 -0.2118 -0.2673
   17CHL1  H11A 1219   4.279   5.953   9.907  0.8158 -0.2543  2.6462
   17CHL1  H11B 1220   4.211   5.787   9.948  0.0510 -1.8438 -2.2382
   17CHL1    C9 1221   4.429   5.796   9.967  0.7112  0.2655 -0.4010
   17CHL1    H9 1222   4.429   5.688   9.940  0.3347  0.8101 -2.6983
   17CHL1   C10 1223   4.427   5.794  10.127 -0.5790  0.5004  0.1134
   17CHL1   C19 1224   4.371   5.927  10.177  0.4197  0.1816 -0.3328
   17CHL1  H19A 1225   4.274   5.941  10.125  1.1669 -0.7472 -2.0085
   17CHL1  H19B 1226   4.358   5.933  10.287  4.0029  0.9153  0.1260
   17CHL1  H19C 1227   4.427   6.015  10.139 -0.5887  0.5931 -0.8748
   17CHL1    C1 1228   4.335   5.675  10.178  0.0190 -0.0358  0.6240
   17CHL1   H1A 1229   4.226   5.690  10.159  0.1866 -1.5732 -1.6663
   17CHL1   H1B 1230   4.378   5.596  10.113  0.4895  0.9997 -0.3381
   17CHL1    C2 1231   4.353   5.634  10.323 -0.5333 -0.5656 -0.8974
   17CHL1   H2A 1232   4.306   5.534  10.333  1.2678 -1.3659  0.0075
   17CHL1   H2B 1233   4.294   5.709  10.379  0.6542  0.0818 -0.4937
   17CHL1   C20 1234   4.370   5.882   9.414  0.4970  0.1060 -0.5067
   17CHL1   H20 1235   4.409   5.985   9.399 -2.6321  1.5125  0.5668
   17CHL1   C21 1236   4.221   5.901   9.424 -0.0746  0.1467 -0.2481
   17CHL1  H21A 1237   4.174   5.812   9.471  0.4506  0.0837  0.1774
   17CHL1  H21B 1238   4.173   5.912   9.325 -0.6894 -3.0905 -0.3478
   17CHL1  H21C 1239   4.196   5.994   9.479 -1.2212  0.7866 -1.8166
   17CHL1   C22 1240   4.393   5.803   9.282  0.6773 -0.4316  0.7442
   17CHL1  H22A 1241   4.499   5.770   9.275  1.0532  0.6775  1.0482
   17CHL1  H22B 1242   4.333   5.711   9.269  1.5907 -0.7649 -1.3677
   17CHL1   C23 1243   4.367   5.888   9.151 -0.1351  0.7168 -0.9755
   17CHL1  H23A 1244   4.258   5.910   9.154 -0.3036 -0.0604 -1.2136
   17CHL1  H23B 1245   4.428   5.981   9.143  1.1391  0.0836  1.0861
   17CHL1   C24 1246   4.405   5.808   9.023 -0.3189 -0.2920  0.5026
   17CHL1  H24A 1247   4.513   5.830   9.017 -0.4888  0.3282 -0.4157
   17CHL1  H24B 1248   4.388   5.698   9.033 -1.3622 -0.5090 -2.9569
   17CHL1   C25 1249   4.335   5.860   8.893 -0.0171 -0.5714 -0.2289
   17CHL1   H25 1250   4.336   5.971   8.887  1.5045 -0.5605  0.1326
   17CHL1   C26 1251   4.393   5.804   8.759  0.1840 -1.1822  0.3196
   17CHL1  H26A 1252   4.404   5.694   8.766 -0.7747 -1.2903  0.1399
   17CHL1  H26B 1253   4.328   5.832   8.674 -0.8287  0.0310  1.4882
   17CHL1  H26C 1254   4.481   5.864   8.728 -1.9339  0.8229 -2.0199
   17CHL1   C27 1255   4.183   5.821   8.910  0.4480 -0.2531  0.0142
   17CHL1  H27A 1256   4.128   5.847   8.818  2.7841 -2.7937 -2.2275
   17CHL1  H27B 1257   4.174   5.714   8.939  1.0037  0.5906  3.4545
   17CHL1  H27C 1258   4.149   5.888   8.991 -2.7545 -0.5884 -1.0071
   18CHL1    C3 1259   3.655   4.109  10.132 -0.4094 -0.4946 -0.2513
   18CHL1    H3 1260   3.625   4.004  10.111 -0.5078 -0.4126 -0.5267
   18CHL1    O3 1261   3.655   4.134  10.273  0.3949  0.5597  0.1038
   18CHL1   H3' 1262   3.736   4.092  10.300 -0.6682  0.0503  2.7019
   18CHL1    C4 1263   3.801   4.135  10.084  0.8585  0.0711 -0.0257
   18CHL1   H4A 1264   3.842   4.234  10.115  0.3754  0.0287  0.7725
   18CHL1   H4B 1265   3.872   4.065  10.134 -0.4129 -1.2002  0.0295
   18CHL1    C5 1266   3.808   4.120   9.932  0.1497 -0.3624 -0.4993
   18CHL1    C6 1267   3.897   4.041   9.875  0.1742  0.0905  0.5324
   18CHL1    H6 1268   3.960   3.977   9.939 -0.0127 -1.7963 -1.1059
   18CHL1    C7 1269   3.915   4.021   9.733 -0.4805 -0.1387 -0.1284
   18CHL1   H7A 1270   4.019   3.992   9.704 -0.4492  0.2989 -0.4596
   18CHL1   H7B 1271   3.861   3.926   9.711 -0.4061  0.0678 -1.2357
   18CHL1    C8 1272   3.861   4.133   9.645 -0.5445 -0.3948  0.6089
   18CHL1    H8 1273   3.923   4.225   9.643 -0.4535 -0.4939 -2.3760
   18CHL1   C14 1274   3.862   4.077   9.504 -0.4164 -0.4362  0.4295
   18CHL1   H14 1275   3.794   3.989   9.511 -2.3329  0.8487 -1.2774
   18CHL1   C15 1276   3.996   4.029   9.441 -0.6206  0.1647  0.4864
   18CHL1  H15A 1277   4.071   4.111   9.450 -0.4721  0.2296 -1.1605
   18CHL1  H15B 1278   4.028   3.934   9.488  0.5460 -0.0256 -0.6420
   18CHL1   C16 1279   3.969   4.009   9.289 -0.0260 -0.3654 -0.6849
   18CHL1  H16A 1280   4.055   4.042   9.227 -1.5714  0.3409 -2.4989
   18CHL1  H16B 1281   3.957   3.899   9.275  1.4444 -0.7272  0.6991
   18CHL1   C17 1282   3.827   4.084   9.267 -0.1229 -0.1326  0.0325
   18CHL1   H17 1283   3.754   4.001   9.267 -0.6183  0.2942 -1.2262
   18CHL1   C13 1284   3.805   4.176   9.399  0.0425  0.3961  0.2453
   18CHL1   C18 1285   3.882   4.304   9.386 -0.0527 -0.2579 -0.2219
   18CHL1  H18A 1286   3.899   4.357   9.482 -1.4764  0.2159 -0.2135
   18CHL1  H18B 1287   3.981   4.260   9.361 -0.0226 -2.2946  3.1560
   18CHL1  H18C 1288   3.837   4.371   9.309  0.7467  0.1288 -0.3519
   18CHL1   C12 1289   3.657   4.210   9.445 -0.5568  0.6347 -0.2166
   18CHL1  H12A 1290   3.617   4.296   9.387 -2.4245 -2.5430 -3.8922
   18CHL1  H12B 1291   3.595   4.120   9.427  0.7841 -0.3476 -0.0592
   18CHL1   C11 1292   3.657   4.264   9.588 -0.1121 -0.6070  0.7489
   18CHL1  H11A 1293   3.709   4.362   9.587  0.2763 -0.7540 -3.8256
   18CHL1  H11B 1294   3.553   4.273   9.626 -0.1985 -0.0243  0.3735
   18CHL1    C9 1295   3.718   4.163   9.688 -0.0507  0.1824 -0.2839
   18CHL1    H9 1296   3.664   4.066   9.684  0.2681 -0.0552  0.8858
   18CHL1   C10 1297   3.710   4.202   9.845 -0.1277  0.3345 -0.4554
   18CHL1   C19 1298   3.767   4.343   9.851 -0.0641  0.0675  0.2967
   18CHL1  H19A 1299   3.801   4.373   9.953  2.7728 -0.2620 -0.5148
   18CHL1  H19B 1300   3.861   4.347   9.793  1.9140  1.2326  3.4266
   18CHL1  H19C 1301   3.697   4.418   9.810  2.0631  1.8546 -0.1102
   18CHL1    C1 1302   3.571   4.203   9.908  0.4814  0.3083 -0.4931
   18CHL1   H1A 1303   3.522   4.298   9.877 -2.1489  0.2952  3.2169
   18CHL1   H1B 1304   3.511   4.116   9.874 -0.1183  1.1472 -1.6008
   18CHL1    C2 1305   3.554   4.211  10.058 -0.2835  0.1047  0.2957
   18CHL1   H2A 1306   3.454   4.180  10.094 -0.2948  0.0654  0.2316
   18CHL1   H2B 1307   3.586   4.308  10.102 -1.9140  0.2674  1.1548
   18CHL1   C20 1308   3.805   4.153   9.129 -0.2528  0.3616 -0.5465
   18CHL1   H20 1309   3.861   4.248   9.140  0.6664 -0.2337  0.0709
   18CHL1   C21 1310   3.652   4.178   9.103 -0.7536 -0.4735  0.0924
   18CHL1  H21A 1311   3.654   4.269   9.040  2.3506 -1.1496 -0.8583
   18CHL1  H21B 1312   3.589   4.205   9.191  0.0301  0.0746  0.4839
   18CHL1  H21C 1313   3.605   4.091   9.052 -1.1740 -1.2778  1.8101
   18CHL1   C22 1314   3.892   4.084   9.013 -0.1784  0.2714 -0.0475
   18CHL1  H22A 1315   3.997   4.118   9.023  0.0311 -0.6069  0.8094
   18CHL1  H22B 1316   3.893   3.974   9.030 -2.5550  0.2354  0.0560
   18CHL1   C23 1317   3.850   4.108   8.869  0.0433  0.8139  0.3866
   18CHL1  H23A 1318   3.775   4.030   8.842  1.4512 -0.9828  1.5394
   18CHL1  H23B 1319   3.801   4.208   8.870  0.5301  1.0566 -0.0400
   18CHL1   C24 1320   3.963   4.098   8.762  1.2601 -0.1555 -0.0257
   18CHL1  H24A 1321   4.044   4.168   8.790  1.8529 -0.0713 -1.8659
   18CHL1  H24B 1322   4.009   3.998   8.775 -0.3101 -0.9017 -0.0999
   18CHL1   C25 1323   3.928   4.117   8.612  0.4564  0.8813  0.1625
   18CHL1   H25 1324   3.916   4.224   8.588 -2.6355  0.7599  1.0199
   18CHL1   C26 1325   4.036   4.068   8.516 -0.7300 -0.3050 -0.6610
   18CHL1  H26A 1326   4.138   4.084   8.556 -0.7875  0.3233 -0.7654
   18CHL1  H26B 1327   4.028   3.959   8.492  0.6574 -0.4074 -0.6832
   18CHL1  H26C 1328   4.027   4.124   8.420 -1.6867 -1.5028 -1.3055
   18CHL1   C27 1329   3.795   4.042   8.567 -0.0431 -0.3606  0.9123
   18CHL1  H27A 1330   3.780   4.049   8.457  1.3389 -0.2065  0.7263
   18CHL1  H27B 1331   3.798   3.935   8.594 -0.1048 -0.9103 -1.1798
   18CHL1  H27C 1332   3.721   4.102   8.624 -1.1215  0.4456 -1.2745
   19CHL1    C3 1333   1.354   0.880  10.119  0.2274 -0.3272  0.8002
   19CHL1    H3 1334   1.269   0.949  10.141 -0.8886 -0.9482 -1.4886
   19CHL1    O3 1335   1.427   0.855  10.239  0.2317 -0.0610 -0.0235
   19CHL1   H3' 1336   1.498   0.800  10.205  0.6168  1.1410 -1.2595
   19CHL1    C4 1337   1.302   0.750  10.054 -0.7834  0.1650 -0.1966
   19CHL1   H4A 1338   1.384   0.676  10.044  0.8157  1.6381  1.5767
   19CHL1   H4B 1339   1.239   0.705  10.133  1.5053  0.3937  1.8144
   19CHL1    C5 1340   1.250   0.750   9.911  0.6991  0.0367 -0.5102
   19CHL1    C6 1341   1.132   0.693   9.879  0.3657  0.1470 -0.0916
   19CHL1    H6 1342   1.067   0.641   9.950  1.1688 -1.1273 -0.2672
   19CHL1    C7 1343   1.079   0.690   9.736 -0.3666 -0.2729  0.1073
   19CHL1   H7A 1344   1.057   0.585   9.709 -0.0678 -0.0691 -0.9495
   19CHL1   H7B 1345   0.985   0.747   9.720 -1.4042 -1.7302  0.9011
   19CHL1    C8 1346   1.177   0.738   9.628  0.3284  0.1800  0.4347
   19CHL1    H8 1347   1.238   0.646   9.616  0.4929  0.1119  1.6867
   19CHL1   C14 1348   1.107   0.772   9.495  0.0988  0.8726 -0.1591
   19CHL1   H14 1349   1.047   0.864   9.511 -0.3160  0.9965 -2.2796
   19CHL1   C15 1350   1.022   0.660   9.434  0.5625 -0.1343  0.3531
   19CHL1  H15A 1351   1.075   0.562   9.432  0.4659 -0.1931 -2.4884
   19CHL1  H15B 1352   0.933   0.642   9.497 -0.2360 -0.2220 -0.7738
   19CHL1   C16 1353   0.994   0.714   9.291 -0.3427 -0.2301  1.1926
   19CHL1  H16A 1354   1.004   0.632   9.217 -1.2679 -0.2773  1.1165
   19CHL1  H16B 1355   0.895   0.763   9.279 -0.0526  0.4111  1.3895
   19CHL1   C17 1356   1.109   0.819   9.265 -0.6129 -0.4770 -0.0900
   19CHL1   H17 1357   1.069   0.922   9.278  1.0220 -0.0405  1.8454
   19CHL1   C13 1358   1.201   0.811   9.386 -0.0878 -0.9033  0.5090
   19CHL1   C18 1359   1.308   0.701   9.361  0.1897 -0.2294 -0.3890
   19CHL1  H18A 1360   1.377   0.674   9.444  0.1032 -0.3601 -0.3593
   19CHL1  H18B 1361   1.257   0.610   9.323 -1.1233  1.5782 -3.1403
   19CHL1  H18C 1362   1.372   0.732   9.275 -1.4059 -0.7502 -1.7918
   19CHL1   C12 1363   1.270   0.942   9.431  0.1239 -0.2173 -0.0224
   19CHL1  H12A 1364   1.342   0.985   9.357  1.3546  0.5422  1.5949
   19CHL1  H12B 1365   1.199   1.024   9.454 -0.9809 -0.2654 -3.0602
   19CHL1   C11 1366   1.347   0.922   9.568  0.3510  0.7786  0.2635
   19CHL1  H11A 1367   1.436   0.860   9.543 -0.5834 -0.4801  0.0093
   19CHL1  H11B 1368   1.384   1.023   9.594  0.3938  0.9591 -0.4798
   19CHL1    C9 1369   1.267   0.857   9.682 -0.4353  0.5947  0.4182
   19CHL1    H9 1370   1.191   0.934   9.709 -0.7302 -0.2486  2.0094
   19CHL1   C10 1371   1.345   0.830   9.814 -0.1573  0.6730 -0.1356
   19CHL1   C19 1372   1.459   0.738   9.779 -1.4238 -0.4385 -0.2934
   19CHL1  H19A 1373   1.531   0.776   9.703 -3.1897  1.2455 -1.1818
   19CHL1  H19B 1374   1.521   0.711   9.867 -0.2954  1.1796 -0.5678
   19CHL1  H19C 1375   1.430   0.643   9.728  2.2140 -1.5334 -0.4118
   19CHL1    C1 1376   1.393   0.958   9.889 -0.1409 -0.3281  0.8053
   19CHL1   H1A 1377   1.466   1.004   9.820  0.3210 -0.5745  1.1264
   19CHL1   H1B 1378   1.302   1.021   9.902  0.3293 -0.1341  3.4472
   19CHL1    C2 1379   1.449   0.945  10.026 -0.0992  0.7057  0.0116
   19CHL1   H2A 1380   1.445   1.046  10.073  0.3332  0.5386  0.4103
   19CHL1   H2B 1381   1.551   0.901  10.029 -0.8246 -1.2702 -3.0005
   19CHL1   C20 1382   1.171   0.815   9.120 -0.1494 -0.0708 -0.4746
   19CHL1   H20 1383   1.206   0.711   9.105 -0.6908 -0.2894 -0.2423
   19CHL1   C21 1384   1.285   0.917   9.107 -0.5570 -0.0265 -0.4902
   19CHL1  H21A 1385   1.377   0.890   9.162 -0.5600 -0.7781 -0.8480
   19CHL1  H21B 1386   1.258   1.018   9.146 -1.4639 -0.9883  1.4227
   19CHL1  H21C 1387   1.327   0.921   9.004  2.1647  0.4377  0.5970
   19CHL1   C22 1388   1.065   0.844   9.009 -0.2862  0.0211 -0.0273
   19CHL1  H22A 1389   0.982   0.770   9.015 -1.4787  1.3031 -0.2146
   19CHL1  H22B 1390   1.009   0.936   9.036 -1.9973 -0.3152 -2.2131
   19CHL1   C23 1391   1.126   0.865   8.866  0.5540 -0.5155 -0.4114
   19CHL1  H23A 1392   1.197   0.950   8.858  1.1159 -1.2463 -3.8506
   19CHL1  H23B 1393   1.174   0.774   8.825  0.1298  0.4102 -3.0446
   19CHL1   C24 1394   1.015   0.877   8.754  0.5406  0.2547  0.4301
   19CHL1  H24A 1395   0.980   0.772   8.747 -1.1723  0.9965 -2.9363
   19CHL1  H24B 1396   0.938   0.949   8.787  1.3674  1.3953 -0.0905
   19CHL1   C25 1397   1.075   0.916   8.620 -0.0441  0.1006 -0.0435
   19CHL1   H25 1398   1.169   0.858   8.606  0.7196  0.9855  1.2972
   19CHL1   C26 1399   0.980   0.895   8.507 -0.2091 -0.2165 -0.3454
   19CHL1  H26A 1400   0.878   0.936   8.522 -0.1036  0.1846 -0.7486
   19CHL1  H26B 1401   1.016   0.940   8.412  3.0332  2.3460  2.0119
   19CHL1  H26C 1402   0.962   0.788   8.482  0.4354 -0.2001 -0.8823
   19CHL1   C27 1403   1.122   1.066   8.616  0.2086  0.8315 -0.4958
   19CHL1  H27A 1404   1.222   1.077   8.664 -0.9370  0.7799  1.9672
   19CHL1  H27B 1405   1.123   1.108   8.513 -0.4313 -0.8348 -1.1984
   19CHL1  H27C 1406   1.046   1.115   8.680 -1.6396 -1.2469 -1.0581
   20CHL1    C3 1407   3.031   1.614  10.298 -0.9764  0.7579 -0.2408
   20CHL1    H3 1408   3.015   1.724  10.291  0.7792  0.9567 -1.3813
   20CHL1    O3 1409   3.023   1.601  10.439 -0.0635 -0.3509 -0.3844
   20CHL1   H3' 1410   2.996   1.513  10.466  0.5862  0.2272  2.3000
   20CHL1    C4 1411   2.913   1.537  10.238 -0.6603  0.0507  0.0553
   20CHL1   H4A 1412   2.930   1.431  10.263  1.5017  0.2950 -0.3058
   20CHL1   H4B 1413   2.812   1.566  10.276 -0.6781 -1.0681  0.8814
   20CHL1    C5 1414   2.906   1.556  10.086  0.0939  0.3584  0.2836
   20CHL1    C6 1415   2.797   1.583  10.021 -0.2904 -0.5426  0.2217
   20CHL1    H6 1416   2.701   1.596  10.075 -0.6581 -1.2771 -0.2523
   20CHL1    C7 1417   2.784   1.599   9.872  0.3450 -0.0482 -0.2354
   20CHL1   H7A 1418   2.701   1.540   9.828  3.5246 -4.0336 -1.2070
   20CHL1   H7B 1419   2.763   1.707   9.863 -1.7283 -0.3656  0.5222
   20CHL1    C8 1420   2.903   1.534   9.808  0.0724 -0.4716  0.6507
   20CHL1    H8 1421   2.900   1.424   9.827 -1.4720 -0.7927 -1.2361
   20CHL1   C14 1422   2.916   1.582   9.657 -0.5903  0.3978 -0.4378
   20CHL1   H14 1423   2.942   1.689   9.673  2.6449 -0.0098 -2.3945
   20CHL1   C15 1424   2.785   1.581   9.563  0.1475 -0.2383 -0.5584
   20CHL1  H15A 1425   2.723   1.489   9.568 -0.0921 -0.0534 -0.0644
   20CHL1  H15B 1426   2.720   1.663   9.601 -0.6919 -1.9774  1.8898
   20CHL1   C16 1427   2.844   1.589   9.422 -1.0446  0.6061  0.3776
   20CHL1  H16A 1428   2.815   1.498   9.365  3.2856 -0.7693  0.2346
   20CHL1  H16B 1429   2.813   1.679   9.364  1.3645  1.2125 -0.0048
   20CHL1   C17 1430   3.002   1.575   9.435  0.1944  0.5591 -0.0755
   20CHL1   H17 1431   3.049   1.676   9.440  2.2133 -0.3912  0.9953
   20CHL1   C13 1432   3.035   1.519   9.579  0.9869 -0.4748  0.1783
   20CHL1   C18 1433   3.023   1.369   9.579 -0.4955  0.4028 -0.1172
   20CHL1  H18A 1434   2.926   1.343   9.531  0.1847 -0.3899 -1.0919
   20CHL1  H18B 1435   3.110   1.322   9.527 -2.1713 -0.2011 -2.4673
   20CHL1  H18C 1436   3.029   1.335   9.684  1.2336 -0.4089 -0.4559
   20CHL1   C12 1437   3.167   1.572   9.645 -0.4742  0.8546 -0.6018
   20CHL1  H12A 1438   3.264   1.533   9.606 -0.6604  2.2885 -2.5396
   20CHL1  H12B 1439   3.167   1.682   9.639 -1.1053  0.9170  0.4543
   20CHL1   C11 1440   3.163   1.531   9.798  0.4994  0.0300  0.4958
   20CHL1  H11A 1441   3.182   1.422   9.809  0.8279 -0.1169 -1.2776
   20CHL1  H11B 1442   3.252   1.583   9.841 -0.5648  0.0799  2.6894
   20CHL1    C9 1443   3.037   1.572   9.874  0.3924  0.1369 -0.0344
   20CHL1    H9 1444   3.035   1.683   9.887 -1.5312  0.3254 -1.6430
   20CHL1   C10 1445   3.040   1.524  10.019  0.0665  0.1272 -0.2511
   20CHL1   C19 1446   3.061   1.373  10.039 -0.1366 -0.2671  0.0715
   20CHL1  H19A 1447   2.981   1.312   9.993  0.6959 -1.1547 -0.2175
   20CHL1  H19B 1448   3.148   1.340   9.978 -2.3091  0.2598 -3.4300
   20CHL1  H19C 1449   3.076   1.335  10.143 -1.8555 -0.4686  0.2635
   20CHL1    C1 1450   3.159   1.594  10.088 -0.4120  0.0681 -0.3330
   20CHL1   H1A 1451   3.256   1.548  10.059  0.4558  1.2916  0.5993
   20CHL1   H1B 1452   3.164   1.697  10.047  1.8266 -0.0228 -0.3549
   20CHL1    C2 1453   3.166   1.586  10.239 -0.1542 -0.6169 -0.2163
   20CHL1   H2A 1454   3.224   1.668  10.287  2.1130 -1.8138 -0.8484
   20CHL1   H2B 1455   3.197   1.484  10.270 -2.0164 -1.4098 -0.9163
   20CHL1   C20 1456   3.057   1.515   9.315 -0.1238 -0.0479  0.5741
   20CHL1   H20 1457   3.015   1.413   9.309  1.8412 -0.8384 -0.2514
   20CHL1   C21 1458   3.210   1.506   9.318  0.2038  0.2412 -0.4115
   20CHL1  H21A 1459   3.249   1.463   9.413 -0.4799  1.4666  0.4457
   20CHL1  H21B 1460   3.260   1.600   9.287 -0.5793  0.7359 -0.1985
   20CHL1  H21C 1461   3.236   1.429   9.243 -4.1546  0.2713 -2.1312
   20CHL1   C22 1462   3.023   1.589   9.184  0.3396 -0.0747  0.1763
   20CHL1  H22A 1463   2.919   1.627   9.187  0.7327  0.9048  2.0236
   20CHL1  H22B 1464   3.083   1.682   9.173 -0.7065  0.3000 -2.8349
   20CHL1   C23 1465   3.040   1.518   9.048  0.0119  0.7781 -0.0376
   20CHL1  H23A 1466   3.150   1.510   9.034  0.5892  5.2593  0.8743
   20CHL1  H23B 1467   2.990   1.420   9.062  1.9158 -0.4788 -1.7485
   20CHL1   C24 1468   2.978   1.595   8.934  0.3272 -0.4892  0.2987
   20CHL1  H24A 1469   2.873   1.603   8.971  0.3469  0.8347  0.1017
   20CHL1  H24B 1470   3.010   1.701   8.922  0.5610 -0.6236 -0.2917
   20CHL1   C25 1471   2.980   1.523   8.799 -0.5060  0.8930  0.2034
   20CHL1   H25 1472   2.926   1.589   8.728 -2.9501 -0.2801  0.9524
   20CHL1   C26 1473   3.121   1.498   8.744 -1.0373 -0.0804 -0.5349
   20CHL1  H26A 1474   3.194   1.581   8.745 -0.7437 -0.3379  0.3533
   20CHL1  H26B 1475   3.165   1.411   8.798  1.1707  1.8024  0.7577
   20CHL1  H26C 1476   3.120   1.464   8.638  1.9469 -2.2919  0.0773
   20CHL1   C27 1477   2.901   1.390   8.797  0.0743 -0.3173  0.5951
   20CHL1  H27A 1478   2.905   1.332   8.703  0.9872 -0.7229  0.8794
   20CHL1  H27B 1479   2.932   1.324   8.881  1.8228 -1.6155 -1.0338
   20CHL1  H27C 1480   2.793   1.416   8.801 -0.0750 -1.0958  2.5353
   21CHL1    C3 1481   2.842   4.676  10.252  0.6844  0.1554 -0.2303
   21CHL1    H3 1482   2.874   4.781  10.265  1.0467  0.0596 -0.3323
   21CHL1    O3 1483   2.824   4.624  10.383  0.4583 -0.3825 -0.3095
   21CHL1   H3' 1484   2.908   4.648  10.423  1.2280 -1.0046 -1.5014
   21CHL1    C4 1485   2.707   4.668  10.181  0.2009  0.5051 -0.8163
   21CHL1   H4A 1486   2.672   4.563  10.175  2.4697 -0.4620  1.7113
   21CHL1   H4B 1487   2.632   4.723  10.242  1.6578 -0.6057  2.0820
   21CHL1    C5 1488   2.718   4.722  10.038  0.0640 -0.4331  0.8561
   21CHL1    C6 1489   2.637   4.816   9.996  0.0115 -0.3229  0.6302
   21CHL1    H6 1490   2.564   4.860  10.065  1.8484  1.9785  1.1679
   21CHL1    C7 1491   2.638   4.848   9.849 -0.5839  0.1046  0.3895
   21CHL1   H7A 1492   2.531   4.861   9.825  0.3044  1.6963 -3.1066
   21CHL1   H7B 1493   2.705   4.937   9.853 -2.2578  1.3512  1.2954
   21CHL1    C8 1494   2.710   4.755   9.753 -0.6123 -0.4829  0.2131
   21CHL1    H8 1495   2.654   4.659   9.743 -0.7936 -0.3696  0.1392
   21CHL1   C14 1496   2.741   4.817   9.624  0.4706 -0.5930  0.6535
   21CHL1   H14 1497   2.801   4.908   9.645 -0.1996  0.7261 -2.9272
   21CHL1   C15 1498   2.624   4.884   9.544  0.4992 -0.3849 -0.0754
   21CHL1  H15A 1499   2.535   4.819   9.531 -0.3338  0.3987  1.4625
   21CHL1  H15B 1500   2.593   4.985   9.580 -1.7614  0.2140 -3.4962
   21CHL1   C16 1501   2.691   4.924   9.405  0.4996 -0.7489 -0.3908
   21CHL1  H16A 1502   2.616   4.901   9.327 -1.4545  0.9528  0.9269
   21CHL1  H16B 1503   2.722   5.031   9.411  0.5167 -0.7923  0.4285
   21CHL1   C17 1504   2.826   4.846   9.402 -0.5063  0.2122 -0.5234
   21CHL1   H17 1505   2.910   4.915   9.423  0.8782 -1.3696 -0.7815
   21CHL1   C13 1506   2.818   4.736   9.517 -0.8228  0.0660  0.0716
   21CHL1   C18 1507   2.733   4.615   9.483 -0.3952 -0.1809  0.0600
   21CHL1  H18A 1508   2.785   4.552   9.408  1.6417 -0.1270  1.3936
   21CHL1  H18B 1509   2.708   4.554   9.572 -2.7234 -0.7346 -0.9311
   21CHL1  H18C 1510   2.637   4.646   9.436 -1.3754 -0.3565  1.9220
   21CHL1   C12 1511   2.949   4.705   9.577 -0.3682  0.1365  0.0534
   21CHL1  H12A 1512   3.008   4.640   9.508 -1.5058 -0.8624  0.0063
   21CHL1  H12B 1513   3.015   4.795   9.583 -0.8156  0.3513  2.0545
   21CHL1   C11 1514   2.944   4.647   9.722  0.1232 -0.2634 -0.1588
   21CHL1  H11A 1515   2.921   4.539   9.711  1.7316 -0.9597  2.7213
   21CHL1  H11B 1516   3.048   4.649   9.762 -0.1652  2.2328  0.5276
   21CHL1    C9 1517   2.846   4.718   9.815 -0.0299 -0.0034 -0.4808
   21CHL1    H9 1518   2.906   4.807   9.846 -1.4199  0.0811  2.0891
   21CHL1   C10 1519   2.824   4.648   9.952  0.3327  0.2370  0.3747
   21CHL1   C19 1520   2.776   4.502   9.928 -0.5278 -0.0600  0.1902
   21CHL1  H19A 1521   2.673   4.509   9.889 -0.1902  1.7247 -0.4590
   21CHL1  H19B 1522   2.838   4.450   9.852 -0.9945  0.5881 -0.6429
   21CHL1  H19C 1523   2.787   4.441  10.021  1.1426  0.3937  0.3198
   21CHL1    C1 1524   2.964   4.655  10.038  0.1151  0.3305 -0.3137
   21CHL1   H1A 1525   3.050   4.610   9.985  1.0391  0.8436  0.7199
   21CHL1   H1B 1526   2.987   4.764  10.032  1.2236  0.0738 -0.7766
   21CHL1    C2 1527   2.955   4.602  10.179 -0.4423 -0.5208  0.2199
   21CHL1   H2A 1528   3.057   4.605  10.222 -0.3695 -0.1271  0.0290
   21CHL1   H2B 1529   2.924   4.496  10.179  0.4739 -0.8715 -3.1435
   21CHL1   C20 1530   2.856   4.794   9.264 -0.0213  0.0217  0.6716
   21CHL1   H20 1531   2.775   4.722   9.239 -1.6274  1.8708  0.4991
   21CHL1   C21 1532   2.991   4.719   9.253 -0.2962 -0.8676 -0.7803
   21CHL1  H21A 1533   2.979   4.623   9.308  0.2597  0.0066  0.8962
   21CHL1  H21B 1534   3.066   4.783   9.303 -0.6764 -0.8761 -0.1892
   21CHL1  H21C 1535   3.027   4.687   9.153  2.0420 -1.1465  0.1089
   21CHL1   C22 1536   2.834   4.895   9.148  0.3468  0.8825  0.3304
   21CHL1  H22A 1537   2.741   4.954   9.168 -1.0978 -1.8093  1.7698
   21CHL1  H22B 1538   2.924   4.960   9.150 -0.9194  2.6983  0.0599
   21CHL1   C23 1539   2.824   4.830   9.011  0.0633 -0.1054 -0.3696
   21CHL1  H23A 1540   2.906   4.757   8.996  1.8274  1.5653  0.9482
   21CHL1  H23B 1541   2.732   4.768   9.018  0.2806 -0.7691 -2.8097
   21CHL1   C24 1542   2.815   4.931   8.905 -0.6352 -0.4879 -0.0106
   21CHL1  H24A 1543   2.724   4.995   8.902 -0.0429  0.3765  0.4204
   21CHL1  H24B 1544   2.894   5.007   8.920  2.4260 -3.7216  1.0104
   21CHL1   C25 1545   2.823   4.873   8.764  0.9591 -0.5084  0.6096
   21CHL1   H25 1546   2.916   4.812   8.767  1.1539 -0.1948  0.9781
   21CHL1   C26 1547   2.700   4.791   8.733 -0.4710  0.2180 -1.2025
   21CHL1  H26A 1548   2.613   4.859   8.726 -0.2456  0.5567 -0.7039
   21CHL1  H26B 1549   2.710   4.742   8.634  0.5546 -0.2069 -0.9044
   21CHL1  H26C 1550   2.684   4.717   8.814 -2.3311  3.4791  1.5361
   21CHL1   C27 1551   2.833   4.983   8.653 -0.2751 -0.8634  0.2577
   21CHL1  H27A 1552   2.769   5.070   8.680  1.4091  1.5007 -2.9996
   21CHL1  H27B 1553   2.941   5.008   8.643 -0.4232  0.9587  2.6263
   21CHL1  H27C 1554   2.807   4.949   8.551 -1.5325  1.3253 -0.1877
   22CHL1    C3 1555   2.363   5.871   9.951  0.0132  0.3257  0.8091
   22CHL1    H3 1556   2.265   5.819   9.952  1.1088 -1.7822  1.3715
   22CHL1    O3 1557   2.415   5.849  10.083  0.0145 -0.5990 -0.1869
   22CHL1   H3' 1558   2.483   5.916  10.090 -1.5277  1.2001 -1.8889
   22CHL1    C4 1559   2.469   5.811   9.860  0.3123 -0.1442 -0.2742
   22CHL1   H4A 1560   2.570   5.853   9.880  0.6016 -1.3677  0.8229
   22CHL1   H4B 1561   2.482   5.703   9.883  1.4042 -0.3154 -1.6294
   22CHL1    C5 1562   2.436   5.842   9.715  0.5769  0.3867  1.5015
   22CHL1    C6 1563   2.401   5.750   9.624 -0.1501 -0.0746  0.2142
   22CHL1    H6 1564   2.411   5.645   9.655  1.8344 -0.5475 -1.8451
   22CHL1    C7 1565   2.376   5.762   9.484 -0.2434  0.5632 -0.0387
   22CHL1   H7A 1566   2.449   5.694   9.435  0.8803  0.7523  1.3528
   22CHL1   H7B 1567   2.268   5.744   9.462 -0.2695 -0.7416  1.0751
   22CHL1    C8 1568   2.418   5.907   9.436  0.2297  0.1253 -0.2188
   22CHL1    H8 1569   2.527   5.919   9.419  0.6789 -3.5684 -0.3401
   22CHL1   C14 1570   2.347   5.935   9.305 -0.1863  0.6814 -0.0288
   22CHL1   H14 1571   2.239   5.933   9.332 -0.0254 -0.3410  0.5312
   22CHL1   C15 1572   2.347   5.828   9.196 -0.1571 -0.7613  0.0436
   22CHL1  H15A 1573   2.452   5.793   9.186 -0.2759 -0.7676 -1.2326
   22CHL1  H15B 1574   2.278   5.744   9.218  0.7136 -1.7787 -1.0494
   22CHL1   C16 1575   2.314   5.905   9.067  0.1482  0.2769  0.5089
   22CHL1  H16A 1576   2.409   5.895   9.010  0.8719  1.3769  1.4926
   22CHL1  H16B 1577   2.234   5.847   9.018  1.5649 -0.5502 -0.8717
   22CHL1   C17 1578   2.294   6.053   9.105 -0.8162  0.7079 -1.1052
   22CHL1   H17 1579   2.187   6.060   9.134 -0.4161  2.1584  0.1163
   22CHL1   C13 1580   2.378   6.074   9.240  0.3211  0.3106  0.8745
   22CHL1   C18 1581   2.524   6.080   9.202 -0.0295 -0.2245  0.3788
   22CHL1  H18A 1582   2.579   6.059   9.296  1.1879  1.4184  0.0668
   22CHL1  H18B 1583   2.549   6.013   9.117 -0.6983 -1.3068  1.0124
   22CHL1  H18C 1584   2.553   6.185   9.180  0.4420 -0.2176  1.0138
   22CHL1   C12 1585   2.329   6.185   9.340 -0.2618  0.2316 -0.0847
   22CHL1  H12A 1586   2.337   6.289   9.300  0.6422  0.2420  0.1057
   22CHL1  H12B 1587   2.220   6.170   9.349 -0.0431 -2.0701 -1.1654
   22CHL1   C11 1588   2.400   6.168   9.475 -0.2508  0.0284 -0.5206
   22CHL1  H11A 1589   2.506   6.197   9.460  0.1067 -0.6722  0.6010
   22CHL1  H11B 1590   2.368   6.248   9.545  0.0293 -1.6717  1.6080
   22CHL1    C9 1591   2.376   6.020   9.536  0.1301 -0.2722  1.0387
   22CHL1    H9 1592   2.265   6.011   9.544  0.1394 -2.1289 -0.5301
   22CHL1   C10 1593   2.425   5.996   9.678 -0.6525  0.6495  0.1506
   22CHL1   C19 1594   2.572   6.060   9.697 -0.6186  0.2894  0.5318
   22CHL1  H19A 1595   2.650   6.005   9.640  0.0369  0.7618  0.9686
   22CHL1  H19B 1596   2.573   6.169   9.674 -0.4716 -0.1880 -1.9378
   22CHL1  H19C 1597   2.600   6.070   9.804  0.5812  0.7655  0.1784
   22CHL1    C1 1598   2.312   6.055   9.773 -0.5626  0.4897 -0.2606
   22CHL1   H1A 1599   2.311   6.165   9.755 -1.7451  0.6382  0.6804
   22CHL1   H1B 1600   2.217   6.004   9.749 -0.2611  0.3644 -1.1829
   22CHL1    C2 1601   2.342   6.020   9.919 -0.0034  0.8283  0.0720
   22CHL1   H2A 1602   2.259   6.054   9.985  2.8868  1.5146  3.5070
   22CHL1   H2B 1603   2.427   6.073   9.967  0.8635  0.4263 -0.9950
   22CHL1   C20 1604   2.331   6.141   8.982 -0.0081 -0.2741 -0.0417
   22CHL1   H20 1605   2.433   6.112   8.948 -0.6325 -0.0130 -2.1979
   22CHL1   C21 1606   2.344   6.288   9.020 -0.5496  0.1962  0.1984
   22CHL1  H21A 1607   2.244   6.319   9.058 -1.1099 -1.2069 -0.1105
   22CHL1  H21B 1608   2.367   6.348   8.929  2.3467 -0.3763  0.5201
   22CHL1  H21C 1609   2.412   6.307   9.106 -1.1986 -3.7571  1.6844
   22CHL1   C22 1610   2.232   6.122   8.868  0.0306 -0.6626 -0.4011
   22CHL1  H22A 1611   2.262   6.169   8.772  1.1179  0.0045  0.2591
   22CHL1  H22B 1612   2.226   6.012   8.853 -0.3903 -0.7500  0.3680
   22CHL1   C23 1613   2.076   6.163   8.884  0.3205 -0.2618 -0.3055
   22CHL1  H23A 1614   2.043   6.104   8.973  0.4767 -1.7507 -1.2311
   22CHL1  H23B 1615   2.085   6.271   8.911  1.0041 -1.1346  3.3402
   22CHL1   C24 1616   1.991   6.139   8.761 -0.6657 -0.2494  0.0840
   22CHL1  H24A 1617   2.034   6.193   8.674  2.2547  0.7563  2.0863
   22CHL1  H24B 1618   2.010   6.033   8.732  0.7494  0.2546 -0.8818
   22CHL1   C25 1619   1.838   6.171   8.773 -0.3349 -0.6848 -0.0039
   22CHL1   H25 1620   1.790   6.151   8.674 -0.5754 -2.1680  0.4022
   22CHL1   C26 1621   1.763   6.076   8.868  0.1792  0.5307 -0.0129
   22CHL1  H26A 1622   1.803   6.093   8.970  2.8846 -1.6229 -0.6692
   22CHL1  H26B 1623   1.656   6.106   8.857  0.0138 -0.5005 -1.3688
   22CHL1  H26C 1624   1.765   5.971   8.832  0.3502 -0.2462  2.1326
   22CHL1   C27 1625   1.818   6.309   8.805 -0.1340 -0.0852 -0.0968
   22CHL1  H27A 1626   1.868   6.345   8.898 -0.5929  0.7739 -0.1706
   22CHL1  H27B 1627   1.857   6.369   8.720  0.7210 -1.0299 -0.3657
   22CHL1  H27C 1628   1.708   6.321   8.819  0.0422  1.1421  0.3736
   23CHL1    C3 1629   5.488   0.959  10.150  0.8690 -0.1594 -0.2978
   23CHL1    H3 1630   5.571   0.889  10.173  2.0496  0.9451 -1.1486
   23CHL1    O3 1631   5.446   1.024  10.267  0.3926 -0.0602 -0.3605
   23CHL1   H3' 1632   5.402   0.956  10.319 -1.6703  1.1750 -0.4536
   23CHL1    C4 1633   5.548   1.067  10.055 -0.3990  0.0509  0.3168
   23CHL1   H4A 1634   5.471   1.142  10.028  0.0713 -0.2212 -1.8929
   23CHL1   H4B 1635   5.629   1.098  10.124 -0.2741 -0.5023  0.4241
   23CHL1    C5 1636   5.592   0.991   9.934 -0.0679  0.3351  0.4772
   23CHL1    C6 1637   5.723   1.000   9.906 -0.3347 -0.2769  0.2395
   23CHL1    H6 1638   5.787   1.058   9.974 -0.4830  0.7104 -0.4440
   23CHL1    C7 1639   5.791   0.943   9.783  0.3700  0.4916 -0.8310
   23CHL1   H7A 1640   5.855   1.022   9.739  0.6719  0.5663 -0.2548
   23CHL1   H7B 1641   5.855   0.856   9.809 -1.4586 -1.1145 -1.5673
   23CHL1    C8 1642   5.681   0.906   9.674 -0.7669 -0.0272  0.4453
   23CHL1    H8 1643   5.658   1.007   9.633  0.4937  0.9756  2.1647
   23CHL1   C14 1644   5.742   0.822   9.562 -0.6152  0.1531  0.0653
   23CHL1   H14 1645   5.785   0.728   9.602  0.5069  0.7372  0.2580
   23CHL1   C15 1646   5.869   0.873   9.479 -0.8474 -0.3967  0.0724
   23CHL1  H15A 1647   5.832   0.972   9.445 -3.5813 -0.2760  3.1635
   23CHL1  H15B 1648   5.964   0.886   9.536 -1.7246  1.5767  1.1417
   23CHL1   C16 1649   5.879   0.795   9.347 -0.1200  0.5998 -0.4941
   23CHL1  H16A 1650   5.888   0.862   9.258 -2.6088  1.4374 -0.1616
   23CHL1  H16B 1651   5.969   0.731   9.357 -0.3937  0.5594  1.9812
   23CHL1   C17 1652   5.745   0.705   9.353 -0.0216 -0.3226 -0.4988
   23CHL1   H17 1653   5.780   0.608   9.396  1.1502 -0.2825 -1.3478
   23CHL1   C13 1654   5.648   0.775   9.454  0.2427  0.7100 -0.7909
   23CHL1   C18 1655   5.589   0.893   9.374 -0.7044 -0.2516 -0.5189
   23CHL1  H18A 1656   5.542   0.965   9.445  0.0816 -0.4387  0.1942
   23CHL1  H18B 1657   5.668   0.954   9.326 -0.0721  0.1295  0.9861
   23CHL1  H18C 1658   5.515   0.849   9.303 -1.8517  0.8998 -0.0752
   23CHL1   C12 1659   5.533   0.696   9.520 -0.1488 -0.0428  0.0389
   23CHL1  H12A 1660   5.468   0.668   9.435 -0.2633  0.7867 -0.1482
   23CHL1  H12B 1661   5.578   0.606   9.569 -2.1809 -1.2247 -0.2170
   23CHL1   C11 1662   5.461   0.779   9.628 -1.0825 -0.7992  0.1722
   23CHL1  H11A 1663   5.397   0.855   9.578  1.2574  3.2662  3.0017
   23CHL1  H11B 1664   5.387   0.717   9.683 -0.8080 -1.1165  0.1842
   23CHL1    C9 1665   5.564   0.834   9.733  0.2679 -0.7893 -0.2924
   23CHL1    H9 1666   5.610   0.756   9.798 -2.1599 -1.4723  0.6335
   23CHL1   C10 1667   5.487   0.912   9.849 -0.0126 -0.6321  0.2135
   23CHL1   C19 1668   5.384   1.011   9.796 -0.0042 -0.7620 -0.2592
   23CHL1  H19A 1669   5.299   0.954   9.754 -1.1519 -1.0604  2.3879
   23CHL1  H19B 1670   5.349   1.088   9.868 -0.4131 -1.1711 -0.0170
   23CHL1  H19C 1671   5.436   1.068   9.715  0.4189 -0.8770 -0.0680
   23CHL1    C1 1672   5.418   0.818   9.948  0.8955 -0.0211 -0.4660
   23CHL1   H1A 1673   5.330   0.778   9.894 -1.0292  0.1209  2.4513
   23CHL1   H1B 1674   5.489   0.737   9.975  1.4090  0.7619  0.5531
   23CHL1    C2 1675   5.371   0.883  10.087  0.1772  0.2778  0.4233
   23CHL1   H2A 1676   5.329   0.798  10.146 -1.1228  0.9777  0.5151
   23CHL1   H2B 1677   5.292   0.955  10.058 -1.9060 -1.9742  0.2596
   23CHL1   C20 1678   5.678   0.657   9.219 -0.0480 -0.6442  0.1627
   23CHL1   H20 1679   5.569   0.644   9.237  0.1208 -1.6054  0.4963
   23CHL1   C21 1680   5.736   0.520   9.185 -0.0996  0.6640 -0.1119
   23CHL1  H21A 1681   5.692   0.453   9.262 -0.3758 -0.1873 -0.9995
   23CHL1  H21B 1682   5.846   0.523   9.172 -0.2731  0.0013 -1.8795
   23CHL1  H21C 1683   5.705   0.481   9.086  1.7611 -2.2230  0.3680
   23CHL1   C22 1684   5.689   0.758   9.094  0.6941 -0.5057 -0.2055
   23CHL1  H22A 1685   5.650   0.858   9.124  0.1571 -0.4884 -0.9554
   23CHL1  H22B 1686   5.798   0.772   9.078  0.7855 -0.2950  0.5418
   23CHL1   C23 1687   5.616   0.718   8.965 -0.2028  0.5670  1.3223
   23CHL1  H23A 1688   5.649   0.614   8.942 -0.4372  0.2910  2.2318
   23CHL1  H23B 1689   5.508   0.713   8.986 -0.6190  1.2354 -0.5636
   23CHL1   C24 1690   5.638   0.827   8.853 -0.1058 -0.1586  0.1328
   23CHL1  H24A 1691   5.544   0.877   8.822  0.0898  1.0259  1.3837
   23CHL1  H24B 1692   5.703   0.902   8.903  0.3797 -0.7153  0.3395
   23CHL1   C25 1693   5.702   0.767   8.729 -0.1507 -0.5217  0.6803
   23CHL1   H25 1694   5.624   0.695   8.695 -1.1977  1.8462 -2.2038
   23CHL1   C26 1695   5.719   0.881   8.619  0.5014 -0.1407  0.2629
   23CHL1  H26A 1696   5.806   0.949   8.623 -0.2032  0.7409  0.7235
   23CHL1  H26B 1697   5.734   0.819   8.528  0.1142 -2.8028  1.9605
   23CHL1  H26C 1698   5.624   0.935   8.601 -1.5300 -2.6511  2.9142
   23CHL1   C27 1699   5.836   0.690   8.743  0.1795 -0.0137 -0.6711
   23CHL1  H27A 1700   5.907   0.768   8.778 -1.2458  1.2812 -0.5599
   23CHL1  H27B 1701   5.830   0.607   8.816  0.2079 -1.4141 -2.2319
   23CHL1  H27C 1702   5.872   0.643   8.649  2.4391 -0.2032  0.2552
   24CHL1    C3 1703   0.334   1.255  10.221  0.4594  0.0858 -0.2549
   24CHL1    H3 1704   0.224   1.244  10.233  0.9509 -3.3463  1.6943
   24CHL1    O3 1705   0.393   1.276  10.347 -0.2994  0.0455  0.0775
   24CHL1   H3' 1706   0.483   1.244  10.349 -0.2631  0.1244 -0.3668
   24CHL1    C4 1707   0.367   1.110  10.175 -0.0015 -0.4949  0.5146
   24CHL1   H4A 1708   0.477   1.109  10.159 -0.0330 -2.1555  0.3009
   24CHL1   H4B 1709   0.350   1.047  10.265  0.2274 -1.1883  0.0654
   24CHL1    C5 1710   0.307   1.066  10.043 -0.0108  0.2063 -0.4430
   24CHL1    C6 1711   0.230   0.956  10.028 -0.5291 -0.1764 -0.2119
   24CHL1    H6 1712   0.217   0.891  10.116  1.0005 -0.0186  0.1297
   24CHL1    C7 1713   0.166   0.910   9.899  0.2443 -0.0275  0.9323
   24CHL1   H7A 1714   0.163   0.800   9.883 -0.4990  0.1050  0.1071
   24CHL1   H7B 1715   0.059   0.938   9.887 -0.5119 -2.4160  1.8659
   24CHL1    C8 1716   0.233   0.987   9.779 -0.0306 -0.1902 -0.2876
   24CHL1    H8 1717   0.333   0.951   9.745  0.0424  0.6168 -0.9248
   24CHL1   C14 1718   0.145   0.962   9.651 -0.2572  0.4701  0.1849
   24CHL1   H14 1719   0.044   0.988   9.690 -0.2130 -2.7927  2.6268
   24CHL1   C15 1720   0.128   0.812   9.596 -0.1137 -0.3356 -0.5315
   24CHL1  H15A 1721   0.236   0.784   9.590 -0.2116 -0.9482  0.4586
   24CHL1  H15B 1722   0.077   0.744   9.667  0.3661 -0.8857 -0.7085
   24CHL1   C16 1723   0.073   0.831   9.459  0.4460  0.4355 -0.0911
   24CHL1  H16A 1724   0.141   0.782   9.386  0.0646 -0.3227  0.0654
   24CHL1  H16B 1725  -0.034   0.802   9.448 -0.0572  2.2937 -0.2548
   24CHL1   C17 1726   0.068   0.986   9.425 -0.1550 -0.2351  0.3683
   24CHL1   H17 1727  -0.028   1.022   9.467 -1.3676 -2.0911 -0.7465
   24CHL1   C13 1728   0.173   1.048   9.521  0.0533  1.2705 -0.2022
   24CHL1   C18 1729   0.315   1.018   9.460  1.2315  0.0994 -0.2668
   24CHL1  H18A 1730   0.397   1.023   9.534 -0.3564  2.6668  1.3951
   24CHL1  H18B 1731   0.319   0.915   9.419 -0.7226  0.6561 -1.9232
   24CHL1  H18C 1732   0.337   1.090   9.379  0.6469  0.3751 -0.1834
   24CHL1   C12 1733   0.179   1.201   9.552  0.1864 -0.3551  0.5256
   24CHL1  H12A 1734   0.203   1.261   9.462  0.5597  1.3485  1.7393
   24CHL1  H12B 1735   0.078   1.233   9.584  0.5641  2.3533 -0.8111
   24CHL1   C11 1736   0.274   1.221   9.671  0.8773  0.5035 -0.3718
   24CHL1  H11A 1737   0.378   1.203   9.637  0.8484  0.3489 -0.3759
   24CHL1  H11B 1738   0.276   1.326   9.708  2.3724  0.9841 -1.7520
   24CHL1    C9 1739   0.242   1.131   9.801 -0.2868  0.0717 -0.6330
   24CHL1    H9 1740   0.145   1.171   9.837  0.0570  0.3255  0.0252
   24CHL1   C10 1741   0.337   1.164   9.923  0.5404  0.0013 -0.0712
   24CHL1   C19 1742   0.482   1.133   9.886  0.4968  0.4192 -0.0129
   24CHL1  H19A 1743   0.520   1.177   9.791 -0.1543 -0.1046 -0.5333
   24CHL1  H19B 1744   0.542   1.161   9.975 -1.2294 -1.1029  1.6757
   24CHL1  H19C 1745   0.483   1.022   9.877 -1.2924  0.3362  0.5858
   24CHL1    C1 1746   0.318   1.314   9.972  0.2926 -0.4436  0.1266
   24CHL1   H1A 1747   0.374   1.377   9.900  0.3133  1.3823  1.7144
   24CHL1   H1B 1748   0.207   1.323   9.966  0.1706 -2.0096 -0.0692
   24CHL1    C2 1749   0.378   1.346  10.107 -0.4505  0.2385 -0.2703
   24CHL1   H2A 1750   0.362   1.454  10.129  0.7063  0.4761 -0.5908
   24CHL1   H2B 1751   0.487   1.331  10.092 -0.4743 -1.2599  0.9782
   24CHL1   C20 1752   0.083   1.013   9.270 -0.8702 -0.1469  0.2831
   24CHL1   H20 1753   0.186   0.997   9.233 -0.8735  2.0696 -0.7607
   24CHL1   C21 1754   0.057   1.160   9.253  0.0206  0.6178 -1.0228
   24CHL1  H21A 1755   0.045   1.175   9.143  3.4397  0.2413 -1.4994
   24CHL1  H21B 1756   0.144   1.219   9.288 -0.8337  1.3121 -0.0408
   24CHL1  H21C 1757  -0.032   1.207   9.301  2.8361  2.2868  2.8149
   24CHL1   C22 1758  -0.014   0.916   9.198  0.1601  0.0542  0.3253
   24CHL1  H22A 1759   0.011   0.809   9.215  2.3041  0.1957 -1.7474
   24CHL1  H22B 1760  -0.116   0.929   9.241  0.3365 -0.3039  0.8515
   24CHL1   C23 1761  -0.029   0.936   9.047  0.0706 -0.0106 -1.0639
   24CHL1  H23A 1762   0.056   0.995   9.007 -1.2688  1.6471 -1.5466
   24CHL1  H23B 1763  -0.028   0.835   9.002 -0.4426 -0.9506  1.0140
   24CHL1   C24 1764  -0.160   1.004   9.015  0.1022 -0.0605  0.2507
   24CHL1  H24A 1765  -0.242   0.946   9.062  1.5979 -0.1821  2.8031
   24CHL1  H24B 1766  -0.166   1.107   9.057 -1.1435  0.3864 -0.9933
   24CHL1   C25 1767  -0.197   0.993   8.864 -0.3394  0.6970 -0.0568
   24CHL1   H25 1768  -0.173   0.886   8.846  0.3763  0.4328  2.3523
   24CHL1   C26 1769  -0.344   1.023   8.848  0.6799 -0.2626  0.0821
   24CHL1  H26A 1770  -0.414   0.946   8.887  0.3923  1.5444  3.2594
   24CHL1  H26B 1771  -0.378   1.119   8.892  0.8116  0.9828 -2.4219
   24CHL1  H26C 1772  -0.361   1.022   8.738 -1.4467  1.4971  0.3637
   24CHL1   C27 1773  -0.099   1.070   8.772  0.6135  0.3211 -0.0090
   24CHL1  H27A 1774   0.004   1.070   8.813 -0.1196 -0.8005  1.9052
   24CHL1  H27B 1775  -0.093   1.021   8.673  0.4728 -0.8701  0.5610
   24CHL1  H27C 1776  -0.128   1.177   8.772 -2.2058 -0.3826 -2.5628
   25CHL1    C3 1777   1.631   2.717  10.275  0.2578  0.1748 -0.3353
   25CHL1    H3 1778   1.547   2.775  10.229  0.2859 -0.7984 -1.6460
   25CHL1    O3 1779   1.631   2.716  10.416  0.4086 -0.1755 -0.5437
   25CHL1   H3' 1780   1.666   2.630  10.441  0.1212  0.0388  0.6285
   25CHL1    C4 1781   1.630   2.577  10.211 -0.6679 -0.5369 -0.6606
   25CHL1   H4A 1782   1.718   2.519  10.248  1.5865  2.5838 -0.8857
   25CHL1   H4B 1783   1.535   2.533  10.246 -0.2432 -0.6021  0.4351
   25CHL1    C5 1784   1.650   2.577  10.059 -0.7025  0.1380 -0.4944
   25CHL1    C6 1785   1.561   2.514   9.977 -0.3338 -0.0867 -0.1684
   25CHL1    H6 1786   1.467   2.474  10.017  0.0115  0.9420  1.7579
   25CHL1    C7 1787   1.584   2.524   9.825 -0.4341 -0.6113  0.5937
   25CHL1   H7A 1788   1.578   2.426   9.772  0.1932 -1.6942  2.4614
   25CHL1   H7B 1789   1.507   2.593   9.785 -1.2534 -1.1359  1.2661
   25CHL1    C8 1790   1.725   2.568   9.774 -0.3254  0.2291  0.5572
   25CHL1    H8 1791   1.793   2.480   9.779 -1.1452 -0.6710 -2.7038
   25CHL1   C14 1792   1.719   2.606   9.629  0.3401 -0.4737 -0.0108
   25CHL1   H14 1793   1.640   2.684   9.622 -1.0505 -1.9772 -1.5857
   25CHL1   C15 1794   1.680   2.499   9.531  0.7061  0.1280  0.3429
   25CHL1  H15A 1795   1.747   2.412   9.548  1.0018  0.0892 -0.9658
   25CHL1  H15B 1796   1.574   2.468   9.541  1.0660 -0.8856  1.0965
   25CHL1   C16 1797   1.707   2.553   9.393 -0.1560 -0.5180 -0.7612
   25CHL1  H16A 1798   1.774   2.487   9.334  0.2984  1.6043 -2.7025
   25CHL1  H16B 1799   1.615   2.567   9.332  0.8181  1.6436 -1.7803
   25CHL1   C17 1800   1.792   2.679   9.413 -0.3544 -0.6092 -0.2461
   25CHL1   H17 1801   1.716   2.759   9.397 -3.1759 -2.7854  1.7810
   25CHL1   C13 1802   1.842   2.672   9.559  0.4492 -1.4297  0.2534
   25CHL1   C18 1803   1.954   2.568   9.574  0.1102 -0.2380 -0.8123
   25CHL1  H18A 1804   1.937   2.472   9.521 -0.2934 -0.5227 -0.1780
   25CHL1  H18B 1805   2.049   2.616   9.543 -0.1169  0.4988 -0.3706
   25CHL1  H18C 1806   1.970   2.541   9.681 -2.7026 -0.2610 -0.3403
   25CHL1   C12 1807   1.854   2.801   9.642  0.1970  0.0453 -0.4458
   25CHL1  H12A 1808   1.944   2.857   9.608 -0.6691  1.2310 -0.8038
   25CHL1  H12B 1809   1.766   2.869   9.640  1.0551  1.3225  2.3604
   25CHL1   C11 1810   1.871   2.772   9.791 -0.1819 -0.0986 -0.0080
   25CHL1  H11A 1811   1.961   2.712   9.815  0.2946  0.3707 -0.6150
   25CHL1  H11B 1812   1.877   2.866   9.849  1.2879  0.6081 -1.2756
   25CHL1    C9 1813   1.755   2.693   9.856  0.8168  0.6449  0.7308
   25CHL1    H9 1814   1.666   2.759   9.858  0.9434  0.7885  1.8458
   25CHL1   C10 1815   1.767   2.659  10.007  0.3197 -0.5144  0.5523
   25CHL1   C19 1816   1.899   2.580  10.030  0.3387  0.1258 -0.5694
   25CHL1  H19A 1817   1.917   2.489   9.968  1.4812  0.3699 -0.6093
   25CHL1  H19B 1818   1.988   2.646  10.024 -0.4455  1.0725 -2.1005
   25CHL1  H19C 1819   1.898   2.546  10.136  0.5725 -1.2550 -0.9948
   25CHL1    C1 1820   1.777   2.802  10.083  0.1253  0.5032  0.0353
   25CHL1   H1A 1821   1.866   2.866  10.065 -0.4607  1.7821  1.5998
   25CHL1   H1B 1822   1.691   2.865  10.052  0.6917  0.7458 -1.0573
   25CHL1    C2 1823   1.772   2.785  10.235  0.6755 -0.1822  0.0207
   25CHL1   H2A 1824   1.774   2.888  10.278 -2.2996 -0.7646  1.7592
   25CHL1   H2B 1825   1.850   2.718  10.275  2.4461  1.3388 -0.7872
   25CHL1   C20 1826   1.898   2.712   9.300 -0.0440  0.0155 -0.2827
   25CHL1   H20 1827   1.979   2.636   9.315 -0.4650 -0.3149  0.3478
   25CHL1   C21 1828   1.963   2.846   9.320  0.8464 -0.0651  0.2568
   25CHL1  H21A 1829   2.007   2.862   9.420 -0.0212 -0.0403  0.6436
   25CHL1  H21B 1830   1.881   2.921   9.312 -1.0006 -2.0612  0.0129
   25CHL1  H21C 1831   2.048   2.861   9.250  1.9495 -2.3143  1.0698
   25CHL1   C22 1832   1.852   2.693   9.159  0.4895 -0.1821  0.1477
   25CHL1  H22A 1833   1.770   2.619   9.164  0.4613 -0.1669 -0.0996
   25CHL1  H22B 1834   1.808   2.789   9.125 -1.7240 -0.2151  2.7366
   25CHL1   C23 1835   1.974   2.655   9.069 -0.0105 -0.2964 -0.5386
   25CHL1  H23A 1836   2.054   2.730   9.088  2.3493 -2.2633 -2.4883
   25CHL1  H23B 1837   2.025   2.559   9.091  1.0625  0.1960 -0.8629
   25CHL1   C24 1838   1.945   2.654   8.923  0.1599 -0.2787 -0.0605
   25CHL1  H24A 1839   1.868   2.575   8.912 -0.6126  0.6268 -1.2173
   25CHL1  H24B 1840   1.892   2.749   8.901 -0.5914 -0.4076  1.2004
   25CHL1   C25 1841   2.065   2.631   8.828  0.1442  0.4626 -0.2837
   25CHL1   H25 1842   2.125   2.549   8.872 -1.7485 -1.5698 -1.3453
   25CHL1   C26 1843   2.020   2.578   8.690 -1.1549 -0.4119 -0.4160
   25CHL1  H26A 1844   1.939   2.642   8.648 -0.3292  0.0932 -1.2749
   25CHL1  H26B 1845   2.093   2.585   8.606 -1.2728 -0.2118 -0.5004
   25CHL1  H26C 1846   1.991   2.471   8.697 -2.4821 -0.0137  0.3835
   25CHL1   C27 1847   2.146   2.760   8.809 -0.4503 -0.0107  0.4366
   25CHL1  H27A 1848   2.178   2.800   8.907 -0.8929 -2.9277  1.8336
   25CHL1  H27B 1849   2.230   2.737   8.740 -1.2811  0.4999 -0.7670
   25CHL1  H27C 1850   2.085   2.839   8.761  1.4916  2.1741  1.4778
   26CHL1    C3 1851   3.104   4.985  10.226  0.4080 -0.2698  0.4918
   26CHL1    H3 1852   3.077   4.881  10.197  1.4663 -1.0352  2.1468
   26CHL1    O3 1853   3.126   4.998  10.361 -0.3504 -0.4816 -0.9259
   26CHL1   H3' 1854   3.152   5.088  10.378  0.3126 -1.0615  1.3275
   26CHL1    C4 1855   3.231   5.026  10.148  0.4508  0.2233 -0.3432
   26CHL1   H4A 1856   3.267   5.124  10.186  0.7525  0.1403 -0.4099
   26CHL1   H4B 1857   3.310   4.956  10.184  1.2437  1.4749  0.3556
   26CHL1    C5 1858   3.217   5.025   9.996  0.4295 -0.0234 -0.6169
   26CHL1    C6 1859   3.314   4.964   9.921 -0.5076 -0.7028  0.9605
   26CHL1    H6 1860   3.394   4.904   9.966 -1.2108 -1.3270  1.3779
   26CHL1    C7 1861   3.311   4.971   9.764  0.1332 -0.1371  0.0743
   26CHL1   H7A 1862   3.413   4.977   9.721  0.0672  2.5263  0.1876
   26CHL1   H7B 1863   3.258   4.878   9.735 -0.3438  0.0588  0.3164
   26CHL1    C8 1864   3.226   5.088   9.717  0.1480 -0.2433  0.5586
   26CHL1    H8 1865   3.287   5.177   9.745  0.0931 -0.5963  1.8177
   26CHL1   C14 1866   3.196   5.073   9.564 -0.0970 -0.3327 -0.3722
   26CHL1   H14 1867   3.134   4.983   9.545  0.7545 -1.3897  1.6958
   26CHL1   C15 1868   3.319   5.047   9.481  0.0790  0.1557  0.0339
   26CHL1  H15A 1869   3.405   5.107   9.518 -0.6228  1.0692  0.2040
   26CHL1  H15B 1870   3.341   4.938   9.491 -0.7992 -0.1062 -0.8803
   26CHL1   C16 1871   3.277   5.086   9.339  0.0864 -0.2944  0.5089
   26CHL1  H16A 1872   3.356   5.160   9.315  1.8349 -1.6056  1.9985
   26CHL1  H16B 1873   3.282   4.996   9.274 -1.5274  1.5667 -2.2583
   26CHL1   C17 1874   3.135   5.141   9.350  0.1700 -0.2293 -0.2167
   26CHL1   H17 1875   3.074   5.052   9.325  1.3898 -0.8007 -1.2206
   26CHL1   C13 1876   3.124   5.187   9.498  0.1072  0.0173  0.2422
   26CHL1   C18 1877   3.194   5.319   9.518  0.0664  0.5319  0.1597
   26CHL1  H18A 1878   3.293   5.322   9.468 -0.8333  1.2123 -1.6562
   26CHL1  H18B 1879   3.143   5.400   9.462 -0.3764  0.9983  1.2475
   26CHL1  H18C 1880   3.215   5.350   9.622  0.9572 -2.3349  0.8716
   26CHL1   C12 1881   2.981   5.189   9.573 -0.6483 -0.2585  0.0028
   26CHL1  H12A 1882   2.927   5.278   9.534 -0.2253  0.9046  1.9843
   26CHL1  H12B 1883   2.929   5.097   9.540  0.4713 -1.7873  2.3315
   26CHL1   C11 1884   2.990   5.195   9.717 -0.0901 -0.3580 -0.3617
   26CHL1  H11A 1885   3.020   5.301   9.737  1.0034 -0.4324 -1.4917
   26CHL1  H11B 1886   2.888   5.183   9.759  0.4693 -0.5502  0.9852
   26CHL1    C9 1887   3.086   5.092   9.786 -0.2523 -0.1237 -0.5264
   26CHL1    H9 1888   3.038   4.994   9.767 -2.7631  1.1100 -0.7359
   26CHL1   C10 1889   3.106   5.111   9.936  0.3051 -0.5936 -1.1371
   26CHL1   C19 1890   3.143   5.263   9.959 -0.4732  0.7670 -1.0105
   26CHL1  H19A 1891   3.057   5.331   9.937 -1.6910 -0.2744  0.4324
   26CHL1  H19B 1892   3.181   5.277  10.063  0.0871 -0.4545 -1.0450
   26CHL1  H19C 1893   3.233   5.296   9.902  1.3130  1.9410  2.3354
   26CHL1    C1 1894   2.980   5.078  10.022  0.1677  0.5697  0.3228
   26CHL1   H1A 1895   2.901   5.153  10.005  0.7759  1.5690  1.8892
   26CHL1   H1B 1896   2.931   4.984   9.989  0.0027  1.8590 -3.3268
   26CHL1    C2 1897   2.996   5.084  10.177 -0.3042 -0.1025 -0.3932
   26CHL1   H2A 1898   2.898   5.071  10.228  0.5412  4.4926  2.7847
   26CHL1   H2B 1899   3.028   5.186  10.209  0.7133 -0.6096  0.2527
   26CHL1   C20 1900   3.095   5.236   9.238 -0.4915 -0.1646 -0.5098
   26CHL1   H20 1901   3.145   5.334   9.253  1.5207 -1.3285  0.6524
   26CHL1   C21 1902   2.944   5.272   9.235 -0.1262  0.9223 -0.5846
   26CHL1  H21A 1903   2.928   5.321   9.137 -0.0614  0.7675 -0.6718
   26CHL1  H21B 1904   2.920   5.340   9.319  1.4597 -0.9253  1.4243
   26CHL1  H21C 1905   2.885   5.178   9.242  0.7000  0.3026 -1.6841
   26CHL1   C22 1906   3.136   5.177   9.098 -0.0702  0.9218  0.2557
   26CHL1  H22A 1907   3.247   5.168   9.101 -0.0498  1.0438 -0.0912
   26CHL1  H22B 1908   3.095   5.075   9.081  0.1667  1.3456 -3.0316
   26CHL1   C23 1909   3.114   5.276   8.975 -0.3428 -0.0417  0.3963
   26CHL1  H23A 1910   3.006   5.292   8.954 -0.1376 -0.5134 -1.0668
   26CHL1  H23B 1911   3.153   5.376   9.006 -0.0213 -0.0696  0.0738
   26CHL1   C24 1912   3.191   5.235   8.844 -0.0136 -1.1859 -0.5143
   26CHL1  H24A 1913   3.296   5.271   8.853 -0.5820  0.2044  0.7984
   26CHL1  H24B 1914   3.198   5.125   8.832  2.0630 -0.9106 -2.1596
   26CHL1   C25 1915   3.120   5.288   8.717 -0.4201  0.1981 -0.5678
   26CHL1   H25 1916   3.024   5.233   8.718 -1.1887  1.4773  2.2961
   26CHL1   C26 1917   3.080   5.437   8.722 -0.8497  0.4794 -0.5497
   26CHL1  H26A 1918   3.048   5.479   8.624 -1.1749 -0.9798 -1.0760
   26CHL1  H26B 1919   3.000   5.451   8.798 -1.2565 -0.2064 -0.8501
   26CHL1  H26C 1920   3.174   5.491   8.746 -0.7226 -0.2474  0.6007
   26CHL1   C27 1921   3.213   5.253   8.598  0.6069 -0.4145 -0.0334
   26CHL1  H27A 1922   3.254   5.151   8.612  0.8351 -0.3424 -0.1790
   26CHL1  H27B 1923   3.165   5.260   8.498  1.3236 -0.5735 -0.3843
   26CHL1  H27C 1924   3.302   5.320   8.596  0.9745 -0.9201 -0.5763
   27CHL1    C3 1925   2.418   2.361  10.159 -0.5632  0.6011 -0.7758
   27CHL1    H3 1926   2.367   2.265  10.140  2.7118 -1.4959  0.5603
   27CHL1    O3 1927   2.442   2.377  10.301 -0.1916 -0.5294  0.0133
   27CHL1   H3' 1928   2.425   2.286  10.326 -3.1579 -0.7915 -2.5899
   27CHL1    C4 1929   2.553   2.369  10.076 -0.0360  0.4162 -0.2475
   27CHL1   H4A 1930   2.598   2.468  10.098  2.7580 -0.6849 -0.7082
   27CHL1   H4B 1931   2.620   2.293  10.123 -0.7017 -1.4135 -2.1843
   27CHL1    C5 1932   2.536   2.366   9.927 -0.0210  0.1595 -0.2642
   27CHL1    C6 1933   2.592   2.269   9.855 -0.8329 -0.1036  0.4670
   27CHL1    H6 1934   2.656   2.200   9.913  0.7159  1.3606  0.5441
   27CHL1    C7 1935   2.602   2.261   9.705 -0.3725  0.3645 -0.4617
   27CHL1   H7A 1936   2.701   2.242   9.659 -0.5431  2.0593 -1.5636
   27CHL1   H7B 1937   2.537   2.177   9.674  1.3667 -1.1337 -0.0956
   27CHL1    C8 1938   2.552   2.394   9.646  0.2173 -0.0181 -0.4773
   27CHL1    H8 1939   2.633   2.470   9.655 -0.7413  1.0036 -0.3340
   27CHL1   C14 1940   2.520   2.365   9.498 -0.5085  1.1163 -0.1940
   27CHL1   H14 1941   2.448   2.280   9.506  0.5065  0.1151 -1.4642
   27CHL1   C15 1942   2.629   2.302   9.414 -0.4786  0.4212  0.4249
   27CHL1  H15A 1943   2.732   2.345   9.414 -0.5017  0.4846 -0.7433
   27CHL1  H15B 1944   2.641   2.192   9.428  1.8104  0.6249  0.3576
   27CHL1   C16 1945   2.573   2.311   9.268  0.0126 -0.0397 -0.7181
   27CHL1  H16A 1946   2.653   2.355   9.205  0.0283 -1.2471 -1.5661
   27CHL1  H16B 1947   2.539   2.214   9.225  0.2870 -1.0992  1.4126
   27CHL1   C17 1948   2.452   2.418   9.269 -0.4194  0.2466 -0.2890
   27CHL1   H17 1949   2.363   2.352   9.276 -1.3279  1.5889  1.1235
   27CHL1   C13 1950   2.460   2.479   9.416 -0.6061  0.0332 -0.2621
   27CHL1   C18 1951   2.561   2.594   9.406  0.6211 -0.7118 -0.2924
   27CHL1  H18A 1952   2.657   2.560   9.361  0.5171  0.2085 -1.2120
   27CHL1  H18B 1953   2.525   2.677   9.343  0.7444  0.2421  0.8808
   27CHL1  H18C 1954   2.578   2.642   9.505 -1.8320 -2.2661  0.9334
   27CHL1   C12 1955   2.332   2.516   9.492 -0.1466 -0.0964 -0.1193
   27CHL1  H12A 1956   2.273   2.598   9.446 -0.1592 -0.2366 -0.3511
   27CHL1  H12B 1957   2.274   2.423   9.476 -0.1679 -0.3091  1.1284
   27CHL1   C11 1958   2.353   2.547   9.643  0.3236 -0.1361  0.4164
   27CHL1  H11A 1959   2.434   2.623   9.645  1.2605 -1.1189  1.0558
   27CHL1  H11B 1960   2.254   2.567   9.689 -0.7137 -1.4477 -1.2011
   27CHL1    C9 1961   2.418   2.436   9.716 -0.4240  0.2453  0.6137
   27CHL1    H9 1962   2.355   2.347   9.691  0.9775  0.0933 -2.5740
   27CHL1   C10 1963   2.445   2.467   9.865 -0.5785 -0.8088 -0.1651
   27CHL1   C19 1964   2.525   2.601   9.882 -0.7142  0.5217 -0.4027
   27CHL1  H19A 1965   2.475   2.682   9.824 -0.6058  0.6307 -0.3428
   27CHL1  H19B 1966   2.516   2.630   9.989  0.9269 -4.4652  1.2162
   27CHL1  H19C 1967   2.630   2.600   9.845  0.2184  0.0064  2.1922
   27CHL1    C1 1968   2.306   2.470   9.945 -0.2695 -0.5096  0.0348
   27CHL1   H1A 1969   2.241   2.554   9.913 -0.2660 -0.6572 -0.3584
   27CHL1   H1B 1970   2.266   2.371   9.915 -4.2349  1.2104 -0.7268
   27CHL1    C2 1971   2.325   2.473  10.102  0.0359  0.0551  0.3846
   27CHL1   H2A 1972   2.225   2.469  10.151 -1.3947  1.2009 -2.3214
   27CHL1   H2B 1973   2.364   2.572  10.133  3.0658 -0.2277 -2.2790
   27CHL1   C20 1974   2.443   2.504   9.150 -0.0792  0.0073 -0.3383
   27CHL1   H20 1975   2.526   2.577   9.141  0.0518  0.1347  1.6395
   27CHL1   C21 1976   2.323   2.597   9.170 -0.1133 -0.3210 -0.2991
   27CHL1  H21A 1977   2.332   2.654   9.265 -2.2496 -0.2205 -0.1256
   27CHL1  H21B 1978   2.233   2.531   9.172 -0.9456  0.8573  1.5048
   27CHL1  H21C 1979   2.316   2.673   9.089  1.6824 -0.0123 -0.1806
   27CHL1   C22 1980   2.433   2.410   9.024  0.1648  0.6320  0.4831
   27CHL1  H22A 1981   2.515   2.335   9.024  1.9576  2.4517 -2.6032
   27CHL1  H22B 1982   2.339   2.352   9.030 -0.5245  1.8356  1.3829
   27CHL1   C23 1983   2.464   2.481   8.884  0.8121  0.9300 -0.0766
   27CHL1  H23A 1984   2.380   2.548   8.856  0.6470  1.0149  0.6094
   27CHL1  H23B 1985   2.562   2.533   8.897  0.2606  1.7244  1.0414
   27CHL1   C24 1986   2.477   2.378   8.771  0.6757  0.5325  0.2074
   27CHL1  H24A 1987   2.523   2.281   8.802 -1.0737 -0.5993 -0.6538
   27CHL1  H24B 1988   2.375   2.368   8.728  1.9309 -3.6334 -2.1495
   27CHL1   C25 1989   2.549   2.432   8.644  0.3127  0.0720 -0.7037
   27CHL1   H25 1990   2.519   2.360   8.565 -1.4893  0.0046  0.0188
   27CHL1   C26 1991   2.491   2.573   8.611 -0.7167 -0.2677 -0.0395
   27CHL1  H26A 1992   2.550   2.647   8.670  1.5855 -1.0555 -1.2891
   27CHL1  H26B 1993   2.511   2.598   8.505  1.0572  1.0646  0.5675
   27CHL1  H26C 1994   2.382   2.583   8.627 -1.1135  0.0466 -2.7846
   27CHL1   C27 1995   2.704   2.430   8.649 -0.2711  0.6510  0.0685
   27CHL1  H27A 1996   2.743   2.501   8.725 -0.9884  0.4924  0.5907
   27CHL1  H27B 1997   2.747   2.331   8.674  1.1796  0.9844 -1.0954
   27CHL1  H27C 1998   2.738   2.462   8.548 -1.6746 -0.3970 -0.7607
   28CHL1    C3 1999   2.072   1.233  10.059  0.7742 -0.3246  1.2077
   28CHL1    H3 2000   2.048   1.341  10.051 -0.7497 -0.4816  3.4900
   28CHL1    O3 2001   2.127   1.193  10.191  0.2045 -0.3555  0.1389
   28CHL1   H3' 2002   2.186   1.117  10.181 -0.5023 -0.8602 -0.2926
   28CHL1    C4 2003   1.937   1.164  10.040  0.0215 -0.5508 -0.5106
   28CHL1   H4A 2004   1.948   1.057  10.067  0.0938 -0.3938  0.0743
   28CHL1   H4B 2005   1.866   1.211  10.111  1.1883  1.1827 -0.4775
   28CHL1    C5 2006   1.885   1.170   9.897 -0.5804 -0.4750  0.4091
   28CHL1    C6 2007   1.763   1.221   9.861 -0.2024  0.1817  0.2530
   28CHL1    H6 2008   1.693   1.247   9.941 -0.5206  1.7181 -0.4845
   28CHL1    C7 2009   1.711   1.215   9.718  0.2319  0.2824  0.0378
   28CHL1   H7A 2010   1.607   1.177   9.717  0.0732  0.6749 -3.0290
   28CHL1   H7B 2011   1.712   1.313   9.665 -0.9033 -0.0191 -0.5514
   28CHL1    C8 2012   1.803   1.128   9.623 -0.1003 -0.2490 -0.5107
   28CHL1    H8 2013   1.780   1.020   9.628  0.5548 -0.3579  0.2396
   28CHL1   C14 2014   1.773   1.172   9.480  0.1251  0.0794  0.6273
   28CHL1   H14 2015   1.811   1.276   9.472 -0.0561  0.1957  1.3157
   28CHL1   C15 2016   1.622   1.191   9.434 -0.9375  0.3908 -0.3805
   28CHL1  H15A 2017   1.570   1.096   9.455 -0.7123  0.7359  1.7891
   28CHL1  H15B 2018   1.587   1.282   9.487  0.9320 -0.1050  1.7780
   28CHL1   C16 2019   1.636   1.204   9.284 -0.2212  0.1247 -0.4337
   28CHL1  H16A 2020   1.558   1.146   9.232 -0.9738 -0.0990  0.9230
   28CHL1  H16B 2021   1.623   1.309   9.250 -2.3855  0.6328  1.7947
   28CHL1   C17 2022   1.784   1.163   9.241  0.1905  0.2860 -0.1095
   28CHL1   H17 2023   1.836   1.261   9.231  1.1552 -0.2871 -0.8253
   28CHL1   C13 2024   1.851   1.098   9.364 -0.8310  0.3220  0.0493
   28CHL1   C18 2025   1.814   0.943   9.361  1.0397  0.1487 -0.6671
   28CHL1  H18A 2026   1.807   0.886   9.456 -0.9335 -0.1661 -0.9837
   28CHL1  H18B 2027   1.709   0.944   9.325  0.5205 -1.5598  0.7492
   28CHL1  H18C 2028   1.880   0.874   9.305  0.1760 -0.5922 -0.7772
   28CHL1   C12 2029   1.997   1.122   9.389  0.2717 -0.5798  0.3720
   28CHL1  H12A 2030   2.057   1.058   9.321 -2.6427 -1.1870 -1.7253
   28CHL1  H12B 2031   2.018   1.228   9.363  2.5891 -1.7284 -2.7151
   28CHL1   C11 2032   2.036   1.082   9.539  0.6543 -0.1603 -0.1342
   28CHL1  H11A 2033   2.017   0.973   9.550 -0.4928 -0.0391 -0.8560
   28CHL1  H11B 2034   2.146   1.097   9.547  0.2991  1.8567  1.1311
   28CHL1    C9 2035   1.951   1.153   9.651  0.8738  0.3273  0.1866
   28CHL1    H9 2036   1.973   1.261   9.635  2.0681 -0.0222 -0.5991
   28CHL1   C10 2037   1.995   1.118   9.796 -0.1211 -0.6498 -0.5758
   28CHL1   C19 2038   2.012   0.965   9.819  0.8100 -0.5922  0.5454
   28CHL1  H19A 2039   2.046   0.945   9.922 -1.2163  1.3738  1.6583
   28CHL1  H19B 2040   1.922   0.904   9.795 -0.3107  1.9761 -2.2208
   28CHL1  H19C 2041   2.096   0.926   9.758 -0.5601  0.9806 -2.4574
   28CHL1    C1 2042   2.126   1.196   9.815 -0.5594 -0.2026  0.0393
   28CHL1   H1A 2043   2.202   1.146   9.751 -0.0564 -1.3700  1.5345
   28CHL1   H1B 2044   2.105   1.302   9.790 -0.2196  0.3118  1.9054
   28CHL1    C2 2045   2.177   1.185   9.961 -0.0456 -0.0847 -0.0818
   28CHL1   H2A 2046   2.268   1.246   9.977 -1.1144  1.1219  1.5505
   28CHL1   H2B 2047   2.213   1.083   9.987 -1.1068 -0.6958 -0.9253
   28CHL1   C20 2048   1.793   1.107   9.098 -0.4084  0.0004  0.1230
   28CHL1   H20 2049   1.721   1.023   9.093  1.2284 -1.3824 -0.8723
   28CHL1   C21 2050   1.932   1.062   9.070  0.2075 -0.2154  0.2119
   28CHL1  H21A 2051   2.005   1.123   9.127  2.0049 -0.5147 -1.7027
   28CHL1  H21B 2052   1.961   1.070   8.963  1.7692  1.7256  0.7362
   28CHL1  H21C 2053   1.948   0.958   9.105 -0.1632 -0.7449 -1.1443
   28CHL1   C22 2054   1.737   1.210   8.993 -0.2965  0.1860 -0.1141
   28CHL1  H22A 2055   1.656   1.268   9.042 -1.0457 -1.4292  0.5961
   28CHL1  H22B 2056   1.812   1.289   8.972  0.0724  0.1817  1.1383
   28CHL1   C23 2057   1.687   1.157   8.860  0.2416  0.1578  1.0278
   28CHL1  H23A 2058   1.762   1.091   8.810  1.1672  2.8477 -1.2544
   28CHL1  H23B 2059   1.592   1.101   8.872 -0.0360 -0.2649 -2.5182
   28CHL1   C24 2060   1.640   1.279   8.770 -0.4008  0.3800  0.1403
   28CHL1  H24A 2061   1.546   1.309   8.820  0.1946  0.2592  1.3413
   28CHL1  H24B 2062   1.720   1.356   8.783  1.1641 -0.9278 -1.3887
   28CHL1   C25 2063   1.618   1.257   8.621 -0.1844 -0.3653 -0.1365
   28CHL1   H25 2064   1.606   1.358   8.577 -0.2553 -0.4651 -0.3470
   28CHL1   C26 2065   1.740   1.201   8.540  0.0519 -0.0887  0.4315
   28CHL1  H26A 2066   1.709   1.180   8.436 -2.2197  3.6669  0.2742
   28CHL1  H26B 2067   1.810   1.285   8.521  1.4087 -1.3974 -0.5051
   28CHL1  H26C 2068   1.798   1.123   8.595  1.0494 -0.7412 -1.4966
   28CHL1   C27 2069   1.490   1.185   8.582 -0.7079 -0.0476  0.2982
   28CHL1  H27A 2070   1.497   1.086   8.634  2.2725  0.1733  0.4192
   28CHL1  H27B 2071   1.404   1.246   8.615 -0.7906 -0.8946  1.7083
   28CHL1  H27C 2072   1.479   1.156   8.475 -2.3764  1.7383 -0.0279
   29CHL1    C3 2073   3.037   6.500   6.658 -0.8719 -0.7828  0.1991
   29CHL1    H3 2074   2.960   6.577   6.679  0.6494  1.0784 -0.8664
   29CHL1    O3 2075   3.033   6.440   6.530  0.1551 -0.0531  0.0372
   29CHL1   H3' 2076   3.113   6.387   6.531  2.1066  2.7410 -1.3023
   29CHL1    C4 2077   3.175   6.565   6.681 -0.1825 -0.0077 -0.5164
   29CHL1   H4A 2078   3.250   6.493   6.641  3.2142  0.4512  4.5144
   29CHL1   H4B 2079   3.175   6.648   6.608 -1.0815  0.9591  0.5617
   29CHL1    C5 2080   3.211   6.595   6.821  0.4194 -0.0834  0.8269
   29CHL1    C6 2081   3.237   6.714   6.866 -0.2084 -0.0380 -0.1281
   29CHL1    H6 2082   3.241   6.801   6.799 -0.0084  0.0198 -0.0413
   29CHL1    C7 2083   3.280   6.743   7.009 -0.1198  0.2417 -0.1175
   29CHL1   H7A 2084   3.360   6.821   7.010 -1.2079  1.3801 -0.8637
   29CHL1   H7B 2085   3.194   6.794   7.057  0.0694 -0.8463  1.4083
   29CHL1    C8 2086   3.302   6.614   7.100 -0.4833  0.0683 -0.0219
   29CHL1    H8 2087   3.407   6.587   7.076 -0.1077  1.4131  0.0794
   29CHL1   C14 2088   3.299   6.648   7.252 -0.4961 -0.7244 -0.6581
   29CHL1   H14 2089   3.193   6.677   7.264 -0.2289  0.7323 -1.7026
   29CHL1   C15 2090   3.372   6.780   7.295  0.7743 -1.0363  0.7542
   29CHL1  H15A 2091   3.472   6.785   7.248  1.3537 -2.6879  1.7716
   29CHL1  H15B 2092   3.317   6.872   7.264  3.0838 -0.0527 -0.5147
   29CHL1   C16 2093   3.380   6.748   7.450  0.1574  0.0418  0.4638
   29CHL1  H16A 2094   3.486   6.748   7.484  0.1549  1.1584  0.4999
   29CHL1  H16B 2095   3.340   6.834   7.509 -1.2794 -0.4134  0.1735
   29CHL1   C17 2096   3.327   6.604   7.470  0.4944 -0.4202 -0.1761
   29CHL1   H17 2097   3.221   6.630   7.491 -0.2054 -1.0907 -2.7348
   29CHL1   C13 2098   3.339   6.532   7.340  0.9700 -0.2934 -0.7589
   29CHL1   C18 2099   3.483   6.484   7.316  0.2042  0.5566  0.5932
   29CHL1  H18A 2100   3.563   6.559   7.300 -0.2495  1.0882  0.7705
   29CHL1  H18B 2101   3.518   6.419   7.398 -0.5398 -0.1408  0.3696
   29CHL1  H18C 2102   3.482   6.414   7.230  0.2235  0.0543  0.9969
   29CHL1   C12 2103   3.231   6.428   7.312  0.1989  0.8494 -0.8252
   29CHL1  H12A 2104   3.244   6.334   7.369 -0.4508  1.1411 -0.1938
   29CHL1  H12B 2105   3.132   6.473   7.335 -0.5501 -0.5059 -1.3496
   29CHL1   C11 2106   3.227   6.387   7.165  0.3848  0.3650 -0.2660
   29CHL1  H11A 2107   3.320   6.338   7.132  0.7031  0.5623  0.3180
   29CHL1  H11B 2108   3.146   6.314   7.142 -2.1317  2.8185  0.4862
   29CHL1    C9 2109   3.203   6.508   7.071 -0.1406 -0.0114 -0.0125
   29CHL1    H9 2110   3.104   6.555   7.090  0.7373  1.8404  0.0568
   29CHL1   C10 2111   3.192   6.473   6.920 -0.0757 -0.1120  0.3034
   29CHL1   C19 2112   3.289   6.353   6.882  0.2404  0.5974  0.1157
   29CHL1  H19A 2113   3.279   6.324   6.775  1.5503  2.3897 -0.5115
   29CHL1  H19B 2114   3.397   6.377   6.886  0.5174 -0.0069 -2.3374
   29CHL1  H19C 2115   3.272   6.263   6.945  1.0324  1.1276  1.0861
   29CHL1    C1 2116   3.040   6.428   6.907 -0.1130 -0.7148 -0.0337
   29CHL1   H1A 2117   3.017   6.344   6.976 -0.7733  1.0990  2.0157
   29CHL1   H1B 2118   2.967   6.509   6.926  2.3176  0.7879  3.6228
   29CHL1    C2 2119   3.012   6.386   6.758  0.2611 -0.6984 -0.5990
   29CHL1   H2A 2120   2.906   6.353   6.757 -0.9692  2.8790  2.2802
   29CHL1   H2B 2121   3.081   6.301   6.733  2.1285 -0.1494  2.4052
   29CHL1   C20 2122   3.377   6.544   7.599  0.4713 -0.2968 -0.3488
   29CHL1   H20 2123   3.488   6.530   7.599  0.4601 -0.4457  1.5369
   29CHL1   C21 2124   3.327   6.399   7.614 -0.3043  0.2465  0.4960
   29CHL1  H21A 2125   3.218   6.388   7.597 -0.1531 -0.5043 -0.0328
   29CHL1  H21B 2126   3.368   6.352   7.705 -0.1233 -0.5198  0.0229
   29CHL1  H21C 2127   3.376   6.344   7.530  2.2857  2.0832  0.7533
   29CHL1   C22 2128   3.344   6.634   7.721  0.3307 -0.2013  0.0073
   29CHL1  H22A 2129   3.405   6.614   7.811  2.6422 -2.7434 -2.0562
   29CHL1  H22B 2130   3.384   6.736   7.707 -1.0679  0.3807  0.1977
   29CHL1   C23 2131   3.195   6.647   7.753 -0.5673  0.4760 -0.1000
   29CHL1  H23A 2132   3.152   6.723   7.684 -0.3780  0.4773 -0.2149
   29CHL1  H23B 2133   3.137   6.553   7.740  1.4724 -1.3039  3.1078
   29CHL1   C24 2134   3.180   6.685   7.902  0.0521  0.0754 -0.0385
   29CHL1  H24A 2135   3.236   6.625   7.977  0.1156  0.5051  0.2635
   29CHL1  H24B 2136   3.224   6.787   7.907  1.8887 -0.6641 -0.8492
   29CHL1   C25 2137   3.035   6.687   7.957 -0.2701 -0.3533  0.4670
   29CHL1   H25 2138   2.977   6.750   7.886  0.3396  2.2902  2.2679
   29CHL1   C26 2139   2.985   6.546   7.975  0.0374 -0.4253 -0.5034
   29CHL1  H26A 2140   3.048   6.486   8.044 -1.5150 -0.0422  1.3008
   29CHL1  H26B 2141   2.882   6.546   8.017  0.6894 -0.4811  1.1347
   29CHL1  H26C 2142   2.985   6.488   7.881 -1.3616 -1.1100 -0.0947
   29CHL1   C27 2143   3.029   6.771   8.089 -0.7053  0.3462 -0.4277
   29CHL1  H27A 2144   3.070   6.873   8.069 -1.7467  0.3474 -2.7526
   29CHL1  H27B 2145   2.921   6.778   8.115 -1.0637 -1.9823 -1.1823
   29CHL1  H27C 2146   3.086   6.731   8.176 -1.0978 -0.1114 -0.3803
   30CHL1    C3 2147   0.897   5.277   7.198 -0.5596  1.1602 -0.4555
   30CHL1    H3 2148   1.003   5.283   7.164 -0.3824  0.1900 -0.1042
   30CHL1    O3 2149   0.804   5.273   7.095  0.1875  0.4992 -0.1265
   30CHL1   H3' 2150   0.810   5.354   7.043 -2.1326  0.3751 -0.6413
   30CHL1    C4 2151   0.875   5.154   7.291 -0.4742 -0.0192  0.1529
   30CHL1   H4A 2152   0.765   5.135   7.288 -0.1978 -1.4603 -1.5928
   30CHL1   H4B 2153   0.907   5.057   7.246 -1.5476  0.3912 -1.5379
   30CHL1    C5 2154   0.937   5.154   7.430 -0.4848 -0.1793 -0.6569
   30CHL1    C6 2155   1.010   5.054   7.478 -0.6172 -0.0936  0.5370
   30CHL1    H6 2156   1.030   4.969   7.412  0.0452 -2.0100  3.1211
   30CHL1    C7 2157   1.060   5.051   7.617 -0.0229  0.0744  0.2129
   30CHL1   H7A 2158   1.030   4.958   7.670 -0.2669 -0.5941 -1.0742
   30CHL1   H7B 2159   1.171   5.048   7.615 -0.0737 -2.6462 -0.8689
   30CHL1    C8 2160   0.997   5.164   7.709 -0.0067 -0.0169  0.8813
   30CHL1    H8 2161   0.899   5.117   7.730 -0.6430  0.5525 -0.7333
   30CHL1   C14 2162   1.075   5.178   7.842  0.2165  0.0430 -0.7038
   30CHL1   H14 2163   1.177   5.213   7.812  0.0650 -1.0375 -2.5863
   30CHL1   C15 2164   1.090   5.055   7.928  0.0791  0.5965  0.3907
   30CHL1  H15A 2165   0.996   4.999   7.942  0.2626  0.1687 -0.0803
   30CHL1  H15B 2166   1.172   4.982   7.908 -1.8157 -2.0042  1.8977
   30CHL1   C16 2167   1.130   5.115   8.063  0.6802  0.1628 -0.6360
   30CHL1  H16A 2168   1.073   5.059   8.140 -2.5186  0.4626 -2.6606
   30CHL1  H16B 2169   1.237   5.099   8.087  0.1925  0.3610  1.7444
   30CHL1   C17 2170   1.096   5.269   8.044  0.3143 -0.2170  0.1082
   30CHL1   H17 2171   1.188   5.315   8.002  0.0123  0.4788  0.2038
   30CHL1   C13 2172   1.016   5.283   7.927  1.2075 -0.4221 -0.5906
   30CHL1   C18 2173   0.864   5.257   7.969  0.5408  0.2745  0.3135
   30CHL1  H18A 2174   0.864   5.169   8.037  2.2817 -0.0406 -0.0720
   30CHL1  H18B 2175   0.821   5.347   8.019 -1.7436 -0.5041 -0.1799
   30CHL1  H18C 2176   0.800   5.246   7.879  0.2927 -3.0231  0.8584
   30CHL1   C12 2177   1.027   5.420   7.853  0.4144 -0.0336 -0.5404
   30CHL1  H12A 2178   0.986   5.500   7.918  0.0918 -1.3699  0.9518
   30CHL1  H12B 2179   1.130   5.445   7.822 -0.1073  2.9646  0.0567
   30CHL1   C11 2180   0.943   5.418   7.723  0.2564 -0.1734 -0.4664
   30CHL1  H11A 2181   0.835   5.426   7.749  1.0914 -0.7473  3.4823
   30CHL1  H11B 2182   0.968   5.507   7.662 -0.1227  1.0399  1.1180
   30CHL1    C9 2183   0.982   5.298   7.632 -0.1804 -0.4625 -0.4269
   30CHL1    H9 2184   1.088   5.317   7.604 -1.0020 -0.1437 -3.4993
   30CHL1   C10 2185   0.907   5.284   7.499 -0.1120  0.0211 -0.1861
   30CHL1   C19 2186   0.757   5.276   7.538 -0.1519 -0.1729  0.2031
   30CHL1  H19A 2187   0.745   5.189   7.606  0.2462 -0.0323  0.4523
   30CHL1  H19B 2188   0.722   5.370   7.585 -0.5450 -0.6039  0.7898
   30CHL1  H19C 2189   0.693   5.264   7.447 -0.4423  0.9127  0.2519
   30CHL1    C1 2190   0.933   5.409   7.417 -0.2553  1.4281 -0.7895
   30CHL1   H1A 2191   0.896   5.506   7.456 -1.8984  0.3576  0.3876
   30CHL1   H1B 2192   1.042   5.422   7.397  0.7531  0.1589  3.4477
   30CHL1    C2 2193   0.861   5.400   7.277 -0.2215 -0.3016 -0.0181
   30CHL1   H2A 2194   0.888   5.485   7.211  0.2803  0.3985  1.0745
   30CHL1   H2B 2195   0.754   5.421   7.296 -0.0197 -0.3058  1.2110
   30CHL1   C20 2196   1.047   5.340   8.174  0.3598  0.3134 -0.1977
   30CHL1   H20 2197   0.980   5.427   8.156 -1.5876 -0.8193  1.4193
   30CHL1   C21 2198   1.178   5.397   8.229 -0.3547  0.2538  0.4938
   30CHL1  H21A 2199   1.181   5.421   8.337  0.3839  0.2445  0.4756
   30CHL1  H21B 2200   1.227   5.480   8.174  0.4912 -1.1385 -0.9066
   30CHL1  H21C 2201   1.254   5.316   8.230 -0.4469  0.1710  0.9354
   30CHL1   C22 2202   0.979   5.253   8.281 -0.1028 -0.3397 -0.6863
   30CHL1  H22A 2203   0.898   5.193   8.234 -3.2114  3.2821 -0.1967
   30CHL1  H22B 2204   1.055   5.193   8.336  0.2931  2.2516  1.7283
   30CHL1   C23 2205   0.897   5.335   8.383 -0.1391  0.1533 -0.0746
   30CHL1  H23A 2206   0.972   5.404   8.428 -1.5519  1.6616  0.0298
   30CHL1  H23B 2207   0.821   5.398   8.333  4.0569  4.9916 -0.8639
   30CHL1   C24 2208   0.828   5.252   8.495 -0.3603  0.4639 -0.1068
   30CHL1  H24A 2209   0.739   5.203   8.451 -0.9823  1.8022 -0.3794
   30CHL1  H24B 2210   0.904   5.182   8.535 -2.6069 -1.3734  1.0249
   30CHL1   C25 2211   0.770   5.330   8.619 -0.1047 -0.5379 -0.4648
   30CHL1   H25 2212   0.855   5.386   8.663 -1.1495  2.6183 -2.3186
   30CHL1   C26 2213   0.665   5.437   8.581  1.1234  0.2000  0.5677
   30CHL1  H26A 2214   0.574   5.382   8.546 -1.3053  2.0019  3.7376
   30CHL1  H26B 2215   0.647   5.501   8.670 -0.9839  1.0979 -0.4461
   30CHL1  H26C 2216   0.699   5.501   8.497  1.2047 -0.7320 -0.1179
   30CHL1   C27 2217   0.708   5.233   8.720  0.1814  0.7027  0.8810
   30CHL1  H27A 2218   0.762   5.137   8.735 -1.0651 -0.5725 -2.2927
   30CHL1  H27B 2219   0.694   5.280   8.819 -0.9975 -0.0481  1.0803
   30CHL1  H27C 2220   0.604   5.207   8.691  0.2725  1.4176 -0.1197
   31CHL1    C3 2221   0.599   0.027   6.807 -0.0668 -0.0328 -0.8438
   31CHL1    H3 2222   0.499   0.047   6.852  1.1770 -0.0928  2.0658
   31CHL1    O3 2223   0.591   0.020   6.667  0.6119 -0.5328  0.1044
   31CHL1   H3' 2224   0.605   0.107   6.628 -0.0119  1.5042  4.1404
   31CHL1    C4 2225   0.694   0.150   6.827  0.0709 -0.4000  0.1661
   31CHL1   H4A 2226   0.777   0.136   6.754 -0.8136  0.6742 -1.0705
   31CHL1   H4B 2227   0.644   0.244   6.796  2.4964  0.5276 -1.0358
   31CHL1    C5 2228   0.744   0.168   6.965 -0.3624 -0.8659  0.6748
   31CHL1    C6 2229   0.736   0.281   7.031  0.3195 -0.3306 -0.3346
   31CHL1    H6 2230   0.692   0.371   6.987 -0.0365  1.0094  2.6495
   31CHL1    C7 2231   0.809   0.304   7.160  0.1034  0.5881  0.3741
   31CHL1   H7A 2232   0.857   0.404   7.160  1.6584 -0.1204 -1.3716
   31CHL1   H7B 2233   0.729   0.297   7.237  0.1614  2.4579  0.6269
   31CHL1    C8 2234   0.915   0.201   7.197 -0.4803 -0.4566 -0.0577
   31CHL1    H8 2235   1.005   0.234   7.140  0.3558 -1.7350  0.4924
   31CHL1   C14 2236   0.942   0.200   7.344  0.0203  0.3756 -0.1314
   31CHL1   H14 2237   0.851   0.162   7.394 -0.1480 -0.8444 -1.3159
   31CHL1   C15 2238   0.968   0.340   7.401 -0.3014 -0.6607 -0.7254
   31CHL1  H15A 2239   1.045   0.380   7.331  0.1200 -2.1858 -1.1440
   31CHL1  H15B 2240   0.875   0.401   7.408  1.4925  2.1723 -0.4753
   31CHL1   C16 2241   1.034   0.313   7.539  0.3020  0.0703 -0.2295
   31CHL1  H16A 2242   1.125   0.376   7.547  0.4004 -0.3565  2.2383
   31CHL1  H16B 2243   0.956   0.332   7.615 -1.2486 -1.0041 -1.5088
   31CHL1   C17 2244   1.070   0.160   7.541  0.1402 -0.1246  0.5505
   31CHL1   H17 2245   0.987   0.112   7.597  0.3738  0.5252  1.4479
   31CHL1   C13 2246   1.052   0.107   7.400 -0.0264 -0.4003  0.2065
   31CHL1   C18 2247   1.182   0.126   7.315 -0.6847 -0.1053 -0.1037
   31CHL1  H18A 2248   1.165   0.098   7.209 -0.2077  0.0789 -0.2284
   31CHL1  H18B 2249   1.229   0.226   7.324  0.4302 -0.6964  0.7294
   31CHL1  H18C 2250   1.259   0.059   7.357 -0.3425  0.6561  0.4913
   31CHL1   C12 2251   0.994  -0.033   7.372  0.1910 -0.1602 -0.8101
   31CHL1  H12A 2252   1.064  -0.115   7.393  0.3376  0.6952  2.1796
   31CHL1  H12B 2253   0.907  -0.050   7.440  1.7432 -0.6728  1.0722
   31CHL1   C11 2254   0.949  -0.056   7.230  0.0552  0.3937 -0.1174
   31CHL1  H11A 2255   1.034  -0.070   7.160 -1.3349 -1.2563 -1.5464
   31CHL1  H11B 2256   0.879  -0.142   7.233  0.5993 -0.0568 -0.4026
   31CHL1    C9 2257   0.861   0.060   7.165 -0.2404  0.2989 -0.3521
   31CHL1    H9 2258   0.773   0.056   7.233  1.1977  0.0217  1.5265
   31CHL1   C10 2259   0.812   0.043   7.023 -0.1433  0.7428  0.2861
   31CHL1   C19 2260   0.940   0.020   6.941  0.0466  0.0435 -0.3900
   31CHL1  H19A 2261   1.013   0.103   6.940  1.8223 -1.4956 -0.6294
   31CHL1  H19B 2262   0.977  -0.082   6.965 -2.8239 -0.6508  1.3138
   31CHL1  H19C 2263   0.910   0.009   6.834 -0.1316 -2.4373 -0.1179
   31CHL1    C1 2264   0.718  -0.078   7.014 -0.1444 -0.6670  0.4823
   31CHL1   H1A 2265   0.757  -0.170   7.062 -2.7380 -1.2315  1.6120
   31CHL1   H1B 2266   0.629  -0.058   7.077 -0.6510 -0.1497 -0.3784
   31CHL1    C2 2267   0.654  -0.103   6.872 -0.7237 -0.4765 -0.0097
   31CHL1   H2A 2268   0.578  -0.185   6.877  0.6448 -1.6540  2.4665
   31CHL1   H2B 2269   0.735  -0.145   6.809 -0.2792  0.1540  0.1468
   31CHL1   C20 2270   1.197   0.126   7.619 -0.1949  0.0785 -0.4196
   31CHL1   H20 2271   1.291   0.164   7.574  0.4800 -1.8603 -0.7059
   31CHL1   C21 2272   1.211  -0.025   7.625  0.2489  0.3626  0.5022
   31CHL1  H21A 2273   1.124  -0.078   7.669 -0.2214  0.7442  0.0441
   31CHL1  H21B 2274   1.305  -0.041   7.682  0.7366  1.3584  0.0029
   31CHL1  H21C 2275   1.233  -0.081   7.532 -2.7631  0.3881 -0.2568
   31CHL1   C22 2276   1.182   0.183   7.767  0.2002 -0.0110 -0.1940
   31CHL1  H22A 2277   1.268   0.131   7.813 -1.1459 -3.3178 -1.1721
   31CHL1  H22B 2278   1.198   0.292   7.763  0.4747  0.0860  2.5098
   31CHL1   C23 2279   1.054   0.154   7.839  0.4071 -0.1271 -0.1299
   31CHL1  H23A 2280   0.971   0.216   7.799  0.0652  0.5486  1.5867
   31CHL1  H23B 2281   1.037   0.044   7.834 -0.6247  0.0177  0.0389
   31CHL1   C24 2282   1.070   0.179   7.991  0.2959 -0.7177 -0.7387
   31CHL1  H24A 2283   0.995   0.125   8.053 -0.0701 -1.1792 -1.5722
   31CHL1  H24B 2284   1.171   0.144   8.022 -0.1168 -0.0645  1.4519
   31CHL1   C25 2285   1.054   0.325   8.042 -0.3930  0.1412 -0.4414
   31CHL1   H25 2286   1.095   0.401   7.971 -2.1112  0.9980 -0.5349
   31CHL1   C26 2287   0.902   0.368   8.056  0.4289 -0.0897  1.2030
   31CHL1  H26A 2288   0.853   0.387   7.958  1.6369 -0.2122  0.5695
   31CHL1  H26B 2289   0.841   0.300   8.120 -0.5701  1.0331  1.4667
   31CHL1  H26C 2290   0.896   0.468   8.104 -1.3897  0.2473  0.3159
   31CHL1   C27 2291   1.123   0.352   8.175  0.7789 -0.3090 -0.2187
   31CHL1  H27A 2292   1.077   0.288   8.254 -1.4983  1.1985 -0.2886
   31CHL1  H27B 2293   1.110   0.459   8.204 -4.1727 -1.0218  0.5653
   31CHL1  H27C 2294   1.229   0.320   8.179  0.5037 -1.0945  1.2296
   32CHL1    C3 2295   1.340   5.496   7.056  0.2490  0.2014 -0.0134
   32CHL1    H3 2296   1.288   5.577   7.112 -1.5990 -2.0280  1.6021
   32CHL1    O3 2297   1.308   5.517   6.916  0.8817 -0.2486 -0.0211
   32CHL1   H3' 2298   1.373   5.579   6.883 -0.1075  1.6770  1.5456
   32CHL1    C4 2299   1.489   5.498   7.079 -0.0666  0.4181  0.7424
   32CHL1   H4A 2300   1.530   5.413   7.020 -3.2453 -0.2923 -0.5606
   32CHL1   H4B 2301   1.538   5.588   7.036  0.1592  0.1464  0.4328
   32CHL1    C5 2302   1.516   5.486   7.230  0.3072  0.2662  1.1315
   32CHL1    C6 2303   1.569   5.590   7.293  0.4986 -0.0140 -0.0600
   32CHL1    H6 2304   1.611   5.680   7.246  0.9044 -0.4732 -0.5861
   32CHL1    C7 2305   1.601   5.582   7.442  1.2263 -0.1244 -0.6290
   32CHL1   H7A 2306   1.705   5.619   7.460  0.6148  1.0224  0.6736
   32CHL1   H7B 2307   1.534   5.654   7.494  0.7764 -0.6399 -0.4984
   32CHL1    C8 2308   1.593   5.442   7.502  0.7099  0.1979 -0.3266
   32CHL1    H8 2309   1.683   5.386   7.469  1.3028 -0.4267  2.2014
   32CHL1   C14 2310   1.589   5.460   7.653  0.1101 -0.0809 -0.3132
   32CHL1   H14 2311   1.491   5.507   7.677  0.0781 -0.6698  0.7002
   32CHL1   C15 2312   1.693   5.549   7.725  0.1420  0.1951  0.1677
   32CHL1  H15A 2313   1.791   5.536   7.674 -0.4736 -2.3198 -0.4229
   32CHL1  H15B 2314   1.658   5.655   7.718 -1.1952 -0.2574 -0.0968
   32CHL1   C16 2315   1.684   5.503   7.867  0.2210 -1.0007  0.0725
   32CHL1  H16A 2316   1.784   5.474   7.905 -0.8943 -2.2950  2.1180
   32CHL1  H16B 2317   1.649   5.576   7.944  2.5080 -0.4496  0.6380
   32CHL1   C17 2318   1.600   5.375   7.871  0.0799  0.4642 -0.0714
   32CHL1   H17 2319   1.493   5.404   7.880 -0.0664 -0.1074  0.0638
   32CHL1   C13 2320   1.594   5.325   7.730  0.2836  0.2653  0.1129
   32CHL1   C18 2321   1.720   5.249   7.683  0.1113 -0.2040 -0.2699
   32CHL1  H18A 2322   1.811   5.307   7.712 -1.0664  0.9494  1.2375
   32CHL1  H18B 2323   1.725   5.153   7.738 -0.6228  0.0782  0.2972
   32CHL1  H18C 2324   1.730   5.235   7.573  0.8097 -0.2960 -0.1955
   32CHL1   C12 2325   1.465   5.243   7.678 -0.3648  0.6392  0.1893
   32CHL1  H12A 2326   1.457   5.140   7.719 -1.7826  0.5351 -0.3085
   32CHL1  H12B 2327   1.381   5.297   7.727 -1.7504 -0.0898 -1.3237
   32CHL1   C11 2328   1.448   5.232   7.528 -0.3988  0.3896 -0.2852
   32CHL1  H11A 2329   1.518   5.153   7.494 -1.9308 -1.4744  0.7811
   32CHL1  H11B 2330   1.358   5.187   7.481 -1.3195  1.5983  0.3019
   32CHL1    C9 2331   1.467   5.365   7.458  0.1288 -0.6002  0.2560
   32CHL1    H9 2332   1.381   5.426   7.491 -0.4600 -0.5696 -1.2655
   32CHL1   C10 2333   1.464   5.355   7.300  0.3859  0.4016  0.6677
   32CHL1   C19 2334   1.545   5.236   7.248  0.5080  0.1707 -0.0203
   32CHL1  H19A 2335   1.582   5.258   7.146  2.9229  3.1707  1.4082
   32CHL1  H19B 2336   1.637   5.220   7.309  0.1339 -0.0953  0.4759
   32CHL1  H19C 2337   1.485   5.143   7.242 -0.8786  1.0825 -0.3270
   32CHL1    C1 2338   1.314   5.344   7.260  0.2907  0.3138 -0.7461
   32CHL1   H1A 2339   1.279   5.248   7.304  1.2977 -0.0606 -0.7454
   32CHL1   H1B 2340   1.251   5.424   7.305 -1.1111 -0.9980 -0.3229
   32CHL1    C2 2341   1.285   5.363   7.103 -0.1378  0.2480 -0.2215
   32CHL1   H2A 2342   1.175   5.356   7.085  0.1289  0.0662 -1.8488
   32CHL1   H2B 2343   1.323   5.272   7.052  0.6543  0.0188  0.7717
   32CHL1   C20 2344   1.626   5.279   7.986 -0.3036  0.3419  0.3868
   32CHL1   H20 2345   1.732   5.247   7.978 -1.1321 -2.4464 -0.2969
   32CHL1   C21 2346   1.529   5.159   7.985  0.1949  0.3923 -0.0476
   32CHL1  H21A 2347   1.424   5.192   7.974 -0.2601 -0.8809  0.4205
   32CHL1  H21B 2348   1.528   5.113   8.086 -0.9202  0.2979 -0.0951
   32CHL1  H21C 2349   1.546   5.089   7.900 -0.6545  0.1653 -0.0257
   32CHL1   C22 2350   1.608   5.351   8.124  0.5165  0.3786  0.4518
   32CHL1  H22A 2351   1.669   5.444   8.122  0.8909  0.1286  0.2026
   32CHL1  H22B 2352   1.505   5.392   8.128  0.0437 -0.9128  2.2983
   32CHL1   C23 2353   1.639   5.268   8.246 -0.0711  0.2376 -0.4629
   32CHL1  H23A 2354   1.554   5.200   8.265  0.3099 -0.4683 -1.2582
   32CHL1  H23B 2355   1.725   5.211   8.205  0.4841 -0.2960  1.3740
   32CHL1   C24 2356   1.672   5.364   8.364  0.0068  0.1180 -0.8767
   32CHL1  H24A 2357   1.755   5.426   8.324  3.2031 -2.1648  1.9186
   32CHL1  H24B 2358   1.582   5.428   8.374 -0.8745 -1.5174  2.6452
   32CHL1   C25 2359   1.713   5.309   8.501 -0.1792 -0.1668  0.1621
   32CHL1   H25 2360   1.810   5.254   8.493  1.0699  1.3959  3.3050
   32CHL1   C26 2361   1.736   5.415   8.606  0.0552 -0.1415 -0.2896
   32CHL1  H26A 2362   1.827   5.477   8.587  0.9397 -1.3973 -0.1658
   32CHL1  H26B 2363   1.642   5.473   8.604 -0.5121 -1.0596 -0.1534
   32CHL1  H26C 2364   1.741   5.370   8.707 -0.5115  2.6609  1.0326
   32CHL1   C27 2365   1.601   5.214   8.543  0.1057 -0.1933  0.6122
   32CHL1  H27A 2366   1.600   5.125   8.478  0.3994 -0.8139  1.4411
   32CHL1  H27B 2367   1.617   5.191   8.651 -0.2568 -0.2168  0.6591
   32CHL1  H27C 2368   1.504   5.269   8.547 -0.1689 -0.7593  2.2281
   33CHL1    C3 2369   2.118   5.835   6.773  0.2397  0.3035  0.0202
   33CHL1    H3 2370   2.228   5.841   6.782  0.2120  0.7520  0.0433
   33CHL1    O3 2371   2.079   5.861   6.644 -0.3342  0.3538  0.0709
   33CHL1   H3' 2372   2.056   5.778   6.600  1.2924  0.1687 -0.4386
   33CHL1    C4 2373   2.075   5.691   6.814  0.2385  0.1527 -0.0752
   33CHL1   H4A 2374   1.968   5.679   6.786  0.7736 -1.8225 -1.4160
   33CHL1   H4B 2375   2.127   5.622   6.744 -0.3968  1.1346 -1.5662
   33CHL1    C5 2376   2.124   5.671   6.957  0.1337  1.1872  0.8225
   33CHL1    C6 2377   2.212   5.576   6.985 -0.3916  0.1524  0.0180
   33CHL1    H6 2378   2.246   5.505   6.909  1.7044  1.3242 -0.1676
   33CHL1    C7 2379   2.264   5.556   7.126  0.2377 -0.1731 -0.1104
   33CHL1   H7A 2380   2.289   5.453   7.158 -1.5295 -0.8790 -0.8981
   33CHL1   H7B 2381   2.363   5.604   7.134  0.0635 -0.2510  2.9633
   33CHL1    C8 2382   2.177   5.616   7.235  0.0718  0.0811 -0.4549
   33CHL1    H8 2383   2.086   5.553   7.235  1.1959 -1.6041 -1.4762
   33CHL1   C14 2384   2.243   5.617   7.367  0.1956 -0.2536  0.4830
   33CHL1   H14 2385   2.334   5.679   7.352  2.4629 -3.5323  0.2096
   33CHL1   C15 2386   2.301   5.485   7.423 -0.2600 -0.0540  0.6996
   33CHL1  H15A 2387   2.232   5.400   7.407 -1.6898  1.2829 -0.4315
   33CHL1  H15B 2388   2.392   5.458   7.366 -0.5799 -1.4779  0.8557
   33CHL1   C16 2389   2.320   5.510   7.578 -0.3584  0.1749  0.0843
   33CHL1  H16A 2390   2.263   5.437   7.640 -2.6284 -0.0333 -2.1351
   33CHL1  H16B 2391   2.428   5.499   7.604 -0.0871  0.7405 -0.7754
   33CHL1   C17 2392   2.275   5.658   7.603  0.2430  0.8070 -0.0831
   33CHL1   H17 2393   2.366   5.717   7.581  0.0155  0.7788 -1.1111
   33CHL1   C13 2394   2.173   5.687   7.486 -0.0861 -0.4183  0.4273
   33CHL1   C18 2395   2.043   5.608   7.524 -0.9636  0.4947  0.1992
   33CHL1  H18A 2396   1.983   5.589   7.432  1.6842  0.9711 -1.6800
   33CHL1  H18B 2397   2.075   5.510   7.566  0.5280 -0.2383 -2.5463
   33CHL1  H18C 2398   1.983   5.672   7.592 -0.5239 -0.1997  1.2429
   33CHL1   C12 2399   2.147   5.836   7.448  0.6816  0.2790 -0.1780
   33CHL1  H12A 2400   2.099   5.901   7.525 -2.3109 -1.0248 -0.8729
   33CHL1  H12B 2401   2.242   5.888   7.422  0.3956  0.9852  0.1692
   33CHL1   C11 2402   2.059   5.834   7.311 -0.2417  0.1490 -0.1673
   33CHL1  H11A 2403   1.957   5.793   7.329 -0.4419  0.4392 -0.6293
   33CHL1  H11B 2404   2.057   5.941   7.282  0.8655 -0.2885 -1.9321
   33CHL1    C9 2405   2.139   5.760   7.197 -0.0081 -0.7929  0.2052
   33CHL1    H9 2406   2.235   5.817   7.190  0.3604 -1.2399  1.5794
   33CHL1   C10 2407   2.065   5.770   7.056 -0.1972  0.2366  0.2093
   33CHL1   C19 2408   1.920   5.718   7.068  0.2242  0.6201  0.5254
   33CHL1  H19A 2409   1.863   5.781   7.139 -2.2065 -2.6639  1.5927
   33CHL1  H19B 2410   1.860   5.730   6.975 -0.4477 -1.3294  0.6897
   33CHL1  H19C 2411   1.904   5.613   7.098  0.6301  0.4278  0.0816
   33CHL1    C1 2412   2.071   5.922   7.006  0.1080 -0.5277 -0.4229
   33CHL1   H1A 2413   2.006   5.984   7.071  0.4838 -0.2849 -0.2755
   33CHL1   H1B 2414   2.177   5.950   7.022  0.1236 -1.3031  0.8492
   33CHL1    C2 2415   2.039   5.937   6.854 -0.1885  0.3843  0.6086
   33CHL1   H2A 2416   2.066   6.038   6.816  0.8166 -0.3230 -0.6209
   33CHL1   H2B 2417   1.930   5.924   6.842  0.0702 -0.7693 -0.5664
   33CHL1   C20 2418   2.220   5.681   7.741 -0.4362 -0.4628 -0.0763
   33CHL1   H20 2419   2.142   5.604   7.759  0.4482 -1.4606 -0.4428
   33CHL1   C21 2420   2.169   5.820   7.771  0.2509 -0.3284  0.1019
   33CHL1  H21A 2421   2.180   5.843   7.879  0.1701  0.6130 -0.0834
   33CHL1  H21B 2422   2.065   5.826   7.734  0.5867 -5.1689 -2.0520
   33CHL1  H21C 2423   2.229   5.901   7.724  1.4157 -1.4839 -0.4724
   33CHL1   C22 2424   2.324   5.643   7.849  0.4245  0.0813 -0.7376
   33CHL1  H22A 2425   2.275   5.655   7.948 -0.2006 -0.0432 -1.0282
   33CHL1  H22B 2426   2.347   5.538   7.824 -2.6068 -0.3619 -1.8759
   33CHL1   C23 2427   2.458   5.730   7.852  0.3772  0.1763 -0.2209
   33CHL1  H23A 2428   2.510   5.730   7.754 -0.4098  1.6474 -0.6572
   33CHL1  H23B 2429   2.443   5.837   7.878  0.8457 -0.2604  1.8914
   33CHL1   C24 2430   2.551   5.668   7.956 -0.2084 -0.0842  0.4204
   33CHL1  H24A 2431   2.491   5.659   8.049  0.7863  0.7765  1.1642
   33CHL1  H24B 2432   2.569   5.566   7.915 -1.0344 -0.6344  1.4101
   33CHL1   C25 2433   2.671   5.757   7.983  1.0389  0.0606  0.2494
   33CHL1   H25 2434   2.632   5.855   8.018 -1.6338 -1.6305  2.1680
   33CHL1   C26 2435   2.756   5.695   8.096  0.0290  0.1861 -0.7264
   33CHL1  H26A 2436   2.858   5.740   8.095  1.6710 -3.3420 -1.0799
   33CHL1  H26B 2437   2.713   5.711   8.197  0.5144 -1.4280 -0.2500
   33CHL1  H26C 2438   2.768   5.586   8.077  3.1926  0.1431  1.2623
   33CHL1   C27 2439   2.759   5.772   7.861 -0.3720 -0.3669 -0.0520
   33CHL1  H27A 2440   2.781   5.667   7.833  0.4407 -0.2512  0.1315
   33CHL1  H27B 2441   2.722   5.838   7.780 -0.2815  2.2915  2.0059
   33CHL1  H27C 2442   2.855   5.823   7.887 -2.1577  1.7456  2.7633
   34CHL1    C3 2443   3.050   4.349   7.049  0.6589  0.6490 -0.0438
   34CHL1    H3 2444   3.009   4.449   7.075 -0.8833 -0.0224  0.1642
   34CHL1    O3 2445   3.109   4.370   6.919 -0.5859  0.1899  0.1218
   34CHL1   H3' 2446   3.111   4.282   6.880 -1.3544  0.5533 -0.7541
   34CHL1    C4 2447   3.165   4.317   7.146  0.3696  0.4457  0.3228
   34CHL1   H4A 2448   3.230   4.232   7.114  0.8557  0.1821  1.9765
   34CHL1   H4B 2449   3.223   4.412   7.149 -0.4655  0.9785 -0.3636
   34CHL1    C5 2450   3.118   4.293   7.284  0.0206  0.7334 -0.1608
   34CHL1    C6 2451   3.177   4.363   7.385  0.3921 -0.0100 -0.3128
   34CHL1    H6 2452   3.250   4.443   7.369  0.8876  0.1402  2.4928
   34CHL1    C7 2453   3.150   4.324   7.531 -0.4240  0.0427  0.8018
   34CHL1   H7A 2454   3.250   4.304   7.574  0.8178  2.4153 -0.8232
   34CHL1   H7B 2455   3.113   4.409   7.591  0.0723  2.0743 -1.6668
   34CHL1    C8 2456   3.062   4.193   7.552 -0.4708  0.3972  0.3425
   34CHL1    H8 2457   3.129   4.104   7.540 -1.0523  0.3911 -3.4524
   34CHL1   C14 2458   3.008   4.204   7.688  0.9476  0.3385  0.8324
   34CHL1   H14 2459   2.946   4.296   7.684 -0.9461 -0.8760  1.3205
   34CHL1   C15 2460   3.091   4.233   7.813 -0.1776 -0.1941 -0.1383
   34CHL1  H15A 2461   3.182   4.168   7.816  0.9323  1.3085 -0.5114
   34CHL1  H15B 2462   3.126   4.338   7.810 -0.4158 -0.1051  0.1413
   34CHL1   C16 2463   3.000   4.192   7.934 -0.5191 -0.4337 -0.0480
   34CHL1  H16A 2464   3.050   4.108   7.986  0.2480 -1.0929 -1.8055
   34CHL1  H16B 2465   2.986   4.280   8.000  2.5913  0.4759 -0.5554
   34CHL1   C17 2466   2.865   4.142   7.869 -0.3888  0.0291  0.0564
   34CHL1   H17 2467   2.787   4.221   7.861  0.6806  1.0320 -0.6817
   34CHL1   C13 2468   2.908   4.095   7.729  0.4457 -0.7074  0.0559
   34CHL1   C18 2469   2.982   3.962   7.741 -0.1771 -0.0487  0.8539
   34CHL1  H18A 2470   3.029   3.928   7.646 -4.9260 -3.1253 -0.5652
   34CHL1  H18B 2471   3.054   3.959   7.826 -1.4334 -1.4728  1.8789
   34CHL1  H18C 2472   2.908   3.886   7.771  0.6306 -1.3374 -0.3649
   34CHL1   C12 2473   2.795   4.073   7.617  0.1457  0.0035  0.8092
   34CHL1  H12A 2474   2.736   3.981   7.640  2.5390 -1.4082  1.5181
   34CHL1  H12B 2475   2.725   4.159   7.620  1.2186  1.0006 -1.6275
   34CHL1   C11 2476   2.852   4.061   7.475 -0.3456 -0.1178  0.3103
   34CHL1  H11A 2477   2.897   3.960   7.474 -1.3299 -0.5841  1.2602
   34CHL1  H11B 2478   2.774   4.061   7.396  1.0958 -0.2040 -1.1470
   34CHL1    C9 2479   2.957   4.176   7.447 -0.2070 -0.2042 -0.5157
   34CHL1    H9 2480   2.887   4.261   7.456  1.0840  1.1352 -2.8333
   34CHL1   C10 2481   3.019   4.179   7.305 -0.1651  0.6462  1.0512
   34CHL1   C19 2482   3.077   4.045   7.283 -0.7858  0.3694 -0.4212
   34CHL1  H19A 2483   3.151   4.015   7.360 -0.0419 -1.0014 -1.6309
   34CHL1  H19B 2484   2.998   3.967   7.275 -1.7016  1.1989  0.5643
   34CHL1  H19C 2485   3.128   4.043   7.184 -2.0106 -1.9927 -1.0494
   34CHL1    C1 2486   2.911   4.216   7.192  0.0004 -0.1795  1.0306
   34CHL1   H1A 2487   2.845   4.128   7.177  1.2202 -0.9785  0.3264
   34CHL1   H1B 2488   2.848   4.304   7.218  1.2577  0.8036  0.7861
   34CHL1    C2 2489   2.954   4.231   7.051  0.4431 -0.3049  1.1231
   34CHL1   H2A 2490   2.869   4.252   6.983  0.9994  0.1682  0.5558
   34CHL1   H2B 2491   3.001   4.136   7.016 -0.3788 -0.4237  0.3021
   34CHL1   C20 2492   2.789   4.041   7.960 -0.2999 -0.1219 -0.4942
   34CHL1   H20 2493   2.851   3.949   7.964  2.3985  1.7035  0.8413
   34CHL1   C21 2494   2.648   4.009   7.902  0.0186  0.7207 -0.4140
   34CHL1  H21A 2495   2.654   3.912   7.849 -1.7634 -0.5327  1.6198
   34CHL1  H21B 2496   2.631   4.088   7.826  0.2652  2.3167  1.1607
   34CHL1  H21C 2497   2.579   3.999   7.988 -0.2454 -0.0745 -0.7175
   34CHL1   C22 2498   2.776   4.092   8.109  0.4459 -0.0209  1.0992
   34CHL1  H22A 2499   2.876   4.105   8.156  0.9864  1.3639 -0.3822
   34CHL1  H22B 2500   2.730   4.193   8.103 -0.3382 -0.5317 -2.6253
   34CHL1   C23 2501   2.699   3.998   8.210 -0.2090 -0.4241  0.9547
   34CHL1  H23A 2502   2.592   3.981   8.184  0.4777 -2.0865 -0.9489
   34CHL1  H23B 2503   2.744   3.898   8.192  0.0660  0.2653 -2.4729
   34CHL1   C24 2504   2.716   4.063   8.345  0.3365 -0.4711 -0.5698
   34CHL1  H24A 2505   2.824   4.049   8.366  0.5901  3.1184  0.8604
   34CHL1  H24B 2506   2.691   4.171   8.347 -1.6308 -0.8747 -2.1428
   34CHL1   C25 2507   2.623   3.999   8.460 -0.4746 -0.1222  0.5270
   34CHL1   H25 2508   2.517   4.017   8.432  0.1160  3.3553  0.2720
   34CHL1   C26 2509   2.643   3.847   8.470  0.4706 -0.0327  0.2387
   34CHL1  H26A 2510   2.633   3.792   8.374 -0.4859 -2.8220  1.8762
   34CHL1  H26B 2511   2.742   3.821   8.512  1.4979  0.4568 -1.8321
   34CHL1  H26C 2512   2.569   3.794   8.534 -0.8823  1.1055 -0.3633
   34CHL1   C27 2513   2.640   4.062   8.603 -0.0412 -0.5306 -0.2976
   34CHL1  H27A 2514   2.564   4.003   8.658 -1.3229  1.3521  0.0000
   34CHL1  H27B 2515   2.744   4.061   8.642 -0.1466  1.1370  0.1031
   34CHL1  H27C 2516   2.611   4.169   8.599  2.5758  0.2686  0.6108
   35CHL1    C3 2517   6.317   5.037   7.160 -0.4261  0.1905 -0.8260
   35CHL1    H3 2518   6.316   5.122   7.232  1.9465  1.5392 -2.3277
   35CHL1    O3 2519   6.265   5.078   7.034  0.1418 -0.3105 -0.1534
   35CHL1   H3' 2520   6.225   5.001   6.995  2.2451 -1.6502  0.2435
   35CHL1    C4 2521   6.464   5.002   7.136 -0.0487  0.2203 -0.0436
   35CHL1   H4A 2522   6.490   4.944   7.045  0.6416  0.0490  0.2560
   35CHL1   H4B 2523   6.521   5.096   7.118  0.3254  0.3841  1.9225
   35CHL1    C5 2524   6.524   4.931   7.257  0.3178 -0.5466 -0.0217
   35CHL1    C6 2525   6.640   4.979   7.298 -0.0672  0.6001 -0.3506
   35CHL1    H6 2526   6.694   5.055   7.240  1.1636  0.5906  0.7443
   35CHL1    C7 2527   6.713   4.922   7.421  0.7780 -0.5971 -0.6721
   35CHL1   H7A 2528   6.810   4.881   7.385  0.3194 -0.8729 -1.5897
   35CHL1   H7B 2529   6.726   4.998   7.501  1.5889  0.5506 -1.8920
   35CHL1    C8 2530   6.644   4.792   7.482  0.0715  0.4367 -0.0372
   35CHL1    H8 2531   6.695   4.706   7.433  0.8929 -1.1485  3.4295
   35CHL1   C14 2532   6.680   4.781   7.635  0.3297  0.4445  1.8272
   35CHL1   H14 2533   6.629   4.869   7.680 -2.4397 -1.3100  2.2557
   35CHL1   C15 2534   6.832   4.774   7.675  0.0435 -0.0603 -0.0278
   35CHL1  H15A 2535   6.875   4.701   7.604  0.6224 -0.1964  0.4538
   35CHL1  H15B 2536   6.890   4.869   7.667 -2.3228  1.4187 -0.2996
   35CHL1   C16 2537   6.828   4.712   7.818  0.2497 -0.2147 -0.7649
   35CHL1  H16A 2538   6.883   4.616   7.822  0.4367 -0.0651  0.4451
   35CHL1  H16B 2539   6.878   4.776   7.892 -1.6304  1.1865 -0.6676
   35CHL1   C17 2540   6.674   4.685   7.844  0.6401 -0.5993 -0.1580
   35CHL1   H17 2541   6.639   4.783   7.883  3.5133 -0.3593  2.0567
   35CHL1   C13 2542   6.610   4.664   7.708  1.1679  0.1374 -0.1285
   35CHL1   C18 2543   6.651   4.528   7.648 -0.0398  0.0176  0.7818
   35CHL1  H18A 2544   6.627   4.533   7.539 -1.0394  0.2520  1.0147
   35CHL1  H18B 2545   6.754   4.488   7.663 -0.2531 -1.0521 -0.4911
   35CHL1  H18C 2546   6.592   4.443   7.689 -1.0835 -0.5896 -1.8728
   35CHL1   C12 2547   6.455   4.685   7.695 -0.4132  0.9243 -0.0665
   35CHL1  H12A 2548   6.399   4.615   7.761  1.4231  0.0235  0.5776
   35CHL1  H12B 2549   6.435   4.785   7.739  1.3213  2.2894 -2.2779
   35CHL1   C11 2550   6.419   4.689   7.547 -0.6152  0.1553  0.4813
   35CHL1  H11A 2551   6.429   4.592   7.494  4.5318  0.1019  1.3588
   35CHL1  H11B 2552   6.308   4.703   7.546 -0.6393  0.0138 -1.5689
   35CHL1    C9 2553   6.487   4.809   7.470 -0.3676 -0.3353  0.0924
   35CHL1    H9 2554   6.450   4.898   7.524  2.4774  0.2595  1.0980
   35CHL1   C10 2555   6.442   4.823   7.327 -0.5212  0.2219  0.9520
   35CHL1   C19 2556   6.463   4.694   7.247 -0.0379  0.3686 -0.0695
   35CHL1  H19A 2557   6.426   4.606   7.304 -1.0368 -0.6917 -2.3094
   35CHL1  H19B 2558   6.399   4.709   7.158  1.8995  1.2791 -1.3333
   35CHL1  H19C 2559   6.570   4.674   7.225 -0.5317 -1.7602 -0.6000
   35CHL1    C1 2560   6.293   4.852   7.326 -0.8608  0.4020  0.7421
   35CHL1   H1A 2561   6.238   4.758   7.345 -1.9871  0.5875 -1.4919
   35CHL1   H1B 2562   6.262   4.917   7.411 -0.5807 -0.8012  1.7875
   35CHL1    C2 2563   6.243   4.911   7.198  0.3941  0.1956  0.4282
   35CHL1   H2A 2564   6.139   4.948   7.210 -0.4229 -1.6204 -0.8407
   35CHL1   H2B 2565   6.250   4.832   7.121  1.0551  1.3231 -0.6738
   35CHL1   C20 2566   6.662   4.582   7.955  0.2699 -0.5411  0.0215
   35CHL1   H20 2567   6.710   4.487   7.923  0.3784  0.1119 -1.7844
   35CHL1   C21 2568   6.513   4.549   7.975  0.1161 -0.2140 -0.4611
   35CHL1  H21A 2569   6.456   4.644   7.979 -0.7990 -0.7937  0.7441
   35CHL1  H21B 2570   6.497   4.487   8.067  0.2800 -0.4966 -0.6202
   35CHL1  H21C 2571   6.480   4.489   7.887 -1.0142  2.7735 -2.1272
   35CHL1   C22 2572   6.728   4.625   8.089 -0.0826  0.1392  0.3966
   35CHL1  H22A 2573   6.715   4.533   8.151 -0.4604  0.7987  1.3063
   35CHL1  H22B 2574   6.838   4.632   8.079 -0.0583  1.1429  1.3284
   35CHL1   C23 2575   6.676   4.746   8.159 -0.1068  0.2405 -0.7248
   35CHL1  H23A 2576   6.639   4.816   8.082  0.2680  1.4929  0.2250
   35CHL1  H23B 2577   6.591   4.726   8.228  1.2816 -1.4199  0.5530
   35CHL1   C24 2578   6.789   4.827   8.241 -0.3149 -0.9224  0.3055
   35CHL1  H24A 2579   6.877   4.822   8.174 -1.4803  3.1992 -1.6886
   35CHL1  H24B 2580   6.764   4.935   8.252  4.6378  0.0906  3.4301
   35CHL1   C25 2581   6.809   4.773   8.387 -0.3534  0.8478  0.2415
   35CHL1   H25 2582   6.798   4.663   8.374 -1.6363  0.9840  0.1723
   35CHL1   C26 2583   6.950   4.793   8.437 -0.1890  0.4046  0.8532
   35CHL1  H26A 2584   6.981   4.747   8.533 -0.4368 -0.7003  0.4090
   35CHL1  H26B 2585   7.009   4.752   8.353 -0.7281  2.2211 -0.4383
   35CHL1  H26C 2586   6.964   4.902   8.453 -1.4821  0.6516  0.3342
   35CHL1   C27 2587   6.698   4.833   8.484 -0.7734 -0.4066  0.6713
   35CHL1  H27A 2588   6.724   4.941   8.493  2.8729 -0.9985 -1.5123
   35CHL1  H27B 2589   6.719   4.785   8.582  2.4464  0.5291  0.5172
   35CHL1  H27C 2590   6.592   4.818   8.454  0.4212 -2.3442 -2.9155
   36CHL1    C3 2591   0.415   4.312   7.154  0.1714 -0.2225  0.6981
   36CHL1    H3 2592   0.510   4.258   7.134 -0.5704 -0.8974 -1.1016
   36CHL1    O3 2593   0.352   4.317   7.029  0.2601  0.3262 -0.1471
   36CHL1   H3' 2594   0.327   4.226   7.011  1.1594  0.0013  0.2181
   36CHL1    C4 2595   0.328   4.218   7.244 -0.0436 -0.3187  0.2671
   36CHL1   H4A 2596   0.224   4.256   7.234 -0.4310 -0.9740  1.7148
   36CHL1   H4B 2597   0.342   4.120   7.194 -0.1922 -0.7253  1.0273
   36CHL1    C5 2598   0.349   4.211   7.399 -0.2963 -0.3631  0.3952
   36CHL1    C6 2599   0.370   4.089   7.459 -0.5149 -1.2080  0.5947
   36CHL1    H6 2600   0.367   3.997   7.399 -0.5950 -0.9554  0.2172
   36CHL1    C7 2601   0.393   4.086   7.609  0.2225  0.1247 -0.5358
   36CHL1   H7A 2602   0.336   4.006   7.660  0.2166 -0.1854 -1.0261
   36CHL1   H7B 2603   0.500   4.058   7.620 -0.0217 -1.2739 -1.5732
   36CHL1    C8 2604   0.374   4.221   7.683  0.2913  0.6971  0.2394
   36CHL1    H8 2605   0.265   4.237   7.698 -0.0804 -0.7979 -0.7512
   36CHL1   C14 2606   0.438   4.229   7.820 -0.0021  0.1321  0.1490
   36CHL1   H14 2607   0.546   4.215   7.798 -0.4946  0.1052 -2.4376
   36CHL1   C15 2608   0.394   4.109   7.908 -0.2183 -0.6176  0.5795
   36CHL1  H15A 2609   0.285   4.104   7.887  0.1811 -0.7056 -1.5800
   36CHL1  H15B 2610   0.456   4.022   7.877 -1.5376 -1.7941  1.2176
   36CHL1   C16 2611   0.423   4.169   8.050  0.3218  0.1183  0.1241
   36CHL1  H16A 2612   0.330   4.160   8.110  0.5294 -0.9117  0.3152
   36CHL1  H16B 2613   0.498   4.111   8.109  0.7731  1.0565  0.4745
   36CHL1   C17 2614   0.477   4.320   8.030  0.5236 -0.0123 -0.7774
   36CHL1   H17 2615   0.587   4.317   8.020  0.8561 -0.9145  2.3739
   36CHL1   C13 2616   0.418   4.362   7.898  0.1638  0.4411 -0.3325
   36CHL1   C18 2617   0.265   4.380   7.919 -0.4362 -0.4472 -0.0466
   36CHL1  H18A 2618   0.252   4.473   7.977  1.0858 -0.2445 -0.0089
   36CHL1  H18B 2619   0.221   4.403   7.819 -1.7928  1.3838  0.9588
   36CHL1  H18C 2620   0.207   4.301   7.971 -0.7472  1.2225  2.1789
   36CHL1   C12 2621   0.475   4.478   7.817  0.2799  0.6730  0.3819
   36CHL1  H12A 2622   0.437   4.568   7.871 -1.0518  0.0398  0.5252
   36CHL1  H12B 2623   0.586   4.472   7.819  0.1443 -1.4408  3.3215
   36CHL1   C11 2624   0.428   4.479   7.674  0.3684 -0.5211 -0.2433
   36CHL1  H11A 2625   0.326   4.522   7.670  0.1946 -0.8503  0.4852
   36CHL1  H11B 2626   0.488   4.557   7.623  0.0621  0.1286  0.3760
   36CHL1    C9 2627   0.426   4.343   7.597  0.5383  0.1135  0.5902
   36CHL1    H9 2628   0.531   4.313   7.574  1.3654  2.7275  0.7701
   36CHL1   C10 2629   0.369   4.349   7.455 -0.7863  0.4652  0.2352
   36CHL1   C19 2630   0.229   4.416   7.457  0.7246 -0.6223 -0.0040
   36CHL1  H19A 2631   0.231   4.521   7.492 -0.6923 -1.2510  2.0584
   36CHL1  H19B 2632   0.189   4.421   7.353  1.8111  0.7043 -0.3726
   36CHL1  H19C 2633   0.162   4.358   7.524 -1.6326  2.7975  0.7633
   36CHL1    C1 2634   0.465   4.432   7.366 -0.4681  0.2578 -1.0226
   36CHL1   H1A 2635   0.461   4.536   7.407 -1.0292 -0.9403  2.0894
   36CHL1   H1B 2636   0.569   4.401   7.387 -0.2807  1.1224 -0.6496
   36CHL1    C2 2637   0.427   4.448   7.218  0.0712 -0.9965 -0.2565
   36CHL1   H2A 2638   0.502   4.511   7.166 -1.2189  0.6031 -0.2609
   36CHL1   H2B 2639   0.329   4.501   7.209 -0.7717 -2.3160  0.9650
   36CHL1   C20 2640   0.454   4.399   8.157  0.4629 -0.4809  0.1183
   36CHL1   H20 2641   0.346   4.411   8.182  0.6106  0.1598  0.4454
   36CHL1   C21 2642   0.530   4.533   8.145  0.2655 -0.2660 -0.2737
   36CHL1  H21A 2643   0.491   4.596   8.062 -3.9544 -1.5039  0.6468
   36CHL1  H21B 2644   0.632   4.501   8.116 -0.4819 -1.7479 -1.3306
   36CHL1  H21C 2645   0.534   4.594   8.238  0.5573  0.6854 -0.9065
   36CHL1   C22 2646   0.502   4.326   8.287 -0.0465  0.2332  0.5294
   36CHL1  H22A 2647   0.439   4.236   8.302  0.8265 -0.2950  1.1159
   36CHL1  H22B 2648   0.599   4.271   8.277  0.0942  0.8035 -1.4146
   36CHL1   C23 2649   0.488   4.400   8.419  0.3114 -0.2562  0.3972
   36CHL1  H23A 2650   0.561   4.484   8.423 -1.9334  1.7954 -0.4999
   36CHL1  H23B 2651   0.393   4.455   8.406  1.1204  0.9972 -0.3471
   36CHL1   C24 2652   0.502   4.309   8.538  0.5512 -0.1090 -0.3583
   36CHL1  H24A 2653   0.439   4.219   8.521  0.4823 -0.1944  0.3444
   36CHL1  H24B 2654   0.606   4.270   8.539  1.0626  1.2243 -0.5872
   36CHL1   C25 2655   0.474   4.371   8.677 -0.3184 -0.3525 -0.1297
   36CHL1   H25 2656   0.545   4.454   8.694  0.3433 -1.0982  0.8244
   36CHL1   C26 2657   0.339   4.438   8.689 -0.1215 -0.4084  0.0938
   36CHL1  H26A 2658   0.332   4.527   8.755  2.1301 -0.2554  0.1716
   36CHL1  H26B 2659   0.299   4.470   8.590 -1.8099 -1.4290  0.4188
   36CHL1  H26C 2660   0.261   4.367   8.723  0.2553 -1.6420 -1.5141
   36CHL1   C27 2661   0.501   4.276   8.795 -0.2237 -0.1231  0.8588
   36CHL1  H27A 2662   0.500   4.331   8.891 -3.0751  0.8566  0.2877
   36CHL1  H27B 2663   0.425   4.195   8.794  0.1749 -0.4968 -0.3015
   36CHL1  H27C 2664   0.602   4.232   8.780  0.6443  1.2926  2.4041
   37CHL1    C3 2665   4.031   0.314   6.859  0.2469  0.5003 -0.7852
   37CHL1    H3 2666   4.021   0.218   6.914  1.5196  0.0137 -1.3662
   37CHL1    O3 2667   4.025   0.296   6.721 -0.4578  0.2662  0.2574
   37CHL1   H3' 2668   3.950   0.347   6.689 -1.7916 -2.2065 -0.7701
   37CHL1    C4 2669   3.911   0.408   6.899  0.5811 -1.3330 -0.6673
   37CHL1   H4A 2670   3.925   0.503   6.843 -0.4585 -1.4968 -1.2142
   37CHL1   H4B 2671   3.813   0.371   6.860  0.3988 -2.7804  1.1057
   37CHL1    C5 2672   3.905   0.427   7.049  0.5018 -0.3891  0.2068
   37CHL1    C6 2673   3.803   0.387   7.126 -0.0473  0.7471 -0.1804
   37CHL1    H6 2674   3.713   0.344   7.080  0.2209 -1.5620  1.3247
   37CHL1    C7 2675   3.793   0.409   7.278  0.8346 -0.7892 -0.1567
   37CHL1   H7A 2676   3.687   0.438   7.295  0.9727 -0.1746 -0.3368
   37CHL1   H7B 2677   3.832   0.313   7.321  3.5330  0.5022  0.4045
   37CHL1    C8 2678   3.891   0.515   7.320 -0.2813  0.3271  0.7926
   37CHL1    H8 2679   3.853   0.611   7.278  1.4453  1.0122  0.7603
   37CHL1   C14 2680   3.894   0.522   7.474 -0.3368 -0.3141 -0.1301
   37CHL1   H14 2681   3.941   0.424   7.498  1.0978  0.3009 -0.3504
   37CHL1   C15 2682   3.759   0.537   7.545 -0.3410  0.7581  0.3128
   37CHL1  H15A 2683   3.693   0.616   7.502 -0.6539 -0.0429 -0.6910
   37CHL1  H15B 2684   3.709   0.438   7.536  0.6114  0.2673  0.4049
   37CHL1   C16 2685   3.800   0.565   7.685 -0.5580 -0.4174  0.4550
   37CHL1  H16A 2686   3.750   0.657   7.721  0.1297 -1.0195  3.0885
   37CHL1  H16B 2687   3.783   0.477   7.751 -0.3674 -0.5605  0.3109
   37CHL1   C17 2688   3.955   0.591   7.684  0.4874  0.5696 -0.4038
   37CHL1   H17 2689   4.015   0.502   7.711 -1.1789 -0.4523 -0.0032
   37CHL1   C13 2690   3.993   0.615   7.537  0.9843 -0.0104  0.1534
   37CHL1   C18 2691   3.942   0.764   7.508 -0.5755  0.0608 -0.5892
   37CHL1  H18A 2692   3.852   0.788   7.568 -0.3479  0.2488 -0.3198
   37CHL1  H18B 2693   4.021   0.832   7.547 -0.1531 -0.9303  0.2895
   37CHL1  H18C 2694   3.936   0.783   7.398  0.5686  0.3728 -0.6136
   37CHL1   C12 2695   4.130   0.578   7.491  0.7011  0.2162 -1.1933
   37CHL1  H12A 2696   4.207   0.649   7.529  1.3605 -1.2457  0.2421
   37CHL1  H12B 2697   4.152   0.475   7.526  3.8318  0.8273 -1.2521
   37CHL1   C11 2698   4.139   0.568   7.333  0.0433 -0.0556 -0.3920
   37CHL1  H11A 2699   4.132   0.671   7.291  0.4785  0.2946  0.3622
   37CHL1  H11B 2700   4.242   0.531   7.311  0.5144 -0.0503  1.6281
   37CHL1    C9 2701   4.030   0.486   7.261  0.4121  0.1020 -0.5684
   37CHL1    H9 2702   4.050   0.385   7.301 -2.0918  0.1559  0.9439
   37CHL1   C10 2703   4.028   0.488   7.105 -0.2746 -0.7153 -0.5109
   37CHL1   C19 2704   4.027   0.637   7.047 -0.0759 -0.3086  0.0416
   37CHL1  H19A 2705   4.107   0.698   7.092  0.7534 -1.7090  0.5072
   37CHL1  H19B 2706   4.044   0.641   6.937 -2.9516 -1.4219 -0.4948
   37CHL1  H19C 2707   3.930   0.684   7.074  1.1699  2.9172 -0.9324
   37CHL1    C1 2708   4.157   0.413   7.048  0.1708  0.0915 -0.4791
   37CHL1   H1A 2709   4.251   0.465   7.079  0.9758 -0.9907 -1.0671
   37CHL1   H1B 2710   4.144   0.310   7.088  2.1157 -1.0823 -2.7268
   37CHL1    C2 2711   4.160   0.384   6.899 -0.0009  0.1844 -0.3731
   37CHL1   H2A 2712   4.247   0.318   6.878  1.1542  1.3061  0.7584
   37CHL1   H2B 2713   4.168   0.481   6.845 -1.1739  1.6068  1.8948
   37CHL1   C20 2714   4.003   0.692   7.788 -0.4755  0.0957 -0.1818
   37CHL1   H20 2715   3.962   0.793   7.768 -1.0316 -0.1069 -0.0605
   37CHL1   C21 2716   4.157   0.702   7.778 -0.1525 -0.5423 -0.3330
   37CHL1  H21A 2717   4.188   0.774   7.699 -1.0571  1.6703  1.2928
   37CHL1  H21B 2718   4.202   0.602   7.757  1.0893 -0.5564  2.1621
   37CHL1  H21C 2719   4.209   0.744   7.866 -1.1219 -1.2711  0.5943
   37CHL1   C22 2720   3.958   0.659   7.928  0.2730  0.0965 -0.1202
   37CHL1  H22A 2721   3.853   0.623   7.934  0.2192  0.2465 -0.1515
   37CHL1  H22B 2722   4.014   0.566   7.954 -3.0388 -1.7157  0.8159
   37CHL1   C23 2723   3.970   0.773   8.040 -0.2222  0.3801  0.8680
   37CHL1  H23A 2724   4.076   0.799   8.057 -0.0616  0.5333 -0.3587
   37CHL1  H23B 2725   3.923   0.866   8.003 -1.3154 -0.2014  0.7511
   37CHL1   C24 2726   3.906   0.725   8.169  0.2127  0.4368  0.4337
   37CHL1  H24A 2727   3.798   0.701   8.154  1.0094 -2.3918 -1.2895
   37CHL1  H24B 2728   3.956   0.629   8.195  1.6386  0.3816 -2.3605
   37CHL1   C25 2729   3.905   0.819   8.288 -0.3520  0.6849 -0.1275
   37CHL1   H25 2730   3.846   0.906   8.252  0.2168  0.9166 -0.5080
   37CHL1   C26 2731   3.850   0.761   8.416 -0.4805 -0.1253  0.2441
   37CHL1  H26A 2732   3.743   0.736   8.397 -0.0554 -1.0143 -1.0795
   37CHL1  H26B 2733   3.914   0.679   8.453 -1.1472 -1.0145 -0.5273
   37CHL1  H26C 2734   3.842   0.849   8.483 -3.1862  0.1315 -0.3367
   37CHL1   C27 2735   4.051   0.877   8.313 -0.1170  0.4718 -0.0914
   37CHL1  H27A 2736   4.100   0.925   8.226 -0.2047 -0.2156 -0.5308
   37CHL1  H27B 2737   4.038   0.953   8.393  0.9235  1.5173 -0.8977
   37CHL1  H27C 2738   4.117   0.791   8.340 -1.4083 -0.3217  0.5989
   38CHL1    C3 2739   0.664   0.795   6.713  0.6452  0.1339 -0.2928
   38CHL1    H3 2740   0.705   0.897   6.731  1.5626 -0.6027  1.8603
   38CHL1    O3 2741   0.668   0.771   6.575  0.3299 -0.4167  0.4613
   38CHL1   H3' 2742   0.614   0.692   6.565  1.8181 -1.2556 -1.1264
   38CHL1    C4 2743   0.751   0.697   6.787 -0.0955  0.2071 -0.1068
   38CHL1   H4A 2744   0.719   0.591   6.775 -3.1273  0.9155  1.2941
   38CHL1   H4B 2745   0.850   0.702   6.738  0.2628  0.7419  0.6607
   38CHL1    C5 2746   0.745   0.715   6.934 -0.0020  0.6661 -0.6444
   38CHL1    C6 2747   0.858   0.733   7.009  0.0784 -0.1441  0.0291
   38CHL1    H6 2748   0.959   0.737   6.964  1.6971  1.4153  3.5566
   38CHL1    C7 2749   0.852   0.756   7.160 -0.2210 -0.2539  1.1227
   38CHL1   H7A 2750   0.933   0.692   7.200  0.0176 -0.0050  1.0448
   38CHL1   H7B 2751   0.886   0.859   7.186 -0.3209  0.0414  0.0918
   38CHL1    C8 2752   0.719   0.706   7.222 -0.0549 -0.4296  0.1918
   38CHL1    H8 2753   0.715   0.595   7.215 -0.2485 -0.3916 -0.4079
   38CHL1   C14 2754   0.728   0.753   7.368 -0.0253 -0.2094  0.1376
   38CHL1   H14 2755   0.731   0.864   7.365  1.0984 -0.2727 -1.3881
   38CHL1   C15 2756   0.845   0.716   7.461 -0.5513 -0.4266  0.1143
   38CHL1  H15A 2757   0.877   0.610   7.449 -1.6455 -0.6933 -0.5079
   38CHL1  H15B 2758   0.933   0.781   7.443 -0.9205  0.8345  2.6293
   38CHL1   C16 2759   0.789   0.751   7.596  0.4547 -0.5949 -0.3913
   38CHL1  H16A 2760   0.806   0.671   7.671 -2.1125 -0.7326  0.1008
   38CHL1  H16B 2761   0.840   0.845   7.625 -0.1194 -0.8595  1.5693
   38CHL1   C17 2762   0.634   0.776   7.588  0.3602  0.2033 -1.3086
   38CHL1   H17 2763   0.611   0.884   7.579 -0.8132  0.1736  0.9908
   38CHL1   C13 2764   0.594   0.724   7.442  0.2950 -0.5908 -0.1641
   38CHL1   C18 2765   0.574   0.572   7.460  0.1044  0.1734  0.1185
   38CHL1  H18A 2766   0.470   0.547   7.491  0.9266 -3.0291  0.4695
   38CHL1  H18B 2767   0.575   0.521   7.362 -1.4586 -0.6510  0.5093
   38CHL1  H18C 2768   0.644   0.515   7.525 -0.6327  2.0805  2.6955
   38CHL1   C12 2769   0.478   0.791   7.368  0.9823 -0.1036 -0.7861
   38CHL1  H12A 2770   0.380   0.754   7.407  0.3677 -0.5682 -2.6803
   38CHL1  H12B 2771   0.490   0.901   7.377 -0.5792  0.1634 -1.7437
   38CHL1   C11 2772   0.473   0.755   7.220  0.1396 -0.0367 -0.1289
   38CHL1  H11A 2773   0.442   0.648   7.229 -0.6010  0.0757 -1.2474
   38CHL1  H11B 2774   0.402   0.827   7.174 -0.2990  0.3412  1.1051
   38CHL1    C9 2775   0.601   0.776   7.145 -0.3341  1.2137  0.2332
   38CHL1    H9 2776   0.629   0.883   7.147 -1.7114  1.5860 -0.1095
   38CHL1   C10 2777   0.604   0.734   6.996  0.3787 -0.2306  0.5285
   38CHL1   C19 2778   0.531   0.597   6.999  0.1151 -0.8516  0.4545
   38CHL1  H19A 2779   0.569   0.535   7.082 -2.3414 -0.4769  1.9114
   38CHL1  H19B 2780   0.422   0.616   7.016 -0.3680 -0.3799 -2.8127
   38CHL1  H19C 2781   0.549   0.546   6.902  1.7738 -1.1515  0.9104
   38CHL1    C1 2782   0.513   0.828   6.913 -0.2527  0.1532 -0.2494
   38CHL1   H1A 2783   0.410   0.823   6.954 -0.4964  2.6170 -0.4400
   38CHL1   H1B 2784   0.536   0.934   6.939 -0.3421 -0.3701  1.9984
   38CHL1    C2 2785   0.517   0.801   6.760  0.9846  0.7650  0.8897
   38CHL1   H2A 2786   0.454   0.874   6.705  0.9325 -1.2925 -1.9344
   38CHL1   H2B 2787   0.470   0.702   6.736 -0.5224  2.0252 -1.5852
   38CHL1   C20 2788   0.552   0.731   7.713 -1.0352  0.0462 -0.2904
   38CHL1   H20 2789   0.556   0.620   7.713  3.3408  0.0692  2.0679
   38CHL1   C21 2790   0.409   0.778   7.714  0.1472  0.4019  0.1702
   38CHL1  H21A 2791   0.371   0.746   7.614 -1.7435  0.4804  0.8402
   38CHL1  H21B 2792   0.397   0.888   7.715 -1.3077  0.3156 -2.6435
   38CHL1  H21C 2793   0.358   0.730   7.801  1.7121 -1.7227 -0.0393
   38CHL1   C22 2794   0.616   0.782   7.840  0.5920 -0.3353  0.0716
   38CHL1  H22A 2795   0.717   0.739   7.861  0.8398 -0.5113 -1.4421
   38CHL1  H22B 2796   0.631   0.892   7.834 -0.4838 -0.3397 -3.8749
   38CHL1   C23 2797   0.552   0.745   7.974 -0.3885  1.0592 -0.0363
   38CHL1  H23A 2798   0.454   0.797   7.984 -0.4236  1.0817 -0.4669
   38CHL1  H23B 2799   0.543   0.634   7.968 -0.4033  1.0671 -0.1829
   38CHL1   C24 2800   0.638   0.766   8.096  0.0105  0.3661 -0.5832
   38CHL1  H24A 2801   0.727   0.699   8.092  0.7266  1.3302 -1.1870
   38CHL1  H24B 2802   0.688   0.866   8.096  0.1434  0.2982 -0.2209
   38CHL1   C25 2803   0.564   0.736   8.228  0.4770  0.2675 -0.5814
   38CHL1   H25 2804   0.511   0.639   8.210 -1.8522  1.4656 -0.4451
   38CHL1   C26 2805   0.654   0.701   8.346 -0.6436 -0.2701  0.1540
   38CHL1  H26A 2806   0.701   0.793   8.387 -1.9088  0.7678 -0.6883
   38CHL1  H26B 2807   0.588   0.665   8.428 -1.4628 -0.4458 -0.5671
   38CHL1  H26C 2808   0.733   0.626   8.324 -0.1399  0.2633  0.1253
   38CHL1   C27 2809   0.461   0.841   8.265 -0.5153  0.2987  0.5110
   38CHL1  H27A 2810   0.387   0.871   8.187 -0.9037 -1.9896 -0.0419
   38CHL1  H27B 2811   0.404   0.807   8.354 -2.1980 -1.3905 -1.1876
   38CHL1  H27C 2812   0.509   0.937   8.293 -2.5804  1.8030 -0.9712
   39CHL1    C3 2813   0.292   6.564   7.030 -0.6976  0.1249  0.0418
   39CHL1    H3 2814   0.361   6.648   7.050  1.2119 -1.3557 -0.2589
   39CHL1    O3 2815   0.263   6.548   6.890  0.1309  0.2961 -0.2776
   39CHL1   H3' 2816   0.199   6.477   6.894  1.4707 -0.9007  0.0847
   39CHL1    C4 2817   0.371   6.447   7.084 -0.4160  0.6165 -0.5230
   39CHL1   H4A 2818   0.318   6.354   7.053 -2.1437  1.4010 -0.0221
   39CHL1   H4B 2819   0.469   6.448   7.032 -1.4667  0.5020 -2.5703
   39CHL1    C5 2820   0.390   6.451   7.232 -0.0862  0.0424 -0.0755
   39CHL1    C6 2821   0.510   6.447   7.289 -0.1783 -0.8623 -0.4072
   39CHL1    H6 2822   0.595   6.445   7.220 -0.8078 -0.3594 -1.1978
   39CHL1    C7 2823   0.532   6.441   7.438 -1.0587 -1.0995  0.1840
   39CHL1   H7A 2824   0.593   6.351   7.461  0.7623 -0.0208 -0.3033
   39CHL1   H7B 2825   0.582   6.532   7.476  0.3554 -2.2367  1.1211
   39CHL1    C8 2826   0.399   6.417   7.506 -0.4992 -0.7619 -0.4524
   39CHL1    H8 2827   0.374   6.311   7.483  0.3203 -1.2420  0.8326
   39CHL1   C14 2828   0.419   6.440   7.651 -0.7102  0.7512 -0.0873
   39CHL1   H14 2829   0.451   6.544   7.673 -1.3117  0.4712  2.1993
   39CHL1   C15 2830   0.540   6.365   7.721  0.5503  0.2249 -0.0511
   39CHL1  H15A 2831   0.543   6.255   7.707  1.0010  0.0570  1.3371
   39CHL1  H15B 2832   0.640   6.399   7.685  1.5382 -0.0536  2.3344
   39CHL1   C16 2833   0.509   6.377   7.870  0.4190 -0.4427  0.0941
   39CHL1  H16A 2834   0.524   6.289   7.937 -2.1445 -1.5542 -0.7423
   39CHL1  H16B 2835   0.579   6.454   7.909 -0.9974  1.4627 -1.0886
   39CHL1   C17 2836   0.358   6.433   7.887 -0.9646  0.3389  1.4239
   39CHL1   H17 2837   0.376   6.543   7.891 -2.6028  0.7238 -0.6379
   39CHL1   C13 2838   0.301   6.409   7.739  0.2267 -0.6096  0.3453
   39CHL1   C18 2839   0.259   6.263   7.718 -0.1375 -0.4084 -0.0738
   39CHL1  H18A 2840   0.229   6.228   7.617 -1.0078  0.1956 -0.0325
   39CHL1  H18B 2841   0.340   6.194   7.748 -0.3975 -0.6117  0.1614
   39CHL1  H18C 2842   0.169   6.242   7.780  2.0268  1.2541  3.7873
   39CHL1   C12 2843   0.188   6.506   7.695 -0.0243 -0.4377  0.8391
   39CHL1  H12A 2844   0.092   6.490   7.748 -0.2277 -0.7836  0.3705
   39CHL1  H12B 2845   0.222   6.611   7.711  0.4142 -0.4382 -0.0964
   39CHL1   C11 2846   0.154   6.485   7.547 -0.0058  0.3095  0.0188
   39CHL1  H11A 2847   0.104   6.388   7.527  0.9922 -0.0949 -0.5417
   39CHL1  H11B 2848   0.089   6.569   7.515  1.0670  0.9870 -0.4345
   39CHL1    C9 2849   0.289   6.498   7.454  0.8903  0.3325 -0.0137
   39CHL1    H9 2850   0.321   6.604   7.453 -0.3700  0.7246 -0.1370
   39CHL1   C10 2851   0.259   6.466   7.306 -0.1358  0.3232 -0.7292
   39CHL1   C19 2852   0.176   6.344   7.292 -0.4095 -0.2618 -0.2317
   39CHL1  H19A 2853   0.079   6.373   7.337 -0.3622 -0.7080  0.1706
   39CHL1  H19B 2854   0.162   6.317   7.185  1.6530  0.0092 -0.5917
   39CHL1  H19C 2855   0.205   6.259   7.357  0.8495  0.9509  0.8269
   39CHL1    C1 2856   0.185   6.595   7.251 -0.1908 -0.1130  0.0869
   39CHL1   H1A 2857   0.097   6.605   7.318  0.0111  2.0223  0.0697
   39CHL1   H1B 2858   0.249   6.682   7.279  1.3412 -0.4261 -2.2531
   39CHL1    C2 2859   0.160   6.594   7.105  0.4320  0.0368 -0.1758
   39CHL1   H2A 2860   0.110   6.687   7.067 -1.4638 -1.1983 -0.8060
   39CHL1   H2B 2861   0.095   6.505   7.087 -0.4011  0.6787 -0.4093
   39CHL1   C20 2862   0.288   6.385   8.011 -0.3206 -0.0178  0.2100
   39CHL1   H20 2863   0.259   6.280   7.990  1.5120 -0.0802 -2.0944
   39CHL1   C21 2864   0.170   6.477   8.035 -0.5673  0.3360  0.2022
   39CHL1  H21A 2865   0.116   6.452   8.129 -1.5525  0.7941 -0.2341
   39CHL1  H21B 2866   0.102   6.474   7.948 -2.5625  1.6907  1.6870
   39CHL1  H21C 2867   0.213   6.579   8.046 -0.4044  0.5111 -1.8460
   39CHL1   C22 2868   0.380   6.370   8.134  0.2182 -0.3231 -0.1781
   39CHL1  H22A 2869   0.477   6.315   8.127 -0.6190 -1.7677 -0.6481
   39CHL1  H22B 2870   0.397   6.473   8.173 -1.5014  0.6468 -1.8859
   39CHL1   C23 2871   0.320   6.297   8.257 -0.4989 -0.6404 -0.6777
   39CHL1  H23A 2872   0.215   6.330   8.266 -0.3567 -0.9619  2.5880
   39CHL1  H23B 2873   0.307   6.187   8.248  1.4172 -0.9730  0.2879
   39CHL1   C24 2874   0.401   6.320   8.386 -0.7977 -0.2808 -0.0875
   39CHL1  H24A 2875   0.511   6.304   8.384 -0.4267  1.2370  3.7890
   39CHL1  H24B 2876   0.396   6.430   8.402 -1.6487 -0.4205  0.6544
   39CHL1   C25 2877   0.362   6.243   8.518  0.0532  0.1633 -0.0602
   39CHL1   H25 2878   0.377   6.135   8.494 -1.7393 -0.3181  0.9255
   39CHL1   C26 2879   0.447   6.282   8.643 -0.2005 -0.2927 -0.2344
   39CHL1  H26A 2880   0.534   6.342   8.609 -1.7029  2.2391  0.2117
   39CHL1  H26B 2881   0.393   6.361   8.700  1.5965  0.4276  0.5233
   39CHL1  H26C 2882   0.458   6.197   8.713 -0.9602 -0.2680 -0.0786
   39CHL1   C27 2883   0.219   6.237   8.558  0.0904  0.1011 -0.3594
   39CHL1  H27A 2884   0.207   6.201   8.663  0.2725 -0.1047 -0.4086
   39CHL1  H27B 2885   0.166   6.334   8.547 -1.3458 -0.4263  1.5520
   39CHL1  H27C 2886   0.171   6.158   8.495  2.6056 -2.3768  0.7296
   40CHL1    C3 2887   2.528   6.286   6.856 -0.1306 -0.4146  0.9302
   40CHL1    H3 2888   2.510   6.394   6.877 -2.2153 -0.7647  1.1088
   40CHL1    O3 2889   2.532   6.251   6.714  0.6228 -0.5979  0.3673
   40CHL1   H3' 2890   2.453   6.294   6.680  0.1234 -1.5982  0.2501
   40CHL1    C4 2891   2.664   6.255   6.910  0.0938  0.4754  0.9853
   40CHL1   H4A 2892   2.688   6.153   6.873 -0.1012  0.9106 -0.3447
   40CHL1   H4B 2893   2.731   6.327   6.859 -0.9921  1.4548  0.9166
   40CHL1    C5 2894   2.662   6.267   7.063 -0.2283  0.0127  0.0093
   40CHL1    C6 2895   2.736   6.352   7.120 -0.1440  0.0083 -0.1087
   40CHL1    H6 2896   2.816   6.409   7.069  1.6173 -0.5472  1.9659
   40CHL1    C7 2897   2.743   6.369   7.270  0.0264 -1.3085 -0.3400
   40CHL1   H7A 2898   2.848   6.379   7.303 -1.0331 -0.9918  3.1824
   40CHL1   H7B 2899   2.687   6.465   7.282  0.1075 -1.3606  0.4946
   40CHL1    C8 2900   2.672   6.256   7.360  0.4388  0.3912  0.9679
   40CHL1    H8 2901   2.751   6.179   7.351 -1.2379 -1.0270 -2.6142
   40CHL1   C14 2902   2.659   6.280   7.505 -0.5810 -0.0084 -0.2488
   40CHL1   H14 2903   2.581   6.359   7.512 -1.7200 -0.9099 -2.4711
   40CHL1   C15 2904   2.784   6.344   7.586  0.5681 -0.7252 -0.7661
   40CHL1  H15A 2905   2.877   6.293   7.554  0.1489 -1.2483 -1.1620
   40CHL1  H15B 2906   2.786   6.455   7.576 -3.6363 -0.5357 -0.2289
   40CHL1   C16 2907   2.742   6.310   7.730 -0.3222  0.4230 -0.0946
   40CHL1  H16A 2908   2.831   6.257   7.772 -0.7949 -0.0608  0.3090
   40CHL1  H16B 2909   2.729   6.398   7.796  0.0741 -0.6047  1.3801
   40CHL1   C17 2910   2.606   6.220   7.729  0.1934 -0.2912 -0.5445
   40CHL1   H17 2911   2.529   6.300   7.726  0.4583 -0.0821 -2.8204
   40CHL1   C13 2912   2.603   6.169   7.589  1.1184  0.1305  0.7054
   40CHL1   C18 2913   2.710   6.056   7.582  0.5023 -0.0637  0.4106
   40CHL1  H18A 2914   2.711   6.004   7.484  0.5262  1.9156 -0.6568
   40CHL1  H18B 2915   2.814   6.079   7.614  1.1689 -0.4194 -1.4397
   40CHL1  H18C 2916   2.687   5.980   7.660  2.2237 -1.6395 -0.5655
   40CHL1   C12 2917   2.473   6.138   7.523  1.0545  0.9379  0.4390
   40CHL1  H12A 2918   2.437   6.042   7.566 -0.3678 -0.2056 -3.1304
   40CHL1  H12B 2919   2.399   6.219   7.537 -2.8362 -2.5808  1.2688
   40CHL1   C11 2920   2.478   6.094   7.374 -0.3408  0.3985  0.1217
   40CHL1  H11A 2921   2.535   5.999   7.371 -0.7845  0.0367  2.2502
   40CHL1  H11B 2922   2.382   6.067   7.324  0.6535  0.3765 -1.8337
   40CHL1    C9 2923   2.542   6.211   7.289  0.5498  0.1711  0.5495
   40CHL1    H9 2924   2.471   6.295   7.304 -0.1040 -0.2342 -0.2965
   40CHL1   C10 2925   2.564   6.177   7.136  0.0166  0.5237 -0.3001
   40CHL1   C19 2926   2.607   6.029   7.122  0.7263 -0.0557  0.7712
   40CHL1  H19A 2927   2.690   6.015   7.194  0.8075 -1.5405  0.4000
   40CHL1  H19B 2928   2.513   5.977   7.151  0.3274 -1.5972 -3.0857
   40CHL1  H19C 2929   2.629   6.009   7.015  0.0573  1.6721  0.2931
   40CHL1    C1 2930   2.422   6.203   7.074 -0.6772 -0.2191 -0.1386
   40CHL1   H1A 2931   2.346   6.137   7.120 -0.6442  0.1254  0.4223
   40CHL1   H1B 2932   2.380   6.300   7.111  0.4856  0.7837 -1.3969
   40CHL1    C2 2933   2.414   6.202   6.921  0.1950 -0.2304  0.5113
   40CHL1   H2A 2934   2.317   6.244   6.888  1.8720  1.7596 -2.0991
   40CHL1   H2B 2935   2.433   6.097   6.894 -2.9987 -0.9766  1.0066
   40CHL1   C20 2936   2.584   6.137   7.854  1.0543 -0.0236  0.0489
   40CHL1   H20 2937   2.645   6.044   7.852  0.3978 -0.4223 -1.6424
   40CHL1   C21 2938   2.437   6.103   7.868 -0.2535  0.6642 -0.4498
   40CHL1  H21A 2939   2.399   6.040   7.785 -0.7018  1.2201 -0.6678
   40CHL1  H21B 2940   2.372   6.192   7.881  0.2009  0.9588 -0.2005
   40CHL1  H21C 2941   2.431   6.036   7.957  2.7817 -1.1791 -1.5595
   40CHL1   C22 2942   2.640   6.224   7.974 -0.2318 -0.2038 -0.0398
   40CHL1  H22A 2943   2.750   6.225   7.956 -0.5077 -2.4781 -2.1009
   40CHL1  H22B 2944   2.588   6.322   7.973  2.5637  1.3200 -0.2381
   40CHL1   C23 2945   2.613   6.160   8.113 -0.0517 -0.1960 -0.4223
   40CHL1  H23A 2946   2.506   6.176   8.138  0.0818 -2.5802  1.8593
   40CHL1  H23B 2947   2.650   6.056   8.119 -0.7325 -0.4316 -0.2689
   40CHL1   C24 2948   2.687   6.247   8.226  0.6741  0.2810 -0.1827
   40CHL1  H24A 2949   2.674   6.356   8.211  0.5740  0.1917 -0.7729
   40CHL1  H24B 2950   2.657   6.220   8.329 -0.1664 -1.5292 -0.8579
   40CHL1   C25 2951   2.842   6.232   8.215  0.0723 -0.0232  0.6414
   40CHL1   H25 2952   2.878   6.250   8.111 -0.4601 -2.3458  0.0345
   40CHL1   C26 2953   2.902   6.328   8.318 -0.2166 -0.9518 -0.2312
   40CHL1  H26A 2954   2.848   6.324   8.416  0.8320  2.1631  0.5585
   40CHL1  H26B 2955   3.009   6.304   8.336  0.0489  1.1608  1.2584
   40CHL1  H26C 2956   2.891   6.431   8.278  1.9255 -0.7065 -0.2385
   40CHL1   C27 2957   2.885   6.080   8.241  0.0370 -0.2732  0.4988
   40CHL1  H27A 2958   2.994   6.089   8.222 -0.1069 -1.7944 -1.1900
   40CHL1  H27B 2959   2.863   6.068   8.349  0.2472 -0.6553  0.4988
   40CHL1  H27C 2960   2.829   6.001   8.186  0.6574 -1.3549  1.4198
   41CHL1    C3 2961   3.304   5.642   6.937 -0.3302 -0.1795  0.2135
   41CHL1    H3 2962   3.317   5.727   7.007 -1.0132 -0.1051  0.2566
   41CHL1    O3 2963   3.256   5.695   6.814 -0.8026  0.6689  0.0202
   41CHL1   H3' 2964   3.294   5.637   6.747  0.7527 -0.4517  1.8001
   41CHL1    C4 2965   3.436   5.562   6.920 -0.6600  0.1793 -0.3186
   41CHL1   H4A 2966   3.429   5.484   6.842  0.3146 -0.6828  0.4512
   41CHL1   H4B 2967   3.505   5.641   6.882  2.0509 -2.6008 -1.3272
   41CHL1    C5 2968   3.479   5.501   7.054 -0.6198  0.1655 -0.0618
   41CHL1    C6 2969   3.604   5.526   7.095 -0.1402 -0.1405 -0.3453
   41CHL1    H6 2970   3.672   5.574   7.024  1.1986 -1.7803 -0.2039
   41CHL1    C7 2971   3.657   5.494   7.233  0.2503  0.0833  0.2440
   41CHL1   H7A 2972   3.763   5.460   7.224  0.3142  0.6102 -1.0516
   41CHL1   H7B 2973   3.662   5.580   7.303  3.1314 -1.0628  1.5636
   41CHL1    C8 2974   3.568   5.385   7.298  0.3102  0.2930  0.2869
   41CHL1    H8 2975   3.581   5.292   7.239 -1.1678  0.5692 -0.4977
   41CHL1   C14 2976   3.602   5.377   7.446 -0.0865 -1.0325  0.3620
   41CHL1   H14 2977   3.582   5.481   7.480 -1.6516 -0.2206 -2.8533
   41CHL1   C15 2978   3.749   5.346   7.478  0.7323  0.6339 -0.1254
   41CHL1  H15A 2979   3.778   5.265   7.408 -0.3662  0.1454 -0.0263
   41CHL1  H15B 2980   3.833   5.418   7.467  1.9020 -1.1393 -3.4354
   41CHL1   C16 2981   3.747   5.292   7.622 -0.0150  0.1948  0.1725
   41CHL1  H16A 2982   3.805   5.198   7.615 -1.2110 -0.5736  0.3652
   41CHL1  H16B 2983   3.790   5.362   7.696 -0.1428  0.0243  0.4086
   41CHL1   C17 2984   3.602   5.264   7.666 -0.4951  0.2182 -0.3174
   41CHL1   H17 2985   3.571   5.357   7.718 -1.8942 -0.5420  0.2491
   41CHL1   C13 2986   3.518   5.273   7.529  0.0956 -0.2770 -0.1380
   41CHL1   C18 2987   3.529   5.128   7.461 -0.3662  0.0790 -0.1378
   41CHL1  H18A 2988   3.468   5.050   7.511  2.7221 -3.0969 -1.1204
   41CHL1  H18B 2989   3.503   5.125   7.353 -3.5511 -1.0421  0.6080
   41CHL1  H18C 2990   3.637   5.102   7.464  0.0079  1.6962  2.0648
   41CHL1   C12 2991   3.380   5.315   7.525 -1.1244 -0.2060  0.9680
   41CHL1  H12A 2992   3.323   5.241   7.584  0.8481 -3.0413 -0.5341
   41CHL1  H12B 2993   3.376   5.412   7.579 -1.2796  0.2418  0.1670
   41CHL1   C11 2994   3.328   5.331   7.381 -0.3160 -0.6921  0.3093
   41CHL1  H11A 2995   3.321   5.231   7.334  4.5302 -0.5760 -0.9832
   41CHL1  H11B 2996   3.226   5.374   7.375 -0.6628 -1.8220 -2.4428
   41CHL1    C9 2997   3.422   5.422   7.288 -0.4948  0.0768 -0.1979
   41CHL1    H9 2998   3.418   5.522   7.334 -1.1687 -0.7292  1.5218
   41CHL1   C10 2999   3.372   5.431   7.144  0.1560 -0.2462  0.0870
   41CHL1   C19 3000   3.356   5.287   7.089 -0.4116 -0.3824  0.1405
   41CHL1  H19A 3001   3.450   5.228   7.085 -0.0361  0.1164  1.5628
   41CHL1  H19B 3002   3.289   5.225   7.153 -0.9128  0.6904  0.6651
   41CHL1  H19C 3003   3.307   5.289   6.989 -1.2154  0.9819  0.5543
   41CHL1    C1 3004   3.234   5.504   7.142  0.4495  0.2015  0.2522
   41CHL1   H1A 3005   3.152   5.437   7.174 -0.2435  1.8177  1.9506
   41CHL1   H1B 3006   3.234   5.591   7.211  0.0934 -0.5347  1.1976
   41CHL1    C2 3007   3.199   5.556   7.002  0.5786  0.1066  0.0021
   41CHL1   H2A 3008   3.111   5.623   7.011  0.6389  0.3595 -1.2519
   41CHL1   H2B 3009   3.172   5.469   6.938  0.9223 -0.0757  0.1082
   41CHL1   C20 3010   3.583   5.147   7.768  0.4123  0.8403 -0.2285
   41CHL1   H20 3011   3.610   5.050   7.720  0.6929  1.3656 -1.1418
   41CHL1   C21 3012   3.431   5.140   7.796 -0.3618 -1.3832 -0.5753
   41CHL1  H21A 3013   3.379   5.238   7.790 -1.1331 -1.4520  3.8387
   41CHL1  H21B 3014   3.419   5.106   7.901 -1.2386 -2.2988 -0.9688
   41CHL1  H21C 3015   3.391   5.058   7.732  1.7916 -0.9842 -2.5274
   41CHL1   C22 3016   3.665   5.149   7.892 -0.1856  0.0377  0.3420
   41CHL1  H22A 3017   3.771   5.142   7.861 -1.3711 -0.5103 -3.7870
   41CHL1  H22B 3018   3.653   5.246   7.946 -0.4546 -0.3343  0.9556
   41CHL1   C23 3019   3.661   5.032   7.988  0.2319  0.7992 -0.0021
   41CHL1  H23A 3020   3.574   5.055   8.053  0.9804  3.2564  0.1765
   41CHL1  H23B 3021   3.646   4.935   7.935 -1.9634 -0.5543  2.9355
   41CHL1   C24 3022   3.793   5.025   8.073 -0.4955 -1.3164 -0.5529
   41CHL1  H24A 3023   3.879   5.010   8.005 -1.1397 -0.1043 -1.6609
   41CHL1  H24B 3024   3.807   5.125   8.119 -1.8123 -1.7608  0.8713
   41CHL1   C25 3025   3.783   4.918   8.182 -0.0898 -0.4476  0.4780
   41CHL1   H25 3026   3.765   4.829   8.117 -0.2358  1.4573 -2.1678
   41CHL1   C26 3027   3.918   4.893   8.260 -0.0463  0.3420 -0.5001
   41CHL1  H26A 3028   3.919   4.803   8.325  2.9638  1.1037  0.5987
   41CHL1  H26B 3029   4.009   4.899   8.197 -0.1527  0.4952 -0.6395
   41CHL1  H26C 3030   3.938   4.965   8.342  0.4027  0.5867 -0.8207
   41CHL1   C27 3031   3.656   4.935   8.270 -0.4545 -0.2176 -0.7569
   41CHL1  H27A 3032   3.644   5.038   8.310  0.1254 -1.2421  2.1761
   41CHL1  H27B 3033   3.572   4.911   8.202 -0.6591 -0.9414 -0.2444
   41CHL1  H27C 3034   3.639   4.862   8.351 -1.0204 -1.2059 -1.7488
   42CHL1    C3 3035   4.696   3.337   7.016 -0.4112 -0.7177  0.6513
   42CHL1    H3 3036   4.772   3.411   7.050  0.5575 -1.4247  0.0647
   42CHL1    O3 3037   4.717   3.300   6.881  0.6764  0.0995 -0.1100
   42CHL1   H3' 3038   4.641   3.247   6.858  2.0114 -1.4870 -0.9969
   42CHL1    C4 3039   4.712   3.210   7.103  0.1243  0.1272  0.6075
   42CHL1   H4A 3040   4.651   3.130   7.057 -0.1329  1.5570 -1.5538
   42CHL1   H4B 3041   4.815   3.172   7.082 -0.8283 -3.0883  1.5333
   42CHL1    C5 3042   4.680   3.248   7.243  0.1575  0.5009 -0.6299
   42CHL1    C6 3043   4.775   3.235   7.337 -0.0196  0.2071 -0.1960
   42CHL1    H6 3044   4.869   3.189   7.304  0.0255 -0.0025  0.2228
   42CHL1    C7 3045   4.761   3.269   7.486  0.2798  0.2611 -0.1603
   42CHL1   H7A 3046   4.823   3.202   7.550 -0.6589 -1.2700 -0.8146
   42CHL1   H7B 3047   4.802   3.371   7.502 -0.9578  0.3285  2.8317
   42CHL1    C8 3048   4.607   3.278   7.519  0.3898  0.0185  0.2327
   42CHL1    H8 3049   4.568   3.174   7.514 -0.3238  0.2783  0.3412
   42CHL1   C14 3050   4.585   3.347   7.659 -0.3011 -0.1091 -0.3218
   42CHL1   H14 3051   4.619   3.453   7.650 -1.7310  0.4249  0.4105
   42CHL1   C15 3052   4.673   3.287   7.770 -1.0942  0.2933  0.0768
   42CHL1  H15A 3053   4.677   3.176   7.774  1.5120  0.3441 -0.3470
   42CHL1  H15B 3054   4.775   3.327   7.751 -0.0360 -3.8113 -3.7027
   42CHL1   C16 3055   4.608   3.337   7.899  0.3620  0.1486 -0.2248
   42CHL1  H16A 3056   4.587   3.247   7.961 -1.7334  2.0786  1.9486
   42CHL1  H16B 3057   4.676   3.404   7.956 -1.2768  0.5649  1.2828
   42CHL1   C17 3058   4.478   3.412   7.849  0.4994 -0.3820 -0.0132
   42CHL1   H17 3059   4.511   3.518   7.851  1.5161 -0.6952  3.4312
   42CHL1   C13 3060   4.447   3.364   7.707  0.9321  0.1395  0.0620
   42CHL1   C18 3061   4.389   3.216   7.722  0.1139  0.3223  0.2939
   42CHL1  H18A 3062   4.377   3.174   7.619 -0.4695  0.1549  0.4246
   42CHL1  H18B 3063   4.446   3.145   7.785 -0.0634 -0.2096 -0.1393
   42CHL1  H18C 3064   4.283   3.214   7.754 -0.8015 -2.9673 -2.5975
   42CHL1   C12 3065   4.375   3.448   7.606 -0.3322  0.1180 -0.1214
   42CHL1  H12A 3066   4.268   3.449   7.636 -0.0173  2.2645  1.0688
   42CHL1  H12B 3067   4.398   3.557   7.607 -1.8383  0.4468  1.0167
   42CHL1   C11 3068   4.391   3.403   7.457  0.6714 -0.1686  0.4758
   42CHL1  H11A 3069   4.326   3.313   7.461 -0.7347  0.7508 -1.3625
   42CHL1  H11B 3070   4.353   3.479   7.385  0.3983 -1.2186 -0.5150
   42CHL1    C9 3071   4.536   3.363   7.416  0.7685 -0.0158  0.1552
   42CHL1    H9 3072   4.593   3.458   7.414  1.6228 -0.5412 -2.3856
   42CHL1   C10 3073   4.542   3.307   7.271  0.4963 -0.2169  0.1693
   42CHL1   C19 3074   4.439   3.199   7.254  0.2866  0.4807 -0.5967
   42CHL1  H19A 3075   4.439   3.151   7.154  0.3940 -1.5025  0.3199
   42CHL1  H19B 3076   4.437   3.125   7.338 -0.0620 -0.4540 -1.4248
   42CHL1  H19C 3077   4.338   3.244   7.245  0.8571  1.4493 -2.2701
   42CHL1    C1 3078   4.517   3.425   7.167  0.4540  0.0444  0.3584
   42CHL1   H1A 3079   4.411   3.456   7.174  0.5856  0.4400  0.6461
   42CHL1   H1B 3080   4.576   3.513   7.202  1.6825  0.3057 -2.2492
   42CHL1    C2 3081   4.554   3.394   7.021  0.0416 -0.3752 -0.5393
   42CHL1   H2A 3082   4.532   3.485   6.962 -0.5431 -0.2009 -0.0580
   42CHL1   H2B 3083   4.482   3.313   6.995 -1.0516 -0.1073  1.5065
   42CHL1   C20 3084   4.365   3.402   7.954  0.1697  0.4309 -0.0691
   42CHL1   H20 3085   4.332   3.296   7.955  1.2196  0.0965  1.5863
   42CHL1   C21 3086   4.248   3.499   7.925 -0.1352 -0.4252  0.0026
   42CHL1  H21A 3087   4.280   3.606   7.924  1.1048 -0.7882  0.3602
   42CHL1  H21B 3088   4.167   3.497   8.001  2.0741  0.8768  2.4627
   42CHL1  H21C 3089   4.205   3.486   7.824 -1.0666 -0.3588  0.3880
   42CHL1   C22 3090   4.412   3.425   8.101 -0.4150 -0.1028 -0.1643
   42CHL1  H22A 3091   4.319   3.424   8.163 -0.1810  0.3005  0.1972
   42CHL1  H22B 3092   4.465   3.338   8.146  1.0702  0.5195 -0.6883
   42CHL1   C23 3093   4.495   3.555   8.123 -0.4020  0.2820 -0.3670
   42CHL1  H23A 3094   4.589   3.539   8.065 -0.3611 -1.5789  0.1934
   42CHL1  H23B 3095   4.443   3.643   8.079  3.2770  2.4394 -0.6511
   42CHL1   C24 3096   4.551   3.563   8.260 -0.4634  0.0531  0.6678
   42CHL1  H24A 3097   4.472   3.567   8.339 -2.3208 -1.9850 -1.0168
   42CHL1  H24B 3098   4.612   3.472   8.277 -0.5705 -0.7748 -3.0347
   42CHL1   C25 3099   4.645   3.687   8.277  0.0324  0.0537  0.0516
   42CHL1   H25 3100   4.699   3.688   8.179 -1.8809 -0.9203 -1.0409
   42CHL1   C26 3101   4.566   3.826   8.284  0.1208 -0.1978 -0.6682
   42CHL1  H26A 3102   4.502   3.856   8.199 -0.2286 -1.3711 -0.8370
   42CHL1  H26B 3103   4.490   3.808   8.363 -1.7382  2.0962 -1.9119
   42CHL1  H26C 3104   4.640   3.901   8.320 -0.0904  0.0089 -0.6667
   42CHL1   C27 3105   4.746   3.677   8.397 -0.4232  0.3785 -0.3693
   42CHL1  H27A 3106   4.683   3.672   8.489 -0.4207  0.9724 -0.3386
   42CHL1  H27B 3107   4.814   3.765   8.400 -0.9131  0.7372  4.2772
   42CHL1  H27C 3108   4.801   3.580   8.395 -3.2806 -1.2843 -0.4685
   43CHL1    C3 3109   4.664   0.041   6.952 -0.1670  0.1399 -0.2334
   43CHL1    H3 3110   4.553   0.029   6.950 -0.3792  2.0720 -1.4616
   43CHL1    O3 3111   4.725  -0.014   6.836 -0.7136  0.0486 -0.0438
   43CHL1   H3' 3112   4.818   0.006   6.842 -1.1038  1.2691  2.8337
   43CHL1    C4 3113   4.690   0.190   6.958  0.4456  0.8352 -0.1839
   43CHL1   H4A 3114   4.799   0.206   6.949  0.6656 -1.4448 -1.7601
   43CHL1   H4B 3115   4.640   0.229   6.867 -2.3180  0.1005  0.9698
   43CHL1    C5 3116   4.652   0.265   7.085  0.0125 -0.0572  0.0638
   43CHL1    C6 3117   4.576   0.372   7.088 -0.9313  0.0231 -0.7828
   43CHL1    H6 3118   4.545   0.423   6.995 -0.1764  0.5138 -0.7722
   43CHL1    C7 3119   4.541   0.438   7.221  0.6479 -0.1036  0.1962
   43CHL1   H7A 3120   4.545   0.548   7.212  0.4551  0.0516  1.8745
   43CHL1   H7B 3121   4.442   0.397   7.253 -0.1216  2.0858  0.6683
   43CHL1    C8 3122   4.635   0.406   7.345 -0.4726  0.2608  0.7287
   43CHL1    H8 3123   4.733   0.458   7.341 -1.9665  3.2055  1.3002
   43CHL1   C14 3124   4.570   0.448   7.477  0.0431 -0.2417  0.0570
   43CHL1   H14 3125   4.472   0.397   7.489  0.6732 -1.6284 -0.6837
   43CHL1   C15 3126   4.545   0.605   7.494 -0.2655 -0.0484  0.3021
   43CHL1  H15A 3127   4.634   0.667   7.468 -2.1648  2.0339 -1.4297
   43CHL1  H15B 3128   4.462   0.644   7.431 -0.4128 -1.0693 -0.1509
   43CHL1   C16 3129   4.531   0.622   7.646  0.3301 -0.1960  0.1588
   43CHL1  H16A 3130   4.577   0.718   7.678  0.5265  0.8461 -2.9978
   43CHL1  H16B 3131   4.426   0.641   7.673  0.2327  2.0179 -1.6299
   43CHL1   C17 3132   4.580   0.489   7.712 -0.0571  0.4115  0.2649
   43CHL1   H17 3133   4.486   0.434   7.735  0.6787 -0.3449  1.5462
   43CHL1   C13 3134   4.660   0.422   7.598  0.3796  0.5440 -0.4789
   43CHL1   C18 3135   4.798   0.491   7.591  0.1856  0.2424 -0.9270
   43CHL1  H18A 3136   4.862   0.430   7.524  1.6526  1.4520 -0.6667
   43CHL1  H18B 3137   4.798   0.597   7.557 -0.2305 -0.6210 -3.6981
   43CHL1  H18C 3138   4.842   0.494   7.694 -2.1442  2.1447  0.0474
   43CHL1   C12 3139   4.672   0.261   7.604 -0.0946  0.3671  0.2249
   43CHL1  H12A 3140   4.745   0.230   7.682 -1.8544 -1.0258  1.3679
   43CHL1  H12B 3141   4.574   0.218   7.637  0.2713  0.8955  2.0824
   43CHL1   C11 3142   4.720   0.202   7.470  0.4329  0.2888  0.2010
   43CHL1  H11A 3143   4.823   0.242   7.463 -0.0029  1.5297  0.6986
   43CHL1  H11B 3144   4.725   0.091   7.475  0.2931  0.2990  0.6051
   43CHL1    C9 3145   4.653   0.256   7.347 -0.8173 -0.2061  0.2525
   43CHL1    H9 3146   4.550   0.215   7.354 -0.7736 -0.6766 -1.5259
   43CHL1   C10 3147   4.712   0.195   7.213  0.0149  0.5634  0.3003
   43CHL1   C19 3148   4.864   0.209   7.221 -0.1077 -0.7370  0.4197
   43CHL1  H19A 3149   4.922   0.181   7.131  2.0817  3.3224  0.4828
   43CHL1  H19B 3150   4.893   0.315   7.238 -0.8135  0.0152 -2.6534
   43CHL1  H19C 3151   4.903   0.143   7.301 -1.7074 -1.7163  0.4127
   43CHL1    C1 3152   4.670   0.040   7.198  0.4010  0.1281  0.1337
   43CHL1   H1A 3153   4.712  -0.002   7.292  3.3595 -2.5619 -2.2861
   43CHL1   H1B 3154   4.561   0.027   7.211  0.6331 -0.2954  1.8685
   43CHL1    C2 3155   4.723  -0.024   7.073  0.3363 -0.1129 -1.1609
   43CHL1   H2A 3156   4.696  -0.132   7.074  0.8995 -0.2531 -1.0488
   43CHL1   H2B 3157   4.832  -0.014   7.059  0.8216 -1.3080  1.5611
   43CHL1   C20 3158   4.643   0.504   7.852 -0.4874 -0.5474  0.5731
   43CHL1   H20 3159   4.721   0.583   7.850 -0.7418 -0.3182 -0.4964
   43CHL1   C21 3160   4.708   0.373   7.905 -0.5306  0.1258  0.9791
   43CHL1  H21A 3161   4.799   0.345   7.848 -1.5885 -0.7638 -0.2841
   43CHL1  H21B 3162   4.625   0.300   7.906 -0.0908 -0.3709  1.7504
   43CHL1  H21C 3163   4.736   0.393   8.011  0.1685  1.4738  0.5553
   43CHL1   C22 3164   4.532   0.541   7.954 -0.1301  0.0929  0.2187
   43CHL1  H22A 3165   4.463   0.613   7.904 -0.5592  0.6528  1.5977
   43CHL1  H22B 3166   4.465   0.455   7.974  0.8830 -0.8576 -0.4053
   43CHL1   C23 3167   4.570   0.582   8.098  0.7344 -0.2002  0.0510
   43CHL1  H23A 3168   4.632   0.501   8.142 -2.2212 -1.4309  2.1682
   43CHL1  H23B 3169   4.623   0.680   8.101  0.4499  0.0707 -2.9291
   43CHL1   C24 3170   4.449   0.585   8.197 -0.5408  0.6230 -0.1313
   43CHL1  H24A 3171   4.377   0.659   8.156 -1.4996  0.8613  1.9410
   43CHL1  H24B 3172   4.393   0.490   8.182  0.8292 -0.1554 -0.3917
   43CHL1   C25 3173   4.480   0.618   8.347 -0.5828 -0.1380  0.1695
   43CHL1   H25 3174   4.562   0.549   8.373 -0.4853 -0.1600 -0.1945
   43CHL1   C26 3175   4.535   0.761   8.361  0.1551 -0.1005  0.1680
   43CHL1  H26A 3176   4.457   0.830   8.322  2.1927  1.0343 -2.1029
   43CHL1  H26B 3177   4.550   0.802   8.463 -1.1759 -1.4713  0.9202
   43CHL1  H26C 3178   4.624   0.790   8.301  0.3304 -0.4911  0.2387
   43CHL1   C27 3179   4.365   0.589   8.447 -0.3877 -0.0135 -0.2892
   43CHL1  H27A 3180   4.284   0.658   8.417  0.3060  1.5650  1.3629
   43CHL1  H27B 3181   4.339   0.482   8.443 -0.3198 -0.0522  0.2841
   43CHL1  H27C 3182   4.400   0.618   8.549  0.9176 -3.2475  0.2216
   44CHL1    C3 3183   4.367   5.495   6.736  0.4332  0.1269 -0.0070
   44CHL1    H3 3184   4.372   5.385   6.717 -0.2067  0.5123 -2.5004
   44CHL1    O3 3185   4.350   5.557   6.611  0.5424  0.2307 -0.2757
   44CHL1   H3' 3186   4.322   5.646   6.630 -2.2313 -0.4260 -0.9020
   44CHL1    C4 3187   4.236   5.526   6.816  0.1636  0.6738  0.4117
   44CHL1   H4A 3188   4.203   5.630   6.794  0.6875  0.8287  0.3512
   44CHL1   H4B 3189   4.159   5.458   6.775  1.1239 -0.7727  0.9673
   44CHL1    C5 3190   4.250   5.515   6.963 -0.2594  0.5303  0.2213
   44CHL1    C6 3191   4.158   5.463   7.038 -0.2480  0.2959  0.8586
   44CHL1    H6 3192   4.071   5.416   6.989  1.2499  0.2647 -1.8560
   44CHL1    C7 3193   4.150   5.463   7.192 -0.6279 -0.4938 -0.6449
   44CHL1   H7A 3194   4.065   5.525   7.226  0.6109  1.4511 -1.0254
   44CHL1   H7B 3195   4.134   5.358   7.227 -3.5076 -0.5452 -1.9689
   44CHL1    C8 3196   4.279   5.535   7.251  1.0619 -0.4547  0.7827
   44CHL1    H8 3197   4.256   5.643   7.264  0.3965 -0.1657 -2.4649
   44CHL1   C14 3198   4.297   5.488   7.397 -0.1798 -0.0292 -0.8508
   44CHL1   H14 3199   4.325   5.382   7.382  0.7982  0.0882  0.0909
   44CHL1   C15 3200   4.179   5.475   7.491 -0.1732  0.4580  0.1005
   44CHL1  H15A 3201   4.121   5.569   7.480 -0.4482  0.3054  0.2424
   44CHL1  H15B 3202   4.116   5.385   7.473 -0.5847  0.7244  0.2125
   44CHL1   C16 3203   4.249   5.460   7.630  0.5166 -0.0369  0.0917
   44CHL1  H16A 3204   4.198   5.536   7.692  2.1793 -0.0203  1.4638
   44CHL1  H16B 3205   4.248   5.358   7.674  0.3118 -0.1840 -0.2546
   44CHL1   C17 3206   4.394   5.492   7.607 -0.7927  0.0460  0.5901
   44CHL1   H17 3207   4.448   5.395   7.600  0.9217  0.9925  0.4618
   44CHL1   C13 3208   4.408   5.555   7.473 -0.5762 -0.7720 -1.1925
   44CHL1   C18 3209   4.372   5.710   7.479 -0.6902 -0.0258  0.1933
   44CHL1  H18A 3210   4.271   5.726   7.523 -0.9831 -1.3068  0.0008
   44CHL1  H18B 3211   4.445   5.757   7.549 -1.5985 -2.5565  2.9842
   44CHL1  H18C 3212   4.384   5.754   7.378  1.8785 -1.9985 -0.4219
   44CHL1   C12 3213   4.541   5.551   7.399  0.2724 -0.1900 -0.4114
   44CHL1  H12A 3214   4.613   5.626   7.439 -0.9856  1.3659 -1.0399
   44CHL1  H12B 3215   4.579   5.447   7.414 -0.4305 -0.4894 -0.7046
   44CHL1   C11 3216   4.525   5.581   7.251 -0.5097  0.4044 -0.3633
   44CHL1  H11A 3217   4.511   5.691   7.239  0.4327  0.2355 -3.6488
   44CHL1  H11B 3218   4.616   5.550   7.195 -1.3869 -2.7579 -0.1255
   44CHL1    C9 3219   4.403   5.517   7.172 -0.2826 -0.6441 -0.4217
   44CHL1    H9 3220   4.421   5.407   7.174 -1.3720 -0.8067  2.1813
   44CHL1   C10 3221   4.386   5.565   7.023  0.2669  0.2635 -0.3934
   44CHL1   C19 3222   4.380   5.716   7.014  0.0878  0.3023  0.1838
   44CHL1  H19A 3223   4.473   5.772   7.040  0.5342  0.1023 -0.9366
   44CHL1  H19B 3224   4.347   5.748   6.913 -1.5539  2.0840  1.2522
   44CHL1  H19C 3225   4.299   5.752   7.081 -2.8952 -3.9335 -0.9626
   44CHL1    C1 3226   4.508   5.509   6.949  0.3293  1.0434  1.0323
   44CHL1   H1A 3227   4.604   5.549   6.988  0.3645  0.1881  1.8374
   44CHL1   H1B 3228   4.500   5.398   6.956 -0.1435  0.8561 -1.9149
   44CHL1    C2 3229   4.492   5.545   6.800 -0.9339 -0.1414 -0.0381
   44CHL1   H2A 3230   4.577   5.497   6.747  0.1427  1.4951  0.1933
   44CHL1   H2B 3231   4.505   5.655   6.794 -1.6529  0.2601  4.3806
   44CHL1   C20 3232   4.464   5.557   7.731 -0.1106 -0.4069  0.6462
   44CHL1   H20 3233   4.450   5.667   7.742  2.2181  0.1346 -1.5036
   44CHL1   C21 3234   4.612   5.531   7.726 -0.6649 -0.4186  0.1358
   44CHL1  H21A 3235   4.651   5.582   7.635 -0.6750 -0.2878  0.2056
   44CHL1  H21B 3236   4.624   5.421   7.711 -0.0065 -0.1791 -1.1630
   44CHL1  H21C 3237   4.673   5.558   7.814  0.5663 -1.5530 -0.3514
   44CHL1   C22 3238   4.402   5.506   7.858  0.1521 -0.4775  0.3952
   44CHL1  H22A 3239   4.294   5.529   7.870  0.1493 -1.1061  1.6709
   44CHL1  H22B 3240   4.410   5.395   7.856  1.5484 -0.3782 -2.5646
   44CHL1   C23 3241   4.461   5.567   7.984  0.0967  0.2805 -1.1051
   44CHL1  H23A 3242   4.561   5.522   8.003 -0.0170 -0.3152 -1.8742
   44CHL1  H23B 3243   4.488   5.674   7.973  0.6894  0.2127 -0.3794
   44CHL1   C24 3244   4.366   5.540   8.113  0.5195  0.5682 -0.7558
   44CHL1  H24A 3245   4.273   5.593   8.086  0.2555  0.0086 -0.9535
   44CHL1  H24B 3246   4.353   5.431   8.129 -1.5200  0.9189  0.0167
   44CHL1   C25 3247   4.419   5.597   8.246  0.1791  0.5272 -0.3367
   44CHL1   H25 3248   4.428   5.708   8.241 -3.4447  0.8045 -2.2087
   44CHL1   C26 3249   4.313   5.557   8.355 -0.2113 -0.9259  0.5054
   44CHL1  H26A 3250   4.325   5.448   8.373 -0.5706 -0.1888  5.8417
   44CHL1  H26B 3251   4.339   5.606   8.451 -0.2942  1.4901 -0.6765
   44CHL1  H26C 3252   4.207   5.581   8.332 -0.4274 -0.6527  1.7642
   44CHL1   C27 3253   4.556   5.539   8.292 -0.2266 -0.4306 -0.8818
   44CHL1  H27A 3254   4.548   5.432   8.319 -1.3278 -0.1569 -0.0625
   44CHL1  H27B 3255   4.634   5.578   8.223  0.5438 -0.3554  0.0303
   44CHL1  H27C 3256   4.584   5.582   8.391 -0.9439 -1.1180 -0.3779
   45CHL1    C3 3257   5.639   4.050   6.644  0.5970  0.1645 -1.1996
   45CHL1    H3 3258   5.587   3.952   6.654  1.0050  0.1243  0.5564
   45CHL1    O3 3259   5.619   4.099   6.516 -0.1356  0.2658  0.4126
   45CHL1   H3' 3260   5.535   4.145   6.513 -0.2315  0.0667 -0.0479
   45CHL1    C4 3261   5.576   4.158   6.736 -0.2060  0.5967 -0.6854
   45CHL1   H4A 3262   5.630   4.251   6.709  0.1024  0.9508  1.0696
   45CHL1   H4B 3263   5.470   4.157   6.705 -0.4656 -2.9619  0.1084
   45CHL1    C5 3264   5.576   4.124   6.882  0.3836  0.7499 -0.3035
   45CHL1    C6 3265   5.462   4.109   6.953 -0.3560 -0.0676  0.1544
   45CHL1    H6 3266   5.370   4.145   6.905 -0.7700 -0.4241  0.6741
   45CHL1    C7 3267   5.470   4.059   7.091  0.0946 -0.2827  0.3949
   45CHL1   H7A 3268   5.394   4.113   7.151  1.5477  0.3389  1.7263
   45CHL1   H7B 3269   5.445   3.951   7.092 -3.9308  0.5870  1.5103
   45CHL1    C8 3270   5.604   4.077   7.164  0.3931 -0.4219  0.0490
   45CHL1    H8 3271   5.622   4.187   7.163 -0.3560 -0.2208 -4.9091
   45CHL1   C14 3272   5.617   4.003   7.296  0.2990 -0.6403  0.1213
   45CHL1   H14 3273   5.603   3.896   7.271  0.5414 -0.0555 -2.6279
   45CHL1   C15 3274   5.515   4.037   7.406 -0.4478 -0.1126  0.3416
   45CHL1  H15A 3275   5.483   4.143   7.400  3.9407  1.4504  2.5667
   45CHL1  H15B 3276   5.431   3.966   7.387 -0.5831  0.4979 -1.4435
   45CHL1   C16 3277   5.584   4.005   7.537  0.4382 -0.3180  0.5549
   45CHL1  H16A 3278   5.587   4.105   7.587 -2.5153 -0.1568  0.4830
   45CHL1  H16B 3279   5.522   3.944   7.605 -2.4990  0.9530 -0.8600
   45CHL1   C17 3280   5.727   3.950   7.506 -0.2744  0.2087 -0.6157
   45CHL1   H17 3281   5.711   3.840   7.499  0.5684  0.0793 -0.6402
   45CHL1   C13 3282   5.754   4.015   7.369 -0.4606  0.3794  0.6354
   45CHL1   C18 3283   5.779   4.163   7.398  0.4243 -0.7117  0.2126
   45CHL1  H18A 3284   5.725   4.215   7.481 -0.8404 -0.2601 -0.8746
   45CHL1  H18B 3285   5.885   4.174   7.429  1.0065  0.2199 -2.0492
   45CHL1  H18C 3286   5.769   4.224   7.306  1.0067 -1.9615 -0.6785
   45CHL1   C12 3287   5.860   3.957   7.275  0.0285  0.6415  0.3533
   45CHL1  H12A 3288   5.960   3.977   7.321 -0.2192 -0.2005  1.2829
   45CHL1  H12B 3289   5.842   3.848   7.273  2.9832  0.0992  0.5184
   45CHL1   C11 3290   5.858   4.023   7.138 -0.1743 -0.0386  0.0876
   45CHL1  H11A 3291   5.890   4.128   7.154 -2.3419  0.4398  1.4687
   45CHL1  H11B 3292   5.937   3.971   7.080 -0.3877 -0.7265  0.4076
   45CHL1    C9 3293   5.718   4.029   7.068 -0.1776  0.6598  0.4412
   45CHL1    H9 3294   5.695   3.924   7.041  1.3138  0.3381  0.3733
   45CHL1   C10 3295   5.722   4.091   6.925 -0.2607  0.0696 -0.0826
   45CHL1   C19 3296   5.802   4.229   6.934 -0.0532  0.1557  0.0477
   45CHL1  H19A 3297   5.783   4.309   6.860  0.6899  1.5422  1.3165
   45CHL1  H19B 3298   5.782   4.275   7.034 -1.8436  1.6353 -0.9697
   45CHL1  H19C 3299   5.913   4.223   6.929  0.2028  3.4789  0.6472
   45CHL1    C1 3300   5.805   3.999   6.829  0.2107 -0.2369 -1.0593
   45CHL1   H1A 3301   5.909   4.016   6.864 -0.7520 -0.2665  1.9026
   45CHL1   H1B 3302   5.769   3.895   6.844 -1.5077  0.6044  0.8381
   45CHL1    C2 3303   5.791   4.024   6.673 -0.2823 -0.5390  0.2149
   45CHL1   H2A 3304   5.829   3.937   6.614 -0.7035 -0.3173 -0.3851
   45CHL1   H2B 3305   5.850   4.115   6.650 -1.0827 -0.1648 -0.3782
   45CHL1   C20 3306   5.829   3.981   7.613  0.3919 -0.6255  0.2398
   45CHL1   H20 3307   5.852   4.089   7.622 -1.2948 -0.0179 -2.2373
   45CHL1   C21 3308   5.949   3.889   7.589 -0.1337 -0.1628  0.2317
   45CHL1  H21A 3309   6.024   3.901   7.669 -0.7086  0.2041  0.7268
   45CHL1  H21B 3310   5.996   3.910   7.490 -1.7865  0.1353 -0.5186
   45CHL1  H21C 3311   5.913   3.785   7.580 -0.8879  0.1878 -1.0071
   45CHL1   C22 3312   5.785   3.942   7.757  0.9701 -0.0738 -0.3563
   45CHL1  H22A 3313   5.679   3.975   7.762  1.1452  0.6880 -1.4318
   45CHL1  H22B 3314   5.789   3.833   7.776 -1.4246 -0.0234  0.6835
   45CHL1   C23 3315   5.869   4.008   7.868  0.4352 -0.5482 -0.6101
   45CHL1  H23A 3316   5.974   3.974   7.858  0.8674  0.6386 -0.2247
   45CHL1  H23B 3317   5.855   4.117   7.850 -2.5863 -0.7855  0.0667
   45CHL1   C24 3318   5.807   3.962   8.007  0.2507 -0.9649 -0.5498
   45CHL1  H24A 3319   5.699   3.989   8.008  0.5066  0.1832  3.1064
   45CHL1  H24B 3320   5.824   3.852   8.010 -3.1015 -1.6703 -3.3510
   45CHL1   C25 3321   5.874   4.022   8.131  0.0766 -0.4642 -0.5737
   45CHL1   H25 3322   5.887   4.131   8.112  2.7228 -0.6783 -0.2909
   45CHL1   C26 3323   5.781   3.987   8.250 -0.6925  0.6041  0.1696
   45CHL1  H26A 3324   5.814   4.051   8.334 -1.0426  1.1706 -0.1196
   45CHL1  H26B 3325   5.680   4.024   8.223 -0.0211  1.8417 -0.7070
   45CHL1  H26C 3326   5.777   3.878   8.271 -0.5222  0.4380 -0.6410
   45CHL1   C27 3327   6.018   3.961   8.161  0.2766  0.0452 -0.7629
   45CHL1  H27A 3328   6.002   3.851   8.169 -2.9022  0.5222  0.1903
   45CHL1  H27B 3329   6.084   3.988   8.076 -0.9126  0.3833 -1.6001
   45CHL1  H27C 3330   6.059   3.990   8.260 -0.0254 -2.5788  0.1758
   46CHL1    C3 3331   5.256   5.099   6.966 -0.1711 -0.1122  0.0958
   46CHL1    H3 3332   5.179   5.179   6.972 -1.3145 -1.1512 -0.4099
   46CHL1    O3 3333   5.280   5.075   6.826 -0.5178 -0.0286  0.5903
   46CHL1   H3' 3334   5.353   5.013   6.815 -1.0206 -0.3963 -0.7306
   46CHL1    C4 3335   5.391   5.146   7.018  0.0843 -0.1276  0.4370
   46CHL1   H4A 3336   5.481   5.093   6.981 -0.0677  0.5379 -0.8984
   46CHL1   H4B 3337   5.404   5.245   6.971  2.9881 -0.4146  0.5377
   46CHL1    C5 3338   5.399   5.162   7.168  0.3089 -0.4000 -0.3016
   46CHL1    C6 3339   5.449   5.267   7.225 -0.3983  0.6179 -0.0840
   46CHL1    H6 3340   5.487   5.349   7.162  0.5591  0.1511 -0.1206
   46CHL1    C7 3341   5.461   5.286   7.372  0.0873  0.2250  0.1460
   46CHL1   H7A 3342   5.551   5.344   7.401  1.1559 -0.8677 -0.9426
   46CHL1   H7B 3343   5.372   5.342   7.409 -0.4686 -0.3765 -0.2804
   46CHL1    C8 3344   5.456   5.151   7.448  0.1892 -0.2861 -0.0544
   46CHL1    H8 3345   5.544   5.085   7.433  0.6786  0.2844  0.2684
   46CHL1   C14 3346   5.433   5.177   7.596 -0.6886 -0.6869  0.3368
   46CHL1   H14 3347   5.339   5.234   7.601 -0.4468 -0.3490  1.0979
   46CHL1   C15 3348   5.531   5.264   7.670  0.0313 -0.5378 -0.2812
   46CHL1  H15A 3349   5.639   5.236   7.662  0.5226  0.9844  0.7027
   46CHL1  H15B 3350   5.529   5.372   7.642 -0.7380 -0.9083 -1.7038
   46CHL1   C16 3351   5.490   5.240   7.821 -0.0947 -0.1530 -0.0138
   46CHL1  H16A 3352   5.580   5.194   7.866  1.0466  1.1151 -0.9116
   46CHL1  H16B 3353   5.459   5.332   7.875  1.7016  0.0782  0.6512
   46CHL1   C17 3354   5.388   5.120   7.823 -0.2458 -0.1046 -0.4472
   46CHL1   H17 3355   5.294   5.180   7.826  1.1386  2.1919 -1.6615
   46CHL1   C13 3356   5.390   5.053   7.688 -0.0939 -0.2389 -0.1913
   46CHL1   C18 3357   5.500   4.948   7.678 -0.2084  0.4639 -0.1837
   46CHL1  H18A 3358   5.513   4.912   7.574  0.1691 -2.4822  0.8446
   46CHL1  H18B 3359   5.601   4.984   7.707 -0.7576  2.2518 -0.4122
   46CHL1  H18C 3360   5.469   4.862   7.741 -0.2409  0.6613  0.0706
   46CHL1   C12 3361   5.261   4.994   7.636 -0.1405  0.0867  0.3499
   46CHL1  H12A 3362   5.236   4.902   7.695 -0.7181  0.5846  0.9003
   46CHL1  H12B 3363   5.176   5.063   7.654  0.9376  1.5862 -0.2891
   46CHL1   C11 3364   5.276   4.954   7.487 -0.1826  0.2483  0.2415
   46CHL1  H11A 3365   5.340   4.863   7.483  0.9333  1.0288  0.1000
   46CHL1  H11B 3366   5.178   4.919   7.448  0.7979 -2.3776  0.0046
   46CHL1    C9 3367   5.331   5.066   7.395 -1.1702  0.1230 -0.8041
   46CHL1    H9 3368   5.255   5.146   7.411 -3.0838 -1.9156  0.6626
   46CHL1   C10 3369   5.340   5.036   7.243  0.0207  0.0058 -0.2065
   46CHL1   C19 3370   5.438   4.923   7.225  0.5945 -0.6951  0.0499
   46CHL1  H19A 3371   5.393   4.829   7.265 -1.9915  0.3056 -0.3620
   46CHL1  H19B 3372   5.467   4.904   7.119 -0.1760  0.7642 -0.4440
   46CHL1  H19C 3373   5.531   4.942   7.281  1.2662  0.9571 -1.5639
   46CHL1    C1 3374   5.199   4.995   7.185 -0.0556 -0.4216  0.2419
   46CHL1   H1A 3375   5.163   4.904   7.237 -0.3123 -1.2029 -1.2697
   46CHL1   H1B 3376   5.132   5.076   7.222 -2.4526 -2.2470  0.0373
   46CHL1    C2 3377   5.206   4.976   7.029  0.0846 -0.3490 -0.0792
   46CHL1   H2A 3378   5.106   4.949   6.987  0.1166  1.7844 -1.6015
   46CHL1   H2B 3379   5.272   4.888   7.016 -0.7212 -0.9998  0.1447
   46CHL1   C20 3380   5.396   5.032   7.953 -0.4867  0.1880  0.4674
   46CHL1   H20 3381   5.496   4.983   7.944 -1.2022 -1.0528 -0.9866
   46CHL1   C21 3382   5.282   4.932   7.960  0.6502  0.4891 -0.2176
   46CHL1  H21A 3383   5.267   4.889   8.061  2.8975  0.4030  0.1188
   46CHL1  H21B 3384   5.297   4.850   7.886 -1.9770  0.2445 -0.5102
   46CHL1  H21C 3385   5.187   4.982   7.931 -0.6446 -0.1537  2.7481
   46CHL1   C22 3386   5.394   5.111   8.084  0.1803 -0.2710 -0.0855
   46CHL1  H22A 3387   5.466   5.195   8.090 -0.8831  0.4471  3.7910
   46CHL1  H22B 3388   5.293   5.156   8.099 -0.0059 -1.0125  0.9070
   46CHL1   C23 3389   5.420   5.031   8.216  0.5337  0.0917 -0.4537
   46CHL1  H23A 3390   5.324   4.984   8.249  0.6751 -0.4124 -0.7407
   46CHL1  H23B 3391   5.499   4.955   8.200  1.2727  0.6854  0.3756
   46CHL1   C24 3392   5.462   5.130   8.333 -0.1437 -0.0582 -0.1150
   46CHL1  H24A 3393   5.561   5.179   8.319  0.2856 -0.2770  1.9323
   46CHL1  H24B 3394   5.387   5.211   8.339 -0.2798 -0.2364  0.7963
   46CHL1   C25 3395   5.470   5.062   8.470  0.2182 -0.3082 -0.0060
   46CHL1   H25 3396   5.383   4.992   8.471 -1.0203  1.1823 -0.4277
   46CHL1   C26 3397   5.601   4.980   8.467  0.0590 -0.4596  0.3322
   46CHL1  H26A 3398   5.685   5.043   8.432  0.0456  0.0760  1.2671
   46CHL1  H26B 3399   5.622   4.958   8.574  0.4024  2.8961  1.0081
   46CHL1  H26C 3400   5.589   4.890   8.403  1.6322 -0.7031  0.3698
   46CHL1   C27 3401   5.468   5.155   8.590  0.2201 -0.3049 -0.2737
   46CHL1  H27A 3402   5.544   5.231   8.565 -0.7616  0.3107 -1.3990
   46CHL1  H27B 3403   5.360   5.184   8.591  0.3189  0.0560 -0.1591
   46CHL1  H27C 3404   5.494   5.095   8.680  0.5516  1.5621  0.9058
   47CHL1    C3 3405   4.422   5.134   6.799 -0.0693  0.1738 -0.1620
   47CHL1    H3 3406   4.482   5.227   6.811  0.5190 -0.2626  0.3132
   47CHL1    O3 3407   4.377   5.123   6.664  0.6910  0.0636  0.4042
   47CHL1   H3' 3408   4.326   5.043   6.653 -0.2744  0.4684  1.8277
   47CHL1    C4 3409   4.515   5.019   6.826  0.1068 -0.9935 -0.3277
   47CHL1   H4A 3410   4.458   4.925   6.819 -0.2884 -0.9288  1.6480
   47CHL1   H4B 3411   4.594   5.014   6.748  1.8789  2.1888  1.1208
   47CHL1    C5 3412   4.576   5.021   6.968  0.4951  0.7736  0.4785
   47CHL1    C6 3413   4.711   5.037   6.990 -0.3928  0.4331 -0.7557
   47CHL1    H6 3414   4.773   5.043   6.899  0.9257  1.0691  0.1680
   47CHL1    C7 3415   4.769   5.031   7.128  0.1978  0.9978 -0.1432
   47CHL1   H7A 3416   4.850   4.956   7.142 -1.0796 -0.5583 -0.9931
   47CHL1   H7B 3417   4.828   5.121   7.155  1.5488  0.3978 -1.0677
   47CHL1    C8 3418   4.665   5.001   7.243  0.5056 -0.2362 -0.0743
   47CHL1    H8 3419   4.649   4.891   7.250  0.0609 -0.0828  1.4074
   47CHL1   C14 3420   4.729   5.053   7.370  0.0330  0.2677 -0.0969
   47CHL1   H14 3421   4.747   5.162   7.362  2.6472 -0.0595  0.9173
   47CHL1   C15 3422   4.866   4.995   7.407  0.1101 -0.9738 -0.3210
   47CHL1  H15A 3423   4.867   4.890   7.372  2.0060 -0.6417 -1.3704
   47CHL1  H15B 3424   4.948   5.051   7.355  2.2396 -0.6723  3.1961
   47CHL1   C16 3425   4.876   5.005   7.560 -0.8381  0.0842 -0.2644
   47CHL1  H16A 3426   4.913   4.911   7.606  2.4788  2.4579  2.1911
   47CHL1  H16B 3427   4.959   5.070   7.593 -0.5262 -0.9815  1.1046
   47CHL1   C17 3428   4.733   5.059   7.608 -0.5205 -0.3613  0.0281
   47CHL1   H17 3429   4.741   5.170   7.608 -1.8798 -0.2552  0.5188
   47CHL1   C13 3430   4.634   5.031   7.494  0.1646  0.3528  0.0727
   47CHL1   C18 3431   4.585   4.894   7.506 -0.8645  0.3172 -0.1178
   47CHL1  H18A 3432   4.532   4.858   7.415  0.7178  0.3714 -1.0796
   47CHL1  H18B 3433   4.672   4.828   7.527 -0.4386  0.8378 -0.2569
   47CHL1  H18C 3434   4.510   4.893   7.588 -0.0902  1.1499  0.6169
   47CHL1   C12 3435   4.509   5.121   7.465 -0.2917 -0.5876 -0.0012
   47CHL1  H12A 3436   4.432   5.117   7.545 -1.5905  1.2440 -1.1097
   47CHL1  H12B 3437   4.551   5.223   7.454  0.6019 -0.5094  3.5678
   47CHL1   C11 3438   4.435   5.088   7.335  0.4565  0.0468  0.1740
   47CHL1  H11A 3439   4.390   4.987   7.347 -1.1972  0.4863 -2.0849
   47CHL1  H11B 3440   4.354   5.163   7.321  0.6671  0.9401  3.3141
   47CHL1    C9 3441   4.532   5.082   7.215 -0.5919  0.5183 -0.5816
   47CHL1    H9 3442   4.562   5.187   7.195  0.4503  0.4801  0.7293
   47CHL1   C10 3443   4.466   5.031   7.087  0.4432 -0.0416  0.4667
   47CHL1   C19 3444   4.414   4.883   7.101 -0.5094 -0.7799 -0.4207
   47CHL1  H19A 3445   4.318   4.883   7.156 -1.4943  3.4587 -1.9517
   47CHL1  H19B 3446   4.392   4.845   6.999 -2.6981  1.7040 -0.9381
   47CHL1  H19C 3447   4.488   4.813   7.145 -0.4011 -1.0597 -1.0337
   47CHL1    C1 3448   4.353   5.131   7.048  0.0035 -0.1183 -0.3614
   47CHL1   H1A 3449   4.264   5.107   7.110 -0.2549 -0.4782 -0.8704
   47CHL1   H1B 3450   4.392   5.232   7.071  1.1562 -0.7014  0.2606
   47CHL1    C2 3451   4.307   5.122   6.899 -0.5474 -0.3804 -0.8017
   47CHL1   H2A 3452   4.234   5.202   6.876  0.5409  0.0384 -2.9136
   47CHL1   H2B 3453   4.249   5.029   6.877 -1.2168  0.5244 -2.9202
   47CHL1   C20 3454   4.696   5.022   7.760 -0.1796  0.1769 -0.1860
   47CHL1   H20 3455   4.669   4.914   7.766  2.6061 -0.6817 -1.9050
   47CHL1   C21 3456   4.571   5.101   7.801  0.1306  0.5509  0.3836
   47CHL1  H21A 3457   4.488   5.078   7.731  0.3234 -0.8766  0.5993
   47CHL1  H21B 3458   4.597   5.209   7.797 -2.3703  1.1189 -1.2251
   47CHL1  H21C 3459   4.536   5.084   7.905  2.1463  0.3041  1.0464
   47CHL1   C22 3460   4.814   5.044   7.865 -0.5503 -0.8179  0.1267
   47CHL1  H22A 3461   4.914   5.009   7.832  1.1877  2.9593  1.0984
   47CHL1  H22B 3462   4.832   5.153   7.869  0.4439 -1.0204  2.5511
   47CHL1   C23 3463   4.781   4.987   8.008  0.0145  0.6331 -0.1846
   47CHL1  H23A 3464   4.700   5.056   8.040 -1.1919 -0.1717 -1.4440
   47CHL1  H23B 3465   4.745   4.884   7.987 -0.3345  0.6361  0.3990
   47CHL1   C24 3466   4.905   4.983   8.106  0.0969  0.5976  0.2675
   47CHL1  H24A 3467   4.980   4.907   8.075 -1.8460 -0.5057 -1.8082
   47CHL1  H24B 3468   4.951   5.084   8.108 -2.7907  1.9673  2.5109
   47CHL1   C25 3469   4.879   4.928   8.246  0.4425 -0.4452  0.2111
   47CHL1   H25 3470   4.795   4.993   8.281  0.8109 -0.2831  0.8156
   47CHL1   C26 3471   4.829   4.784   8.241  0.0680  0.0745  0.2029
   47CHL1  H26A 3472   4.905   4.724   8.186  0.7845  1.4737 -0.3689
   47CHL1  H26B 3473   4.814   4.741   8.342  0.3644 -2.9207 -0.9546
   47CHL1  H26C 3474   4.732   4.787   8.187  1.0465  3.3380 -1.5228
   47CHL1   C27 3475   4.992   4.947   8.346  0.0298 -0.4686  0.1350
   47CHL1  H27A 3476   5.076   4.886   8.305  0.4197 -0.7711  1.3652
   47CHL1  H27B 3477   5.022   5.054   8.357 -1.3864 -0.2166  1.7258
   47CHL1  H27C 3478   4.961   4.904   8.443  0.2755 -0.0938  0.3845
   48CHL1    C3 3479   1.428   1.476   6.407 -0.5133 -0.0342 -0.0992
   48CHL1    H3 3480   1.455   1.371   6.388 -0.6877 -0.3612  1.4202
   48CHL1    O3 3481   1.359   1.537   6.294  0.1071  0.1647 -0.4730
   48CHL1   H3' 3482   1.345   1.627   6.322 -1.2555  0.3745 -1.7943
   48CHL1    C4 3483   1.333   1.481   6.524 -0.1096  0.4224 -0.8080
   48CHL1   H4A 3484   1.292   1.584   6.527  2.2525  1.3560  1.1274
   48CHL1   H4B 3485   1.249   1.413   6.498  0.4056 -0.6976  0.3945
   48CHL1    C5 3486   1.388   1.451   6.666  0.3795 -0.1626 -0.2938
   48CHL1    C6 3487   1.325   1.366   6.749 -0.3482  0.7561 -0.0441
   48CHL1    H6 3488   1.242   1.305   6.710 -1.0246  2.4004 -1.2601
   48CHL1    C7 3489   1.377   1.330   6.884  0.6408 -0.1782  0.1500
   48CHL1   H7A 3490   1.298   1.344   6.961 -0.9626 -0.2472 -1.4418
   48CHL1   H7B 3491   1.430   1.232   6.889  0.5734 -0.1811  0.9315
   48CHL1    C8 3492   1.479   1.435   6.934 -0.4359  0.6655  1.3574
   48CHL1    H8 3493   1.414   1.522   6.957 -1.2679  0.5673 -0.5512
   48CHL1   C14 3494   1.550   1.373   7.058 -0.0334 -0.3174  0.5955
   48CHL1   H14 3495   1.601   1.281   7.023  0.4504 -0.8272  2.5429
   48CHL1   C15 3496   1.470   1.324   7.188 -0.1453  0.6965 -0.2752
   48CHL1  H15A 3497   1.381   1.388   7.206  0.3196  0.7653  1.9154
   48CHL1  H15B 3498   1.440   1.218   7.171  2.7144  0.0270 -1.4745
   48CHL1   C16 3499   1.568   1.316   7.304 -0.7417 -0.1014 -0.3277
   48CHL1  H16A 3500   1.528   1.367   7.395 -0.5378  3.1497 -1.9901
   48CHL1  H16B 3501   1.604   1.214   7.329 -0.0622  0.3043  0.3958
   48CHL1   C17 3502   1.698   1.390   7.240  0.1178 -0.0775  0.3605
   48CHL1   H17 3503   1.764   1.310   7.199  0.9526  0.5062  0.5329
   48CHL1   C13 3504   1.658   1.469   7.111  0.2458  0.4465 -0.1027
   48CHL1   C18 3505   1.586   1.591   7.173  0.3363 -0.4135 -0.6020
   48CHL1  H18A 3506   1.506   1.562   7.244  1.3973  2.3545  1.8467
   48CHL1  H18B 3507   1.652   1.658   7.232  0.6595 -0.7336 -0.5988
   48CHL1  H18C 3508   1.540   1.649   7.090  0.2233  0.1196 -0.1712
   48CHL1   C12 3509   1.762   1.491   6.996  0.0124  0.4277 -0.1827
   48CHL1  H12A 3510   1.850   1.545   7.039  0.2949  0.7738 -1.1723
   48CHL1  H12B 3511   1.789   1.387   6.971 -0.3351 -0.7255  3.8492
   48CHL1   C11 3512   1.701   1.553   6.875  0.1464 -0.2381  0.3022
   48CHL1  H11A 3513   1.655   1.649   6.906 -0.9209 -0.4454 -0.6175
   48CHL1  H11B 3514   1.779   1.571   6.798  0.0915  0.7690  0.4692
   48CHL1    C9 3515   1.580   1.470   6.824 -0.0261  0.7744  0.2019
   48CHL1    H9 3516   1.621   1.368   6.806  0.3715  0.6428  1.8180
   48CHL1   C10 3517   1.521   1.530   6.693 -0.3858 -0.4110  0.0855
   48CHL1   C19 3518   1.475   1.678   6.721 -0.4322  0.8176  0.4098
   48CHL1  H19A 3519   1.411   1.669   6.812 -0.3944  0.5879  0.4131
   48CHL1  H19B 3520   1.565   1.742   6.723  0.1751  0.0282 -0.7148
   48CHL1  H19C 3521   1.411   1.725   6.644  1.6659 -1.7879 -3.0806
   48CHL1    C1 3522   1.610   1.517   6.570 -0.4472 -0.4302  0.2975
   48CHL1   H1A 3523   1.701   1.581   6.577 -0.2215 -0.5744 -1.2093
   48CHL1   H1B 3524   1.653   1.415   6.570 -0.1467 -0.3032 -0.4847
   48CHL1    C2 3525   1.558   1.553   6.431 -0.7364  0.1590  0.1190
   48CHL1   H2A 3526   1.617   1.528   6.340  0.5040 -1.5243  1.3581
   48CHL1   H2B 3527   1.537   1.662   6.427  2.6360  0.9098  1.1901
   48CHL1   C20 3528   1.778   1.458   7.351 -0.5105  0.3483 -0.2979
   48CHL1   H20 3529   1.724   1.541   7.401  0.4507 -0.0729  1.4730
   48CHL1   C21 3530   1.904   1.519   7.298 -0.3222 -0.6492  0.5970
   48CHL1  H21A 3531   1.965   1.567   7.377 -0.9999 -0.6692  1.1277
   48CHL1  H21B 3532   1.885   1.596   7.220  1.9348  0.1117  0.7452
   48CHL1  H21C 3533   1.957   1.438   7.242 -2.9957 -3.6443  2.2326
   48CHL1   C22 3534   1.826   1.348   7.458  0.2417  0.0958 -0.0241
   48CHL1  H22A 3535   1.733   1.303   7.496  0.0039 -0.1429 -0.8679
   48CHL1  H22B 3536   1.871   1.269   7.394  1.5634 -0.3756  1.4476
   48CHL1   C23 3537   1.912   1.392   7.575 -0.3424 -0.1944 -0.0302
   48CHL1  H23A 3538   2.019   1.394   7.544 -0.1499  2.0607  0.6733
   48CHL1  H23B 3539   1.885   1.496   7.603  0.5490  0.6979 -2.3154
   48CHL1   C24 3540   1.900   1.296   7.694 -0.0546  0.4717 -0.1372
   48CHL1  H24A 3541   1.809   1.322   7.753  1.5655 -0.8181  3.0380
   48CHL1  H24B 3542   1.893   1.187   7.673 -0.1563  0.6461 -1.0292
   48CHL1   C25 3543   2.019   1.318   7.794 -0.9872  0.4168  0.1399
   48CHL1   H25 3544   2.112   1.302   7.734  0.7637 -0.1302  2.9128
   48CHL1   C26 3545   2.010   1.461   7.847  0.0713  0.5734  0.4046
   48CHL1  H26A 3546   1.907   1.493   7.876 -0.2927 -0.8222  0.6761
   48CHL1  H26B 3547   2.073   1.468   7.938 -0.2799 -0.1992  0.7035
   48CHL1  H26C 3548   2.047   1.530   7.767 -0.7894 -1.0186 -1.3983
   48CHL1   C27 3549   2.016   1.213   7.911  0.1784  0.2214  0.9134
   48CHL1  H27A 3550   1.986   1.114   7.868  0.5090  0.6049 -0.2313
   48CHL1  H27B 3551   2.116   1.214   7.959 -0.7435  0.2937  2.8764
   48CHL1  H27C 3552   1.938   1.246   7.982 -1.7168  0.2773 -1.1153
   49CHL1    C3 3553   0.257   1.734   6.678  0.0802  0.5596 -0.4979
   49CHL1    H3 3554   0.182   1.807   6.714 -1.5186 -0.9970 -0.5959
   49CHL1    O3 3555   0.235   1.718   6.542  0.7499  0.0138 -0.1229
   49CHL1   H3' 3556   0.218   1.628   6.514  1.5181 -0.9597  2.4316
   49CHL1    C4 3557   0.401   1.791   6.697  0.2561  0.8972 -0.4074
   49CHL1   H4A 3558   0.466   1.714   6.652 -2.3590 -0.3555 -2.1878
   49CHL1   H4B 3559   0.404   1.890   6.646  1.4919  1.1804  0.2055
   49CHL1    C5 3560   0.438   1.799   6.844 -0.6474  0.1584  0.3269
   49CHL1    C6 3561   0.498   1.916   6.886  0.3032  0.2947  0.2209
   49CHL1    H6 3562   0.513   1.996   6.812  1.0612 -0.9451 -0.9830
   49CHL1    C7 3563   0.538   1.925   7.028 -0.6677  0.2187 -0.2955
   49CHL1   H7A 3564   0.632   1.985   7.024  0.1166 -1.0053 -0.2454
   49CHL1   H7B 3565   0.454   1.976   7.080 -1.8337 -4.2700  2.4153
   49CHL1    C8 3566   0.551   1.788   7.101  0.6128 -0.1844  0.0166
   49CHL1    H8 3567   0.632   1.727   7.055  1.3369  1.2885 -0.6987
   49CHL1   C14 3568   0.577   1.813   7.253 -0.4842  0.0137  0.5894
   49CHL1   H14 3569   0.487   1.872   7.283 -0.4381 -0.4992  1.7862
   49CHL1   C15 3570   0.692   1.900   7.298 -0.0506  0.2931 -0.5049
   49CHL1  H15A 3571   0.775   1.869   7.231  0.8604  1.3153  0.1139
   49CHL1  H15B 3572   0.688   2.009   7.280  1.4666  0.6184  0.9525
   49CHL1   C16 3573   0.738   1.854   7.436  0.6806  0.4099 -0.1746
   49CHL1  H16A 3574   0.838   1.807   7.424 -0.0767 -0.8172 -1.8438
   49CHL1  H16B 3575   0.737   1.939   7.508  2.3373  0.5839 -0.3456
   49CHL1   C17 3576   0.634   1.744   7.473 -0.1493  0.2860 -0.5007
   49CHL1   H17 3577   0.538   1.786   7.512 -2.6851 -1.4394 -4.5999
   49CHL1   C13 3578   0.579   1.687   7.341 -0.5026  0.0354 -0.4040
   49CHL1   C18 3579   0.692   1.586   7.293  0.8139 -0.4768 -0.1221
   49CHL1  H18A 3580   0.672   1.573   7.184 -0.5920  0.1297  0.0482
   49CHL1  H18B 3581   0.793   1.631   7.298  0.9761 -0.9827  1.2613
   49CHL1  H18C 3582   0.691   1.491   7.350 -2.9113  0.3266  1.3206
   49CHL1   C12 3583   0.438   1.625   7.326  0.0054 -0.6309 -0.2277
   49CHL1  H12A 3584   0.431   1.529   7.381 -1.9151 -0.7520 -0.6546
   49CHL1  H12B 3585   0.355   1.695   7.349  1.4812  0.6555  1.2957
   49CHL1   C11 3586   0.406   1.588   7.179 -0.2152  0.9412 -0.3837
   49CHL1  H11A 3587   0.478   1.506   7.158 -1.6772 -0.7269  0.8767
   49CHL1  H11B 3588   0.310   1.532   7.174 -0.6366  1.7192 -1.0558
   49CHL1    C9 3589   0.419   1.710   7.083  0.1063 -0.6397  0.2025
   49CHL1    H9 3590   0.332   1.775   7.107  1.7949  1.6424  0.2844
   49CHL1   C10 3591   0.405   1.676   6.933  0.4225 -0.1208 -0.0687
   49CHL1   C19 3592   0.484   1.547   6.906  0.2682 -0.0365  0.2137
   49CHL1  H19A 3593   0.428   1.453   6.926  0.0778 -0.4814 -2.2319
   49CHL1  H19B 3594   0.512   1.547   6.798 -2.1242 -1.3804 -0.4306
   49CHL1  H19C 3595   0.587   1.541   6.948  0.8425  0.1501 -1.1599
   49CHL1    C1 3596   0.252   1.640   6.910 -0.8025 -0.0870  0.3542
   49CHL1   H1A 3597   0.227   1.560   6.982 -1.4689  0.1760  0.4187
   49CHL1   H1B 3598   0.191   1.730   6.933 -1.0225 -0.0605 -0.3114
   49CHL1    C2 3599   0.226   1.607   6.760 -0.1802 -0.0749 -0.0388
   49CHL1   H2A 3600   0.117   1.586   6.748 -0.4699  1.3158  0.0770
   49CHL1   H2B 3601   0.280   1.516   6.727 -0.0652 -0.6567  1.7024
   49CHL1   C20 3602   0.675   1.639   7.580 -0.0822  0.1234 -0.4355
   49CHL1   H20 3603   0.767   1.584   7.549 -0.4507 -1.0148  0.4173
   49CHL1   C21 3604   0.568   1.524   7.599 -0.0298 -0.3842 -0.3754
   49CHL1  H21A 3605   0.570   1.457   7.510  1.3727 -1.6647  0.5898
   49CHL1  H21B 3606   0.465   1.561   7.617 -0.1122 -2.4317  3.8259
   49CHL1  H21C 3607   0.598   1.468   7.690 -0.6023 -0.9399 -0.5257
   49CHL1   C22 3608   0.704   1.708   7.715 -0.6711  0.4695  0.3387
   49CHL1  H22A 3609   0.699   1.819   7.704 -0.1820  0.3755 -0.8637
   49CHL1  H22B 3610   0.626   1.682   7.790 -0.6056  1.5691  0.8072
   49CHL1   C23 3611   0.832   1.661   7.778  0.0640  0.3370 -0.1559
   49CHL1  H23A 3612   0.835   1.550   7.780 -0.8183  0.2145 -3.1109
   49CHL1  H23B 3613   0.908   1.709   7.713  0.2897 -0.1128 -0.2260
   49CHL1   C24 3614   0.842   1.725   7.920 -0.1732  0.4529  0.1525
   49CHL1  H24A 3615   0.885   1.827   7.911 -1.4525  0.9731 -0.1299
   49CHL1  H24B 3616   0.739   1.738   7.959  0.5199  1.3783  1.7408
   49CHL1   C25 3617   0.940   1.650   8.017  0.5093 -0.0521  0.4402
   49CHL1   H25 3618   0.887   1.556   8.043 -0.0102 -0.5121 -2.1151
   49CHL1   C26 3619   1.068   1.604   7.943 -0.6418  0.4363 -0.1043
   49CHL1  H26A 3620   1.148   1.587   8.017  0.1718 -0.2292 -1.1096
   49CHL1  H26B 3621   1.046   1.511   7.886 -1.4520 -1.1497  2.7326
   49CHL1  H26C 3622   1.102   1.685   7.875 -0.1442  0.9059  0.7063
   49CHL1   C27 3623   0.957   1.729   8.138 -0.1145 -0.3715 -0.1797
   49CHL1  H27A 3624   1.017   1.674   8.214 -0.4674  3.4982  3.0630
   49CHL1  H27B 3625   1.010   1.822   8.109  2.0445 -1.2392  0.9250
   49CHL1  H27C 3626   0.860   1.765   8.180  0.6501  0.0013  1.3082
   50CHL1    C3 3627   1.048   2.715   6.911  0.1186  0.0653 -0.2471
   50CHL1    H3 3628   1.073   2.608   6.923  0.0063 -0.3272 -3.3270
   50CHL1    O3 3629   1.001   2.739   6.780 -0.0833 -0.4398 -0.3374
   50CHL1   H3' 3630   1.001   2.835   6.772  0.5700 -0.6449 -3.0419
   50CHL1    C4 3631   0.938   2.751   7.018  0.2275  0.8752 -0.0857
   50CHL1   H4A 3632   0.914   2.859   7.008 -1.3232  0.9328  3.5415
   50CHL1   H4B 3633   0.843   2.697   7.000 -0.8374  3.1863 -1.5836
   50CHL1    C5 3634   0.991   2.718   7.157  0.4035 -0.6944  0.4718
   50CHL1    C6 3635   0.932   2.620   7.231  0.5018  0.5083  0.8876
   50CHL1    H6 3636   0.842   2.570   7.193  1.4267 -2.5514  2.5761
   50CHL1    C7 3637   0.977   2.588   7.371 -0.3410 -0.2888 -0.7109
   50CHL1   H7A 3638   0.893   2.577   7.442 -0.5563  1.2734 -0.7197
   50CHL1   H7B 3639   1.035   2.493   7.377  0.4060  0.0790 -1.8125
   50CHL1    C8 3640   1.063   2.696   7.425  0.2343 -0.4423 -0.0745
   50CHL1    H8 3641   1.004   2.786   7.451  1.2938  0.4144 -0.5939
   50CHL1   C14 3642   1.140   2.642   7.549 -0.8302 -0.1525  0.7577
   50CHL1   H14 3643   1.208   2.569   7.501  0.6698  2.5186 -1.3552
   50CHL1   C15 3644   1.069   2.555   7.652 -0.7984  0.3280  0.2730
   50CHL1  H15A 3645   0.988   2.623   7.686 -1.3900 -0.3995  0.3186
   50CHL1  H15B 3646   1.028   2.456   7.623  0.7741 -0.6271  1.2187
   50CHL1   C16 3647   1.163   2.555   7.770 -0.3291  0.2245 -0.2673
   50CHL1  H16A 3648   1.111   2.594   7.860  2.2066 -0.1427  1.4066
   50CHL1  H16B 3649   1.190   2.449   7.792  0.3176  0.8345  1.9895
   50CHL1   C17 3650   1.283   2.650   7.741 -0.4772 -0.7076  0.2617
   50CHL1   H17 3651   1.370   2.597   7.696 -1.4575 -0.9271 -1.3878
   50CHL1   C13 3652   1.237   2.740   7.629  0.0304 -0.2183  0.1241
   50CHL1   C18 3653   1.146   2.850   7.681 -0.3140  0.0647  0.0338
   50CHL1  H18A 3654   1.205   2.900   7.761 -0.3667  1.4619 -0.7872
   50CHL1  H18B 3655   1.140   2.923   7.597  1.6002 -0.6594 -0.7520
   50CHL1  H18C 3656   1.046   2.821   7.719  0.8702 -1.1267  2.3874
   50CHL1   C12 3657   1.339   2.797   7.529 -0.5990 -0.4707 -0.1322
   50CHL1  H12A 3658   1.401   2.880   7.569  1.5674 -1.7195 -0.7993
   50CHL1  H12B 3659   1.408   2.713   7.505  1.4544  1.2311 -0.3715
   50CHL1   C11 3660   1.274   2.840   7.396  0.2378 -0.7484  0.2043
   50CHL1  H11A 3661   1.225   2.938   7.414 -0.5807 -1.3597  1.3691
   50CHL1  H11B 3662   1.361   2.853   7.329  0.5728  0.7488  0.9149
   50CHL1    C9 3663   1.173   2.745   7.326 -0.1006 -0.2776 -0.7541
   50CHL1    H9 3664   1.239   2.659   7.301  0.4171 -0.1810  0.2355
   50CHL1   C10 3665   1.117   2.787   7.195  0.2769  0.8237  0.4699
   50CHL1   C19 3666   1.072   2.935   7.205 -0.7164 -0.3427 -0.4344
   50CHL1  H19A 3667   1.035   2.983   7.112 -1.3495 -0.4172 -0.2239
   50CHL1  H19B 3668   1.002   2.949   7.290  0.8700 -1.0203  1.0090
   50CHL1  H19C 3669   1.160   2.997   7.230 -2.7703  2.6164 -0.2136
   50CHL1    C1 3670   1.223   2.781   7.081  0.5496 -0.3330 -0.4272
   50CHL1   H1A 3671   1.300   2.854   7.115 -0.7448 -0.2263  2.3614
   50CHL1   H1B 3672   1.271   2.681   7.078  1.1378 -0.0912  0.7265
   50CHL1    C2 3673   1.175   2.801   6.940 -0.0278 -0.2034 -0.6131
   50CHL1   H2A 3674   1.253   2.778   6.864 -0.3669 -0.7263 -0.8050
   50CHL1   H2B 3675   1.161   2.911   6.933  1.5799  0.0596  0.1329
   50CHL1   C20 3676   1.346   2.710   7.871 -0.0197  0.0937 -0.0574
   50CHL1   H20 3677   1.269   2.775   7.918 -0.6781 -0.2177 -0.6892
   50CHL1   C21 3678   1.474   2.790   7.850  0.4801 -0.2574 -0.3540
   50CHL1  H21A 3679   1.457   2.867   7.772 -1.4800  0.6584  0.9175
   50CHL1  H21B 3680   1.560   2.731   7.812  0.4345 -0.9981  0.6617
   50CHL1  H21C 3681   1.504   2.845   7.941  1.1139 -0.2056 -0.5932
   50CHL1   C22 3682   1.371   2.598   7.969 -0.2808  0.3819 -0.2331
   50CHL1  H22A 3683   1.282   2.532   7.977 -1.1058  1.3667 -1.0482
   50CHL1  H22B 3684   1.449   2.529   7.930  0.4300 -0.4245  2.5228
   50CHL1   C23 3685   1.402   2.639   8.115  0.0893 -0.5548  0.4575
   50CHL1  H23A 3686   1.504   2.678   8.129 -0.3648  0.8315 -0.0355
   50CHL1  H23B 3687   1.327   2.718   8.138 -0.9152 -1.7814  1.5175
   50CHL1   C24 3688   1.377   2.518   8.205 -0.0405  0.2348  0.1883
   50CHL1  H24A 3689   1.279   2.470   8.186  1.4629 -2.3029 -1.3380
   50CHL1  H24B 3690   1.465   2.453   8.188 -0.5175 -0.8792  1.7729
   50CHL1   C25 3691   1.385   2.561   8.350 -0.3284 -0.4230  0.0549
   50CHL1   H25 3692   1.308   2.636   8.376 -1.1413 -0.7126 -1.4635
   50CHL1   C26 3693   1.357   2.443   8.442  0.9080 -0.2138 -0.1931
   50CHL1  H26A 3694   1.329   2.474   8.545 -2.3571  1.6042 -1.5773
   50CHL1  H26B 3695   1.270   2.388   8.402  1.3276 -1.4844  0.6106
   50CHL1  H26C 3696   1.445   2.374   8.440  0.1710 -1.1435 -0.5558
   50CHL1   C27 3697   1.536   2.613   8.382  0.2717  0.5434  0.0728
   50CHL1  H27A 3698   1.550   2.640   8.489  0.8414 -0.3134  0.2240
   50CHL1  H27B 3699   1.614   2.538   8.356  0.1521  0.3219  0.3561
   50CHL1  H27C 3700   1.564   2.703   8.324  1.3161  0.4283  0.3933
   51CHL1    C3 3701   0.951   2.294   6.798 -0.6436  0.0395  0.0481
   51CHL1    H3 3702   0.921   2.395   6.833  1.5739  0.2830  1.3284
   51CHL1    O3 3703   0.927   2.285   6.660 -0.5946 -0.4031  0.0976
   51CHL1   H3' 3704   0.944   2.195   6.632  0.8863 -0.8052  2.1504
   51CHL1    C4 3705   1.103   2.286   6.838  0.0395  0.0047 -0.1380
   51CHL1   H4A 3706   1.153   2.205   6.781  0.1660 -1.4876  2.0145
   51CHL1   H4B 3707   1.144   2.382   6.802 -0.9521  0.6907  0.5285
   51CHL1    C5 3708   1.131   2.276   6.990 -0.4501 -0.1823 -0.6480
   51CHL1    C6 3709   1.208   2.370   7.057 -0.2572 -0.8729 -0.1025
   51CHL1    H6 3710   1.243   2.460   7.003 -2.1224  0.7323  1.2779
   51CHL1    C7 3711   1.255   2.355   7.198 -0.2481  0.6882 -0.1146
   51CHL1   H7A 3712   1.362   2.376   7.217  0.2103 -0.4567 -1.4181
   51CHL1   H7B 3713   1.202   2.433   7.258 -0.6652  0.4123 -0.1243
   51CHL1    C8 3714   1.220   2.219   7.261  0.3541  0.4919  0.0716
   51CHL1    H8 3715   1.280   2.139   7.213 -1.7436 -1.3570  0.4398
   51CHL1   C14 3716   1.237   2.229   7.410 -0.2623  0.1287  0.1893
   51CHL1   H14 3717   1.161   2.304   7.440  0.1466  0.0649  1.4122
   51CHL1   C15 3718   1.362   2.280   7.472  0.2064  0.6970 -0.4437
   51CHL1  H15A 3719   1.451   2.244   7.416 -0.8482 -2.2009 -0.3324
   51CHL1  H15B 3720   1.379   2.389   7.481 -1.5707  0.8804  1.0445
   51CHL1   C16 3721   1.369   2.218   7.610  0.8328  0.5753  0.5848
   51CHL1  H16A 3722   1.446   2.139   7.617  0.7403  0.4653  0.3528
   51CHL1  H16B 3723   1.382   2.290   7.694 -0.0084  2.4443 -0.8324
   51CHL1   C17 3724   1.234   2.141   7.633 -0.1020 -0.4714  0.6452
   51CHL1   H17 3725   1.172   2.225   7.671 -0.4623 -0.2808 -0.3487
   51CHL1   C13 3726   1.189   2.103   7.491 -0.7485  0.2471  0.6291
   51CHL1   C18 3727   1.283   1.980   7.445 -0.4346 -0.0886 -0.0644
   51CHL1  H18A 3728   1.274   1.958   7.336 -1.5274 -0.1555  0.0261
   51CHL1  H18B 3729   1.391   2.001   7.458 -0.6240  1.5063 -0.9276
   51CHL1  H18C 3730   1.256   1.889   7.503  0.9558 -0.7861 -0.5014
   51CHL1   C12 3731   1.042   2.085   7.455  0.3511 -0.6077  0.6310
   51CHL1  H12A 3732   1.006   1.992   7.503 -2.4671  0.0475 -0.0782
   51CHL1  H12B 3733   0.991   2.178   7.488  0.5768 -0.0199 -0.6412
   51CHL1   C11 3734   1.018   2.065   7.304  0.3151  0.0209 -1.0168
   51CHL1  H11A 3735   1.056   1.967   7.268 -0.3030 -0.6564  0.1651
   51CHL1  H11B 3736   0.908   2.066   7.289  0.0797 -3.0325  0.1833
   51CHL1    C9 3737   1.074   2.187   7.221 -0.0839  0.5883  0.2007
   51CHL1    H9 3738   1.014   2.279   7.236 -0.8062  0.2385 -0.4756
   51CHL1   C10 3739   1.059   2.164   7.069 -0.1217 -0.1243 -0.4235
   51CHL1   C19 3740   1.127   2.031   7.018  0.9343 -1.0206 -0.4086
   51CHL1  H19A 3741   1.099   2.006   6.914 -1.7557  0.8713 -0.1834
   51CHL1  H19B 3742   1.235   2.034   7.044  1.0649  0.8533 -1.1541
   51CHL1  H19C 3743   1.080   1.946   7.072 -2.5595 -0.7780 -2.9487
   51CHL1    C1 3744   0.905   2.168   7.023 -0.5838  0.0626  0.1441
   51CHL1   H1A 3745   0.859   2.073   7.057 -0.7104  0.3255  0.7201
   51CHL1   H1B 3746   0.857   2.252   7.077 -0.0765 -0.3689  1.2832
   51CHL1    C2 3747   0.874   2.178   6.866 -0.0534  0.9035 -1.0438
   51CHL1   H2A 3748   0.766   2.200   6.850 -0.8008 -1.9944 -0.2333
   51CHL1   H2B 3749   0.890   2.077   6.823 -0.6676  0.1566  0.4604
   51CHL1   C20 3750   1.236   2.045   7.747 -0.5673  0.2811 -0.6024
   51CHL1   H20 3751   1.296   1.954   7.724  0.4893  0.8169 -0.0247
   51CHL1   C21 3752   1.092   1.981   7.766 -0.0190 -0.2855 -0.5973
   51CHL1  H21A 3753   1.013   2.059   7.779 -0.9006 -0.8801 -2.3329
   51CHL1  H21B 3754   1.076   1.940   7.868  3.8817  1.2885  0.7318
   51CHL1  H21C 3755   1.064   1.904   7.692 -1.0187  1.0509 -1.6495
   51CHL1   C22 3756   1.269   2.112   7.876  0.7235  0.2187  0.0807
   51CHL1  H22A 3757   1.347   2.190   7.865  0.1451  1.1959  2.5739
   51CHL1  H22B 3758   1.181   2.170   7.913 -0.2204 -0.1265 -1.5717
   51CHL1   C23 3759   1.319   2.017   7.986  0.6431 -0.1195 -0.6383
   51CHL1  H23A 3760   1.237   1.947   8.011 -0.4159  0.5323 -2.2145
   51CHL1  H23B 3761   1.409   1.968   7.943 -0.3946 -1.1288 -1.7085
   51CHL1   C24 3762   1.352   2.109   8.106  0.0237  0.4460  0.6028
   51CHL1  H24A 3763   1.446   2.163   8.084  0.7862 -1.3499 -0.6057
   51CHL1  H24B 3764   1.269   2.182   8.115 -3.0101 -2.5860 -1.6143
   51CHL1   C25 3765   1.359   2.037   8.242 -0.4607 -0.7749  0.2359
   51CHL1   H25 3766   1.412   2.109   8.308 -0.9036  0.1911 -0.4468
   51CHL1   C26 3767   1.218   2.021   8.296  0.6697 -0.1808 -0.0459
   51CHL1  H26A 3768   1.156   2.112   8.282  0.0743 -0.5328  0.2528
   51CHL1  H26B 3769   1.156   1.941   8.249 -0.8858  1.0361 -0.1218
   51CHL1  H26C 3770   1.223   1.989   8.402  1.1424 -1.5885 -0.4728
   51CHL1   C27 3771   1.442   1.902   8.244  0.4626  1.3611  0.1717
   51CHL1  H27A 3772   1.539   1.906   8.189  0.2134 -0.1108 -0.4085
   51CHL1  H27B 3773   1.454   1.883   8.352  0.7917  3.3666  0.5132
   51CHL1  H27C 3774   1.383   1.826   8.188  0.5229  1.9886 -0.7695
   52CHL1    C3 3775   2.760   3.167   7.105  1.0587 -0.5837  1.3702
   52CHL1    H3 3776   2.657   3.128   7.112  0.0354  1.3277 -1.7391
   52CHL1    O3 3777   2.793   3.205   6.969  0.8427  0.0212 -0.3882
   52CHL1   H3' 3778   2.882   3.177   6.949  0.0170 -3.1995  0.1541
   52CHL1    C4 3779   2.786   3.290   7.189 -0.6579 -1.4159 -0.0645
   52CHL1   H4A 3780   2.884   3.338   7.168 -2.7090  1.6594 -3.1724
   52CHL1   H4B 3781   2.705   3.359   7.155  0.4955 -0.3316 -0.6549
   52CHL1    C5 3782   2.774   3.251   7.338 -0.3412  0.4771  0.3560
   52CHL1    C6 3783   2.672   3.298   7.419 -0.3758  0.4573 -0.1326
   52CHL1    H6 3784   2.604   3.375   7.380 -2.3429 -1.4033 -0.4539
   52CHL1    C7 3785   2.654   3.253   7.560  0.3820  0.0511 -0.5627
   52CHL1   H7A 3786   2.638   3.347   7.617  1.7536 -0.2499  0.3383
   52CHL1   H7B 3787   2.569   3.181   7.566  0.6081 -0.1880 -0.1974
   52CHL1    C8 3788   2.784   3.190   7.621  0.8988  0.2927  0.0526
   52CHL1    H8 3789   2.856   3.272   7.637 -0.5459  2.1285 -2.4225
   52CHL1   C14 3790   2.752   3.126   7.751  0.7358  0.4220 -0.0194
   52CHL1   H14 3791   2.680   3.043   7.732  0.4172  0.2711  1.7566
   52CHL1   C15 3792   2.674   3.206   7.856 -0.8866  0.3311 -0.4907
   52CHL1  H15A 3793   2.730   3.302   7.854  0.1886 -0.3286 -3.1823
   52CHL1  H15B 3794   2.570   3.222   7.818 -0.2167  1.5823 -1.8357
   52CHL1   C16 3795   2.689   3.125   7.988  0.4007  0.5092 -0.2163
   52CHL1  H16A 3796   2.737   3.188   8.065 -0.6152  0.6195  0.3338
   52CHL1  H16B 3797   2.604   3.068   8.033  1.3458  0.4105  1.4855
   52CHL1   C17 3798   2.782   3.013   7.953  1.1013 -0.0304 -0.7497
   52CHL1   H17 3799   2.715   2.931   7.920 -0.4098  1.1199 -0.6038
   52CHL1   C13 3800   2.859   3.064   7.825  0.3945  0.2183  0.6509
   52CHL1   C18 3801   2.964   3.173   7.874  0.4982 -0.3426 -0.0795
   52CHL1  H18A 3802   3.051   3.130   7.929  1.6882 -1.9091 -3.0296
   52CHL1  H18B 3803   3.008   3.223   7.785  1.2891 -0.6225  0.1446
   52CHL1  H18C 3804   2.922   3.250   7.941 -0.0589 -1.3907  0.8040
   52CHL1   C12 3805   2.923   2.953   7.728 -0.4594 -0.1335  0.1973
   52CHL1  H12A 3806   3.014   2.905   7.771 -0.7011  0.4361  1.3666
   52CHL1  H12B 3807   2.853   2.872   7.700 -0.8442  0.6680 -1.2014
   52CHL1   C11 3808   2.955   3.006   7.588  0.8283  0.4543 -0.3739
   52CHL1  H11A 3809   3.045   3.071   7.597  1.2242  0.1669 -2.0941
   52CHL1  H11B 3810   2.989   2.930   7.515  2.3726  0.0302  0.7392
   52CHL1    C9 3811   2.841   3.092   7.524 -0.8029 -0.2458 -0.3702
   52CHL1    H9 3812   2.760   3.017   7.519 -1.9765  0.5811  4.3910
   52CHL1   C10 3813   2.869   3.139   7.380  0.1085  0.3155 -0.1306
   52CHL1   C19 3814   3.009   3.200   7.378 -0.2884 -0.4630  0.2765
   52CHL1  H19A 3815   3.023   3.278   7.456  0.0151 -1.1634  0.9329
   52CHL1  H19B 3816   3.081   3.118   7.399  1.0676  0.8697  0.9593
   52CHL1  H19C 3817   3.034   3.251   7.282  0.3858  3.0531  2.2145
   52CHL1    C1 3818   2.867   3.016   7.277  0.2402  0.3643  0.3155
   52CHL1   H1A 3819   2.947   2.941   7.293  0.5785  0.5774 -0.3454
   52CHL1   H1B 3820   2.769   2.972   7.305  0.3522  0.8755  1.5445
   52CHL1    C2 3821   2.864   3.051   7.133  0.2194  0.2383 -0.1269
   52CHL1   H2A 3822   2.832   2.972   7.062  0.2029  0.9075 -0.8608
   52CHL1   H2B 3823   2.967   3.088   7.115  1.0392 -0.5061  2.6480
   52CHL1   C20 3824   2.867   2.952   8.070 -0.2509 -0.0506 -0.0150
   52CHL1   H20 3825   2.969   2.996   8.062 -0.0591 -0.2186  1.3720
   52CHL1   C21 3826   2.870   2.797   8.044  0.6997 -0.4643 -0.2139
   52CHL1  H21A 3827   2.928   2.748   8.125 -0.1623 -2.2902 -0.6784
   52CHL1  H21B 3828   2.919   2.768   7.949  2.5438  0.5628  0.3986
   52CHL1  H21C 3829   2.763   2.767   8.042  0.9159 -1.1910 -0.9357
   52CHL1   C22 3830   2.817   2.976   8.213  0.1332  0.3797 -0.1222
   52CHL1  H22A 3831   2.841   3.084   8.225 -0.4603  0.7776 -2.3124
   52CHL1  H22B 3832   2.708   2.964   8.229  0.6182 -2.1936  1.4521
   52CHL1   C23 3833   2.890   2.901   8.324 -0.0524 -0.3047  1.2853
   52CHL1  H23A 3834   2.871   2.792   8.310 -1.6643  0.1559 -0.2116
   52CHL1  H23B 3835   3.000   2.920   8.320 -0.2278  0.5105  0.0292
   52CHL1   C24 3836   2.833   2.916   8.464  0.1334 -0.0928 -0.3871
   52CHL1  H24A 3837   2.839   3.025   8.489  0.6276 -0.1298 -0.3345
   52CHL1  H24B 3838   2.726   2.896   8.486  0.7464 -1.5232  1.4169
   52CHL1   C25 3839   2.918   2.844   8.574  0.5609  0.0606  0.2852
   52CHL1   H25 3840   3.021   2.881   8.560  1.2725 -1.6551  0.8942
   52CHL1   C26 3841   2.875   2.877   8.718 -0.0228  0.4060  0.3724
   52CHL1  H26A 3842   2.954   2.840   8.786 -0.3907  2.1870  1.8440
   52CHL1  H26B 3843   2.865   2.988   8.721  2.1119  0.5983  0.7166
   52CHL1  H26C 3844   2.781   2.822   8.739 -0.0434 -0.1387 -1.0792
   52CHL1   C27 3845   2.924   2.696   8.554 -0.2215  1.0874 -0.2457
   52CHL1  H27A 3846   2.978   2.654   8.642  0.0337  2.1942  0.1446
   52CHL1  H27B 3847   2.818   2.666   8.564  0.3680 -1.0533 -0.2264
   52CHL1  H27C 3848   2.967   2.662   8.458 -3.2534 -2.2915 -0.4810
   53CHL1    C3 3849   5.556   6.653   6.894 -0.2054  0.5967  0.6712
   53CHL1    H3 3850   5.454   6.695   6.905  0.1983  1.9435 -0.5591
   53CHL1    O3 3851   5.599   6.654   6.760  0.2466  0.4158 -0.1021
   53CHL1   H3' 3852   5.559   6.576   6.721 -0.7024  0.7081  0.2819
   53CHL1    C4 3853   5.644   6.739   6.985  0.6232  0.4652  0.7897
   53CHL1   H4A 3854   5.751   6.714   6.973  1.2388  3.5655 -0.5954
   53CHL1   H4B 3855   5.638   6.844   6.948 -2.0011 -0.6182 -2.1004
   53CHL1    C5 3856   5.596   6.737   7.130 -0.3791  0.9632  0.1599
   53CHL1    C6 3857   5.558   6.854   7.192 -0.4494 -0.5647 -0.3827
   53CHL1    H6 3858   5.564   6.948   7.135 -2.8310  0.1006  0.3783
   53CHL1    C7 3859   5.525   6.861   7.338 -0.5210 -0.1230  0.3118
   53CHL1   H7A 3860   5.569   6.947   7.393 -0.7672  1.7156 -2.2632
   53CHL1   H7B 3861   5.414   6.866   7.347 -0.6448 -1.0696 -0.5541
   53CHL1    C8 3862   5.567   6.720   7.412  0.2500  0.6271  0.1384
   53CHL1    H8 3863   5.677   6.724   7.427  0.4640  0.0768 -1.1713
   53CHL1   C14 3864   5.502   6.722   7.548 -0.2210 -0.4932  1.0284
   53CHL1   H14 3865   5.396   6.712   7.515 -0.1926  2.7953 -0.2949
   53CHL1   C15 3866   5.509   6.852   7.634  0.3119  0.7798 -0.4185
   53CHL1  H15A 3867   5.614   6.889   7.635  0.2228  1.0270  1.0949
   53CHL1  H15B 3868   5.438   6.922   7.586  0.2334  0.2482 -1.0879
   53CHL1   C16 3869   5.461   6.801   7.769  0.2074  0.6266  0.5451
   53CHL1  H16A 3870   5.540   6.830   7.841 -1.2804  2.7359  1.3730
   53CHL1  H16B 3871   5.365   6.849   7.796 -0.8735 -0.8311 -0.5970
   53CHL1   C17 3872   5.453   6.646   7.759 -0.3237 -0.1018 -0.6338
   53CHL1   H17 3873   5.346   6.625   7.737 -0.1289 -2.2812  0.3463
   53CHL1   C13 3874   5.531   6.605   7.637 -0.2027  0.0011 -0.5614
   53CHL1   C18 3875   5.683   6.592   7.665  0.3088  0.3350 -0.0798
   53CHL1  H18A 3876   5.713   6.508   7.732 -1.7803  0.9483  1.6569
   53CHL1  H18B 3877   5.734   6.577   7.567  2.0795 -1.0821  1.0092
   53CHL1  H18C 3878   5.723   6.686   7.707 -1.5239  0.1063  2.2875
   53CHL1   C12 3879   5.473   6.486   7.555  0.0530  0.3503  0.6505
   53CHL1  H12A 3880   5.472   6.394   7.617  3.3851 -0.9288 -1.0889
   53CHL1  H12B 3881   5.363   6.504   7.550 -0.1688 -1.3072 -0.7320
   53CHL1   C11 3882   5.529   6.465   7.412 -0.2380 -0.0629 -0.3763
   53CHL1  H11A 3883   5.635   6.435   7.426  0.2641 -0.0106 -3.6718
   53CHL1  H11B 3884   5.464   6.391   7.360 -0.2358  1.4430 -2.5492
   53CHL1    C9 3885   5.525   6.594   7.331  0.4580  0.5915  0.0204
   53CHL1    H9 3886   5.419   6.616   7.309  0.2759  1.8081  1.9771
   53CHL1   C10 3887   5.595   6.596   7.196  0.2858 -0.2613  0.3468
   53CHL1   C19 3888   5.747   6.550   7.196  0.1281 -0.5831 -0.3693
   53CHL1  H19A 3889   5.760   6.442   7.222 -1.3163 -0.6176  0.2755
   53CHL1  H19B 3890   5.806   6.571   7.104  1.9034  0.4866  0.9702
   53CHL1  H19C 3891   5.812   6.601   7.270 -2.8142  2.1483  0.4267
   53CHL1    C1 3892   5.519   6.500   7.102  0.2822  0.0201  0.3985
   53CHL1   H1A 3893   5.519   6.392   7.131  0.1808 -0.3690 -1.0018
   53CHL1   H1B 3894   5.409   6.519   7.104  0.2134 -0.2622 -0.3900
   53CHL1    C2 3895   5.559   6.512   6.952  0.2818  0.1063  1.4774
   53CHL1   H2A 3896   5.509   6.442   6.882  2.7560 -1.2347  1.0288
   53CHL1   H2B 3897   5.661   6.470   6.957  0.5412  0.6704  1.0103
   53CHL1   C20 3898   5.467   6.572   7.899 -0.3450 -0.2440  0.9509
   53CHL1   H20 3899   5.570   6.583   7.938  0.0768 -0.9226  0.0551
   53CHL1   C21 3900   5.435   6.421   7.882 -0.0582  0.1034 -0.1551
   53CHL1  H21A 3901   5.336   6.396   7.839  0.0190 -1.1997  0.3827
   53CHL1  H21B 3902   5.450   6.378   7.984 -1.6045 -1.8574 -0.7274
   53CHL1  H21C 3903   5.510   6.378   7.812 -0.6093  4.0877 -3.3524
   53CHL1   C22 3904   5.375   6.628   8.007  0.4729  0.0777  0.2795
   53CHL1  H22A 3905   5.387   6.739   8.005 -1.1658  0.2535 -0.7940
   53CHL1  H22B 3906   5.268   6.606   7.986  0.9696 -0.2683 -1.9629
   53CHL1   C23 3907   5.420   6.587   8.150 -0.0002 -0.3859 -0.0719
   53CHL1  H23A 3908   5.385   6.483   8.164 -1.3495 -0.3262 -2.7573
   53CHL1  H23B 3909   5.532   6.585   8.148  0.0169  1.1325 -2.0119
   53CHL1   C24 3910   5.355   6.675   8.262  0.0428 -0.1673  0.2818
   53CHL1  H24A 3911   5.353   6.784   8.239 -0.8146 -0.2132  0.1380
   53CHL1  H24B 3912   5.251   6.639   8.260  0.1954 -0.5675 -0.8568
   53CHL1   C25 3913   5.422   6.651   8.393 -0.1499 -0.7026 -0.2533
   53CHL1   H25 3914   5.419   6.540   8.402  1.3414 -0.6171  1.4207
   53CHL1   C26 3915   5.566   6.689   8.398 -0.4565  0.6307 -0.3585
   53CHL1  H26A 3916   5.606   6.656   8.496 -0.4281  0.5074 -0.4115
   53CHL1  H26B 3917   5.630   6.636   8.324 -0.6926 -1.3416  0.8208
   53CHL1  H26C 3918   5.568   6.798   8.381 -0.6713  0.8881  1.1740
   53CHL1   C27 3919   5.331   6.717   8.502 -0.4245  0.2112 -0.0263
   53CHL1  H27A 3920   5.222   6.706   8.482 -0.3658 -0.7703  0.2160
   53CHL1  H27B 3921   5.343   6.656   8.594 -2.3847 -2.4097 -1.4604
   53CHL1  H27C 3922   5.358   6.824   8.520  1.6030 -0.2089 -0.5842
   54CHL1    C3 3923   6.203   1.290   7.049  0.9912  0.0561 -0.4795
   54CHL1    H3 3924   6.102   1.288   7.096 -0.1672 -2.1011 -2.9189
   54CHL1    O3 3925   6.195   1.336   6.917  0.2661 -0.7157  0.7630
   54CHL1   H3' 3926   6.286   1.339   6.886 -0.5467  0.3509 -1.6135
   54CHL1    C4 3927   6.312   1.381   7.124  0.2776  0.0197 -0.0124
   54CHL1   H4A 3928   6.398   1.386   7.054 -0.4363 -1.9549 -1.1048
   54CHL1   H4B 3929   6.256   1.477   7.133  0.6427  0.2201  0.1175
   54CHL1    C5 3930   6.374   1.334   7.253  0.0006 -0.4027 -0.6165
   54CHL1    C6 3931   6.374   1.412   7.365  0.4476 -0.0224 -0.4663
   54CHL1    H6 3932   6.348   1.519   7.355 -0.8397 -0.3166 -0.3532
   54CHL1    C7 3933   6.420   1.367   7.504  0.0266 -0.2102 -0.2181
   54CHL1   H7A 3934   6.471   1.446   7.564 -2.1317  1.3185 -0.3300
   54CHL1   H7B 3935   6.327   1.349   7.564  1.0292 -3.8099  0.3560
   54CHL1    C8 3936   6.503   1.242   7.497 -0.5463 -0.1762  0.0650
   54CHL1    H8 3937   6.604   1.263   7.456  0.0551  0.6922  1.9589
   54CHL1   C14 3938   6.518   1.175   7.631 -0.7444 -0.0465  0.7880
   54CHL1   H14 3939   6.414   1.150   7.661 -1.1384  0.5137 -0.0898
   54CHL1   C15 3940   6.575   1.258   7.756 -0.0282  0.5424 -0.1523
   54CHL1  H15A 3941   6.666   1.320   7.741  0.6266 -0.3422  0.1619
   54CHL1  H15B 3942   6.504   1.333   7.798 -0.6578  0.3674 -0.8989
   54CHL1   C16 3943   6.611   1.153   7.856 -0.0865  0.3582 -0.3128
   54CHL1  H16A 3944   6.718   1.164   7.886  0.1735  0.4251 -1.2696
   54CHL1  H16B 3945   6.545   1.162   7.945 -1.0110  2.3635 -1.1785
   54CHL1   C17 3946   6.590   1.014   7.791  0.1864  0.6624 -0.1286
   54CHL1   H17 3947   6.490   0.976   7.820 -0.3355  2.3195  0.3044
   54CHL1   C13 3948   6.584   1.040   7.640  0.4160  0.3937  0.1343
   54CHL1   C18 3949   6.733   1.070   7.594  0.3858  0.0009 -0.0742
   54CHL1  H18A 3950   6.782   0.971   7.589  2.3105  0.8680  1.0009
   54CHL1  H18B 3951   6.729   1.112   7.491  0.2443 -0.9952 -0.4842
   54CHL1  H18C 3952   6.786   1.137   7.666 -0.2235  1.8630 -1.3203
   54CHL1   C12 3953   6.506   0.943   7.550 -0.7527  0.8703  0.2281
   54CHL1  H12A 3954   6.559   0.845   7.554 -0.9109  0.7907  0.3873
   54CHL1  H12B 3955   6.406   0.920   7.592  0.2948  0.6813  2.6786
   54CHL1   C11 3956   6.491   0.992   7.407  0.1670  0.4583 -0.3753
   54CHL1  H11A 3957   6.588   0.985   7.353 -0.4809  1.2464 -1.6610
   54CHL1  H11B 3958   6.425   0.927   7.346  1.8473 -0.0851 -1.6535
   54CHL1    C9 3959   6.434   1.142   7.397  0.2332  0.2389 -0.6176
   54CHL1    H9 3960   6.334   1.120   7.440 -0.0966  0.1063 -1.4406
   54CHL1   C10 3961   6.418   1.182   7.253 -0.2106  0.5694 -0.5874
   54CHL1   C19 3962   6.550   1.173   7.177  0.3686  0.1099 -0.9754
   54CHL1  H19A 3963   6.593   1.071   7.183 -0.8319 -0.3426  0.5563
   54CHL1  H19B 3964   6.535   1.208   7.073 -2.8311  0.5438 -0.4460
   54CHL1  H19C 3965   6.623   1.234   7.235 -0.8990 -0.3234  1.1372
   54CHL1    C1 3966   6.308   1.100   7.192 -0.1213  0.0591  0.0343
   54CHL1   H1A 3967   6.338   0.994   7.182 -1.6152 -0.2411 -1.6374
   54CHL1   H1B 3968   6.216   1.104   7.255  0.7537 -2.2514  1.4988
   54CHL1    C2 3969   6.249   1.142   7.055  0.1611  0.8238 -0.0781
   54CHL1   H2A 3970   6.181   1.060   7.025  1.7385 -1.0015  1.1809
   54CHL1   H2B 3971   6.336   1.125   6.987 -1.8500 -2.7603 -1.9285
   54CHL1   C20 3972   6.690   0.915   7.846 -0.4148 -0.6649 -0.1191
   54CHL1   H20 3973   6.791   0.924   7.800  0.1850  0.1405  1.3406
   54CHL1   C21 3974   6.647   0.771   7.813 -0.2824 -0.1845  0.2944
   54CHL1  H21A 3975   6.690   0.747   7.713  2.3628 -3.1821  2.0708
   54CHL1  H21B 3976   6.539   0.752   7.800 -0.5641  1.9246 -0.7141
   54CHL1  H21C 3977   6.695   0.695   7.878  0.2380  0.1325  0.2870
   54CHL1   C22 3978   6.706   0.918   7.997  0.5344  0.3723 -0.0680
   54CHL1  H22A 3979   6.764   0.831   8.035 -0.7869 -0.6318 -0.3200
   54CHL1  H22B 3980   6.756   1.009   8.035  1.0078 -0.3362  1.0322
   54CHL1   C23 3981   6.578   0.892   8.071  0.3340  0.3693 -0.6011
   54CHL1  H23A 3982   6.496   0.964   8.048 -1.2656 -0.7932  1.3305
   54CHL1  H23B 3983   6.544   0.788   8.053 -1.4110  0.5710  1.3235
   54CHL1   C24 3984   6.596   0.920   8.223 -0.1052  0.0313  0.5318
   54CHL1  H24A 3985   6.694   0.874   8.245  0.2353  0.9627  1.0059
   54CHL1  H24B 3986   6.609   1.029   8.242 -1.6101  0.0693  1.4120
   54CHL1   C25 3987   6.492   0.864   8.329  0.3953  0.4089  0.1491
   54CHL1   H25 3988   6.447   0.773   8.284 -0.2976  0.0140  1.6008
   54CHL1   C26 3989   6.561   0.833   8.459  0.0080 -0.3360 -0.0375
   54CHL1  H26A 3990   6.485   0.821   8.538 -1.2340  3.5437 -0.5629
   54CHL1  H26B 3991   6.613   0.735   8.458 -0.9164 -0.8402 -2.0010
   54CHL1  H26C 3992   6.635   0.914   8.476 -0.6911  0.3946 -0.4123
   54CHL1   C27 3993   6.367   0.954   8.345 -0.3816 -0.6031  1.1833
   54CHL1  H27A 3994   6.300   0.898   8.414  0.0262  0.1210  2.1883
   54CHL1  H27B 3995   6.391   1.053   8.391  2.2413 -0.6650  0.0728
   54CHL1  H27C 3996   6.309   0.968   8.252 -0.9437  0.1666  1.6419
   55CHL1    C3 3997   5.979   2.989   7.051  0.3117 -0.0534 -0.6027
   55CHL1    H3 3998   6.060   2.918   7.079  1.6161  2.2944  1.8727
   55CHL1    O3 3999   6.007   3.025   6.918  0.4473 -0.1393 -0.2363
   55CHL1   H3' 4000   6.022   2.944   6.868 -1.7278 -0.8868  0.2948
   55CHL1    C4 4001   5.835   2.935   7.082 -0.8018  0.3070 -0.5592
   55CHL1   H4A 4002   5.771   2.998   7.017  1.6982  3.3413 -0.1760
   55CHL1   H4B 4003   5.843   2.833   7.037  2.5098  0.1171  0.3276
   55CHL1    C5 4004   5.787   2.922   7.223  0.6350  0.1195 -0.6562
   55CHL1    C6 4005   5.734   2.802   7.263  0.4045  0.2196  0.2830
   55CHL1    H6 4006   5.734   2.727   7.183 -2.5879 -0.2969  0.6898
   55CHL1    C7 4007   5.698   2.774   7.404  0.1583  0.2966 -0.2602
   55CHL1   H7A 4008   5.595   2.733   7.413  0.5791 -0.2548  2.4886
   55CHL1   H7B 4009   5.765   2.694   7.442 -1.1410 -0.2481  0.9090
   55CHL1    C8 4010   5.695   2.904   7.497 -0.8151  0.5399 -0.1386
   55CHL1    H8 4011   5.600   2.956   7.474  0.0229  2.1285 -0.0776
   55CHL1   C14 4012   5.697   2.866   7.638  0.5156  0.8594 -0.1782
   55CHL1   H14 4013   5.794   2.814   7.654  0.3400  0.4146 -0.5397
   55CHL1   C15 4014   5.594   2.764   7.677  0.0203  0.3309  0.8206
   55CHL1  H15A 4015   5.497   2.789   7.629  0.5835  0.8259 -0.0801
   55CHL1  H15B 4016   5.613   2.660   7.642 -0.6143  1.0336 -1.7177
   55CHL1   C16 4017   5.609   2.779   7.831  0.3410 -0.2065  0.4481
   55CHL1  H16A 4018   5.506   2.779   7.873  0.0531 -1.6887 -0.2213
   55CHL1  H16B 4019   5.667   2.696   7.876 -2.5816 -2.2848  0.5129
   55CHL1   C17 4020   5.687   2.917   7.872  0.4466  0.3619  0.0423
   55CHL1   H17 4021   5.786   2.876   7.901 -0.1649 -0.0273  1.6781
   55CHL1   C13 4022   5.679   2.985   7.732 -0.5163  0.6986 -0.1877
   55CHL1   C18 4023   5.543   3.063   7.709 -0.1697  0.4554  0.9020
   55CHL1  H18A 4024   5.544   3.155   7.772  1.8603  1.7928 -0.9899
   55CHL1  H18B 4025   5.526   3.104   7.607 -3.4476  1.7173  1.8996
   55CHL1  H18C 4026   5.457   2.997   7.734  1.5189 -1.3379  2.1877
   55CHL1   C12 4027   5.808   3.072   7.706 -0.4000 -0.2117  0.3050
   55CHL1  H12A 4028   5.815   3.161   7.771 -1.4044  0.1336 -0.0470
   55CHL1  H12B 4029   5.896   3.016   7.743 -1.2525 -1.0102  1.1538
   55CHL1   C11 4030   5.821   3.116   7.557 -0.0342 -0.0823 -0.0350
   55CHL1  H11A 4031   5.744   3.195   7.539  2.1133  2.4121  1.3575
   55CHL1  H11B 4032   5.921   3.162   7.542  0.9210 -1.8139  0.8917
   55CHL1    C9 4033   5.812   2.992   7.460  0.1779 -0.5749 -0.1335
   55CHL1    H9 4034   5.901   2.930   7.485  0.9832  0.3669 -0.6332
   55CHL1   C10 4035   5.823   3.043   7.317 -0.0534 -0.1251 -0.2227
   55CHL1   C19 4036   5.720   3.157   7.277  0.4021 -0.6159 -0.0303
   55CHL1  H19A 4037   5.620   3.138   7.322  0.5371 -1.8458 -0.2238
   55CHL1  H19B 4038   5.753   3.255   7.317  2.5487 -0.8559 -1.1319
   55CHL1  H19C 4039   5.712   3.164   7.166 -1.3939  2.3457  0.2356
   55CHL1    C1 4040   5.969   3.091   7.285  0.6323 -0.1193  0.1764
   55CHL1   H1A 4041   5.979   3.187   7.340 -2.1603 -0.1427  0.7837
   55CHL1   H1B 4042   6.050   3.023   7.319 -0.8031 -2.3939 -0.8258
   55CHL1    C2 4043   5.995   3.114   7.135  0.5797  0.2068 -0.3846
   55CHL1   H2A 4044   6.099   3.148   7.121  1.3368 -1.2867  1.4415
   55CHL1   H2B 4045   5.923   3.190   7.096 -1.4022 -1.0587  0.7434
   55CHL1   C20 4046   5.637   2.997   7.992  0.2731 -0.3548  1.0534
   55CHL1   H20 4047   5.537   3.040   7.970 -0.3180 -2.1286  0.1721
   55CHL1   C21 4048   5.729   3.120   8.017 -0.8576  0.5137 -0.0828
   55CHL1  H21A 4049   5.707   3.177   8.110 -0.5285  1.4078 -0.5428
   55CHL1  H21B 4050   5.721   3.194   7.935 -0.2810 -1.7821 -2.2800
   55CHL1  H21C 4051   5.835   3.088   8.027 -0.4640  1.4644 -1.1342
   55CHL1   C22 4052   5.627   2.914   8.119  0.7883 -0.1161 -0.3700
   55CHL1  H22A 4053   5.595   2.809   8.098  0.0385 -0.7865  3.7626
   55CHL1  H22B 4054   5.726   2.915   8.169  0.4307  1.9995  0.3190
   55CHL1   C23 4055   5.542   2.966   8.242 -0.0647 -0.4376 -0.0381
   55CHL1  H23A 4056   5.572   3.069   8.271  0.9034 -1.3400  2.2144
   55CHL1  H23B 4057   5.440   2.976   8.196 -0.2032 -1.5010  0.0431
   55CHL1   C24 4058   5.544   2.867   8.355 -0.2731  0.0830  0.4313
   55CHL1  H24A 4059   5.510   2.765   8.324 -2.7535  1.2006 -0.6999
   55CHL1  H24B 4060   5.646   2.876   8.396  0.1014  0.5881 -0.6062
   55CHL1   C25 4061   5.444   2.904   8.468  0.0376 -0.6671  0.7081
   55CHL1   H25 4062   5.347   2.887   8.417  1.6912 -1.5662 -2.2306
   55CHL1   C26 4063   5.444   2.810   8.589  0.4691 -0.3813 -0.9937
   55CHL1  H26A 4064   5.534   2.835   8.651 -0.1598 -0.4270 -0.0505
   55CHL1  H26B 4065   5.356   2.831   8.653  1.3775 -0.7193  0.4233
   55CHL1  H26C 4066   5.447   2.705   8.552  1.2782 -0.0808 -1.7897
   55CHL1   C27 4067   5.455   3.056   8.504  0.1735 -0.0258 -0.7674
   55CHL1  H27A 4068   5.387   3.088   8.586 -0.7460  0.9657 -1.9154
   55CHL1  H27B 4069   5.553   3.098   8.536 -0.8313  2.2630 -0.6174
   55CHL1  H27C 4070   5.425   3.130   8.427 -1.6887 -0.6607 -0.6717
   56CHL1    C3 4071   5.355   0.885   6.811  0.6208  0.1011 -0.2008
   56CHL1    H3 4072   5.459   0.846   6.802  0.6415  0.1310 -0.0952
   56CHL1    O3 4073   5.294   0.835   6.694  0.7548  0.1752  0.4781
   56CHL1   H3' 4074   5.229   0.776   6.734 -1.0348  1.7366 -0.0299
   56CHL1    C4 4075   5.278   0.833   6.932 -0.0911 -0.3533  0.5892
   56CHL1   H4A 4076   5.171   0.861   6.930  0.2341  0.8658 -0.1044
   56CHL1   H4B 4077   5.277   0.722   6.939 -4.0008 -0.4760 -0.8200
   56CHL1    C5 4078   5.328   0.901   7.063  0.2164  0.2618 -0.6371
   56CHL1    C6 4079   5.373   0.817   7.164 -0.6358 -0.3896 -0.5576
   56CHL1    H6 4080   5.376   0.709   7.146  1.8230 -0.7895  1.9432
   56CHL1    C7 4081   5.417   0.868   7.300  0.4821 -0.1057  0.2759
   56CHL1   H7A 4082   5.389   0.822   7.397  1.9126  0.7721  1.1215
   56CHL1   H7B 4083   5.528   0.877   7.294  0.5587 -1.6464 -0.7543
   56CHL1    C8 4084   5.370   1.014   7.328 -0.1383 -1.3720  0.9450
   56CHL1    H8 4085   5.260   1.020   7.344 -0.3401 -0.5513 -0.6423
   56CHL1   C14 4086   5.451   1.076   7.441 -0.7073  0.0271  0.2292
   56CHL1   H14 4087   5.555   1.072   7.402 -1.0633  0.2360 -0.7499
   56CHL1   C15 4088   5.458   1.000   7.570  0.0162  0.4105  1.2392
   56CHL1  H15A 4089   5.352   0.971   7.586 -0.1382  1.3112  1.8732
   56CHL1  H15B 4090   5.520   0.907   7.565 -1.6453 -0.6964  0.7240
   56CHL1   C16 4091   5.506   1.096   7.678  0.3351 -0.5727 -0.2438
   56CHL1  H16A 4092   5.452   1.085   7.775  3.2735 -0.4975  1.4788
   56CHL1  H16B 4093   5.614   1.090   7.703  0.8419  2.0369 -1.5908
   56CHL1   C17 4094   5.511   1.240   7.608  0.0073 -0.0982  0.0177
   56CHL1   H17 4095   5.613   1.244   7.564 -0.5755  1.9919 -1.2569
   56CHL1   C13 4096   5.425   1.227   7.477 -0.1873 -0.0484  0.3470
   56CHL1   C18 4097   5.273   1.249   7.524  0.2659  0.3673  0.4125
   56CHL1  H18A 4098   5.258   1.354   7.557  0.8017 -0.2464  2.6630
   56CHL1  H18B 4099   5.197   1.216   7.451 -1.1388  0.1305  1.9574
   56CHL1  H18C 4100   5.252   1.177   7.606  3.7440  0.4207  1.4277
   56CHL1   C12 4101   5.468   1.307   7.349  0.5130  0.3113 -1.3384
   56CHL1  H12A 4102   5.437   1.414   7.349  1.7697  0.6837  0.0123
   56CHL1  H12B 4103   5.577   1.302   7.328  0.5713  1.1706 -1.2535
   56CHL1   C11 4104   5.388   1.255   7.223 -0.5041 -0.5640  0.1018
   56CHL1  H11A 4105   5.284   1.285   7.246 -0.9035 -2.6786  1.0678
   56CHL1  H11B 4106   5.428   1.300   7.129  1.2954  0.4380  1.3102
   56CHL1    C9 4107   5.403   1.099   7.209 -0.7105 -0.1288 -0.2255
   56CHL1    H9 4108   5.511   1.088   7.189 -1.0245 -2.6090 -0.6730
   56CHL1   C10 4109   5.326   1.046   7.083 -0.0816 -0.5551 -0.0447
   56CHL1   C19 4110   5.178   1.096   7.088  0.4315 -0.7583 -1.1038
   56CHL1  H19A 4111   5.131   1.087   6.987  0.1125  0.7034 -1.0841
   56CHL1  H19B 4112   5.118   1.042   7.164 -0.0865  1.8291  0.3499
   56CHL1  H19C 4113   5.177   1.205   7.109  0.7669 -0.7742 -1.0011
   56CHL1    C1 4114   5.397   1.101   6.947 -0.1636 -0.0491  1.2570
   56CHL1   H1A 4115   5.392   1.212   6.949  1.0257  0.0470 -0.3751
   56CHL1   H1B 4116   5.505   1.078   6.956  0.6333  2.0078 -2.2849
   56CHL1    C2 4117   5.356   1.042   6.811  0.4201 -0.6706 -0.0061
   56CHL1   H2A 4118   5.422   1.092   6.737  0.3195  1.8465  1.5718
   56CHL1   H2B 4119   5.249   1.069   6.795  0.1605 -1.3313  0.5729
   56CHL1   C20 4120   5.492   1.365   7.700  1.0056 -0.2337 -0.3948
   56CHL1   H20 4121   5.393   1.361   7.751  1.0647  1.4633 -0.1115
   56CHL1   C21 4122   5.483   1.496   7.614 -0.2188 -0.3180  0.5082
   56CHL1  H21A 4123   5.397   1.500   7.544 -0.6705 -1.7889  0.9739
   56CHL1  H21B 4124   5.577   1.491   7.554  1.0901  2.6433  2.1814
   56CHL1  H21C 4125   5.484   1.591   7.672 -0.9345 -0.4186  0.6822
   56CHL1   C22 4126   5.604   1.370   7.801 -1.0719  1.4014 -0.1355
   56CHL1  H22A 4127   5.605   1.273   7.856 -0.4637  2.8702  2.5172
   56CHL1  H22B 4128   5.698   1.392   7.747 -0.4338 -1.9197 -0.5031
   56CHL1   C23 4129   5.587   1.483   7.911 -0.2057 -0.2492 -0.0382
   56CHL1  H23A 4130   5.564   1.581   7.864  0.9295 -0.3342 -0.8156
   56CHL1  H23B 4131   5.507   1.455   7.983  0.0313  1.7933  1.0244
   56CHL1   C24 4132   5.716   1.504   7.995 -0.1637 -0.2229  0.0805
   56CHL1  H24A 4133   5.740   1.404   8.037  1.6781 -0.0877 -0.6116
   56CHL1  H24B 4134   5.804   1.527   7.931 -0.4678 -1.7149 -0.9057
   56CHL1   C25 4135   5.702   1.615   8.110 -0.4791  0.3609 -0.1722
   56CHL1   H25 4136   5.680   1.711   8.058 -0.1185  1.4277  1.6000
   56CHL1   C26 4137   5.583   1.576   8.193 -0.4920 -0.1188 -0.7626
   56CHL1  H26A 4138   5.577   1.652   8.274  0.7428  0.7008 -1.4173
   56CHL1  H26B 4139   5.600   1.475   8.238 -0.2813  0.2687  0.0509
   56CHL1  H26C 4140   5.486   1.575   8.139  0.0659 -0.1799 -1.7595
   56CHL1   C27 4141   5.835   1.632   8.187 -0.4229  0.0727 -0.0122
   56CHL1  H27A 4142   5.927   1.648   8.127  0.2013 -2.3308  0.2680
   56CHL1  H27B 4143   5.826   1.722   8.252  1.1109  0.2280  0.0123
   56CHL1  H27C 4144   5.854   1.539   8.244 -0.3998 -0.6501 -1.1846
   57SAPC     N 4145   5.088   3.424  11.053  0.4361 -0.6321 -0.2497
   57SAPC   C12 4146   5.014   3.442  10.922  0.0028  0.2563 -0.1303
   57SAPC  H12A 4147   4.913   3.405  10.919 -0.2509  0.8549  0.7890
   57SAPC  H12B 4148   5.066   3.385  10.847  1.0732  0.5473  0.3758
   57SAPC   C13 4149   5.033   3.516  11.165  0.1500  0.1189 -0.4283
   57SAPC  H13A 4150   5.069   3.474  11.258 -0.9391 -0.5462 -0.2941
   57SAPC  H13B 4151   5.038   3.623  11.150  1.1938  0.2673  0.8423
   57SAPC  H13C 4152   4.927   3.505  11.181  0.2806 -2.7715 -1.2502
   57SAPC   C14 4153   5.074   3.276  11.086  0.0504 -0.1501 -0.3937
   57SAPC  H14A 4154   5.114   3.224  11.000 -1.5516  0.9024 -1.8030
   57SAPC  H14B 4155   5.136   3.255  11.173 -1.7743 -1.1894  0.6759
   57SAPC  H14C 4156   4.971   3.248  11.103 -1.0434  1.6179 -3.7246
   57SAPC   C15 4157   5.234   3.458  11.049  0.2488  0.2051 -0.0852
   57SAPC  H15A 4158   5.299   3.424  11.129  0.3307 -1.9765 -1.0301
   57SAPC  H15B 4159   5.277   3.406  10.965 -0.7329  1.2271 -1.2247
   57SAPC  H15C 4160   5.256   3.561  11.028  0.7272 -0.0371 -0.8013
   57SAPC   C11 4161   5.010   3.585  10.856  0.5445  0.2754 -0.5768
   57SAPC  H11A 4162   4.958   3.662  10.918  0.3424 -0.1042 -0.2699
   57SAPC  H11B 4163   4.953   3.574  10.761  0.5625 -1.5698 -0.3968
   57SAPC     P 4164   5.183   3.781  10.813 -0.0787 -0.0636  0.0949
   57SAPC   O13 4165   5.193   3.836  10.948 -0.3357 -0.9283 -0.5554
   57SAPC   O14 4166   5.296   3.809  10.711 -0.3706 -0.2591 -0.7283
   57SAPC   O12 4167   5.142   3.626  10.815 -0.0999  0.3363  0.0232
   57SAPC   O11 4168   5.051   3.845  10.749  0.0946  0.1160  0.2471
   57SAPC    C1 4169   5.033   3.982  10.732  0.4049 -0.0349 -0.6881
   57SAPC    HA 4170   4.936   4.020  10.770 -0.5524 -2.0285 -1.1200
   57SAPC    HB 4171   5.113   4.041  10.783  0.0663 -0.2545  0.1005
   57SAPC    C2 4172   5.042   4.018  10.576  0.3483  1.3132 -0.2046
   57SAPC    HS 4173   4.973   3.948  10.525  0.8027 -0.4550  1.5450
   57SAPC   O21 4174   5.171   4.006  10.528 -0.0174  0.6471  0.3584
   57SAPC   C21 4175   5.182   3.930  10.423 -0.2309 -0.0068  0.4839
   57SAPC   O22 4176   5.087   3.902  10.350 -1.3751  0.1050 -0.2354
   57SAPC   C22 4177   5.330   3.908  10.390  0.2613 -0.0401 -0.4528
   57SAPC   H2R 4178   5.389   3.981  10.449 -0.3124 -0.2697  0.4197
   57SAPC   H2S 4179   5.356   3.803  10.416 -0.2218  0.2854  1.3873
   57SAPC    C3 4180   4.983   4.162  10.555  0.5921 -0.3544  0.3414
   57SAPC    HX 4181   5.057   4.216  10.618 -1.0334 -0.9281  2.7974
   57SAPC    HY 4182   4.882   4.164  10.601  1.1384  1.0739  1.5254
   57SAPC   O31 4183   4.988   4.215  10.422 -0.1208  0.6475 -0.0779
   57SAPC   C31 4184   4.889   4.165  10.347  0.1158  0.2503 -1.2236
   57SAPC   O32 4185   4.794   4.097  10.386  0.3184 -0.4898  0.0963
   57SAPC   C32 4186   4.909   4.200  10.201 -0.6192 -0.1964  0.6879
   57SAPC   H2X 4187   4.959   4.115  10.150  0.9326  1.3503 -0.4271
   57SAPC   H2Y 4188   4.975   4.289  10.189  0.4337 -1.0784 -0.1275
   57SAPC   C23 4189   5.365   3.923  10.238  0.0662  0.8528 -0.7291
   57SAPC   H3R 4190   5.296   3.863  10.175  2.0754 -1.5668 -0.7100
   57SAPC   H3S 4191   5.468   3.883  10.231 -0.1163  0.5378 -1.6912
   57SAPC   C24 4192   5.363   4.076  10.196  0.4779  0.2368  0.9315
   57SAPC   H4R 4193   5.433   4.129  10.264 -1.1347  0.3830  2.5109
   57SAPC   H4S 4194   5.259   4.113  10.211  0.6372  0.2644  2.0310
   57SAPC   C25 4195   5.401   4.096  10.053 -0.0703 -0.0425 -1.2843
   57SAPC   H5R 4196   5.508   4.116  10.036 -0.2790  2.4218 -0.0109
   57SAPC   C26 4197   5.330   4.118   9.946 -0.4018 -0.2638 -0.8409
   57SAPC   H6R 4198   5.380   4.129   9.848  1.9072  1.6993  0.5158
   57SAPC   C27 4199   5.185   4.123   9.955  0.2968 -0.4645  0.3210
   57SAPC   H7R 4200   5.141   4.165   9.862  1.3389 -0.1038 -0.0094
   57SAPC   H7S 4201   5.150   4.188  10.038 -0.8219 -0.4849 -0.1205
   57SAPC   C28 4202   5.124   3.983   9.969 -1.2635  0.8022 -0.1187
   57SAPC   H8R 4203   5.119   3.948  10.073 -0.6917  2.5450  0.5078
   57SAPC   C29 4204   5.071   3.914   9.868  0.0970 -0.8133  0.2224
   57SAPC   H9R 4205   5.036   3.813   9.894 -1.0616 -0.3936  0.3111
   57SAPC  C210 4206   5.055   3.940   9.719  0.0210  0.5197 -0.3303
   57SAPC  H10R 4207   5.101   3.852   9.669  0.9241  1.5534 -1.3363
   57SAPC  H10S 4208   5.102   4.031   9.677 -2.3399  1.3323 -1.3321
   57SAPC  C211 4209   4.916   3.955   9.674  0.0010 -0.0656  0.4867
   57SAPC  H11R 4210   4.856   4.010   9.748 -1.1347 -1.3079  0.4951
   57SAPC  C212 4211   4.861   3.908   9.565 -0.0571 -0.2737  0.1945
   57SAPC  H12R 4212   4.755   3.927   9.544 -0.0120  0.8812  1.0170
   57SAPC  C213 4213   4.930   3.842   9.448  0.3243  0.4415  0.5279
   57SAPC  H13R 4214   5.027   3.796   9.478 -0.7856  0.0154  3.5838
   57SAPC  H13S 4215   4.960   3.927   9.382  1.8740  0.7351  1.5864
   57SAPC  C214 4216   4.841   3.739   9.380  0.3555  0.0877  0.1814
   57SAPC  H14R 4217   4.768   3.690   9.446 -0.6172  2.0865  0.6331
   57SAPC  C215 4218   4.832   3.711   9.251 -0.2042  0.6541  0.4953
   57SAPC  H15R 4219   4.768   3.630   9.212 -0.7599  1.8026 -1.0164
   57SAPC  C216 4220   4.927   3.765   9.144  0.0913 -0.0708  0.6572
   57SAPC  H16R 4221   4.976   3.686   9.084  3.2989 -0.1736  3.2473
   57SAPC  H16S 4222   5.005   3.830   9.188  1.0661 -0.4115 -0.5597
   57SAPC  C217 4223   4.860   3.862   9.034 -1.0720  0.0321 -0.7009
   57SAPC  H17R 4224   4.945   3.917   8.987 -1.3796  2.3135  1.3077
   57SAPC  H17S 4225   4.802   3.938   9.091 -1.8119 -2.6934  2.3151
   57SAPC  C218 4226   4.759   3.794   8.936 -0.5763  0.0413  0.0080
   57SAPC  H18R 4227   4.678   3.769   9.009  0.3970 -0.7908  0.8157
   57SAPC  H18S 4228   4.806   3.713   8.878  2.0511  0.7416  1.1048
   57SAPC  C219 4229   4.706   3.894   8.830  1.1355  0.1770 -0.0087
   57SAPC  H19R 4230   4.784   3.932   8.761 -0.3131  1.1902 -1.1123
   57SAPC  H19S 4231   4.673   3.967   8.906  2.1186 -1.0519  1.6238
   57SAPC  C220 4232   4.582   3.845   8.751 -0.6689  0.5956  0.5905
   57SAPC  H20R 4233   4.554   3.910   8.666 -2.4458  0.5927  1.1628
   57SAPC  H20S 4234   4.496   3.841   8.820 -1.9228 -0.7603 -1.0253
   57SAPC  H20T 4235   4.607   3.746   8.708 -1.6441  0.6462 -0.0975
   57SAPC   C33 4236   4.770   4.226  10.134  0.3187  0.1690  0.0209
   57SAPC   H3X 4237   4.720   4.301  10.198  0.3558  1.2326 -1.1765
   57SAPC   H3Y 4238   4.721   4.127  10.131  0.4490  0.1376 -1.3235
   57SAPC   C34 4239   4.780   4.281   9.994 -0.6424  0.3088 -0.4154
   57SAPC   H4X 4240   4.814   4.192   9.936 -0.6400 -1.3449  2.0207
   57SAPC   H4Y 4241   4.855   4.361   9.980 -2.3218  2.0762  0.4616
   57SAPC   C35 4242   4.657   4.325   9.932  0.2038  0.0692 -0.1590
   57SAPC   H5X 4243   4.613   4.401  10.001  0.1365 -1.1198  1.1398
   57SAPC   H5Y 4244   4.582   4.244   9.939 -0.7275  1.0038  0.8594
   57SAPC   C36 4245   4.667   4.387   9.794  0.1091 -0.1268 -0.3971
   57SAPC   H6X 4246   4.725   4.482   9.792 -0.6210  0.3653  1.2919
   57SAPC   H6Y 4247   4.564   4.418   9.763  0.5596 -0.7337 -2.6086
   57SAPC   C37 4248   4.715   4.283   9.687  0.2345  0.3485 -0.1428
   57SAPC   H7X 4249   4.635   4.207   9.685  0.8644 -0.3919  1.6436
   57SAPC   H7Y 4250   4.818   4.248   9.708  0.4098  0.7990 -0.2445
   57SAPC   C38 4251   4.719   4.347   9.548  0.3222 -0.3658  0.4109
   57SAPC   H8X 4252   4.809   4.410   9.526 -0.1073  0.0942 -0.0431
   57SAPC   H8Y 4253   4.632   4.413   9.524  0.9127  0.2287 -0.1460
   57SAPC   C39 4254   4.730   4.243   9.428  0.1740  0.4774 -0.7352
   57SAPC   H9X 4255   4.632   4.190   9.433  1.9875 -3.0114 -0.4933
   57SAPC   H9Y 4256   4.811   4.175   9.460 -0.4232 -0.2397 -0.7390
   57SAPC  C310 4257   4.760   4.318   9.296  0.0653  0.1635  0.8907
   57SAPC  H10X 4258   4.855   4.375   9.300 -0.1030  0.9497 -4.1897
   57SAPC  H10Y 4259   4.679   4.393   9.286  0.0251  0.0507  0.3608
   57SAPC  C311 4260   4.777   4.230   9.170 -0.1267  0.4059 -0.1291
   57SAPC  H11X 4261   4.695   4.158   9.150 -0.5396  0.9156 -0.2988
   57SAPC  H11Y 4262   4.864   4.163   9.181 -0.0007  0.8064  1.3603
   57SAPC  C312 4263   4.813   4.302   9.045 -0.4153  0.0303  0.7005
   57SAPC  H12X 4264   4.901   4.367   9.063  2.3389 -3.4384  0.2707
   57SAPC  H12Y 4265   4.730   4.374   9.030 -1.8826 -1.7663 -0.0124
   57SAPC  C313 4266   4.836   4.206   8.920 -0.5292  0.6802 -0.1904
   57SAPC  H13X 4267   4.739   4.160   8.890  0.2940 -2.1671  1.2807
   57SAPC  H13Y 4268   4.904   4.129   8.964 -0.7039  1.1571  0.9123
   57SAPC  C314 4269   4.902   4.269   8.797  0.2021 -0.5365  0.1213
   57SAPC  H14X 4270   4.913   4.208   8.705  1.7671  1.3591 -1.0174
   57SAPC  H14Y 4271   5.010   4.290   8.817  0.4104  1.1628 -2.5163
   57SAPC  C315 4272   4.850   4.407   8.761  0.5522 -0.1754  0.1227
   57SAPC  H15X 4273   4.845   4.472   8.850  1.6048  0.3414 -0.1940
   57SAPC  H15Y 4274   4.753   4.393   8.709 -1.3604 -0.1269  3.5167
   57SAPC  C316 4275   4.935   4.479   8.657  0.6155  0.5653  0.8005
   57SAPC  H16X 4276   4.874   4.557   8.608  1.9705  0.0212 -1.8240
   57SAPC  H16Y 4277   4.966   4.411   8.576 -2.3282  0.8133 -0.5737
   57SAPC  C317 4278   5.068   4.540   8.709 -0.2351  0.1948  0.6167
   57SAPC  H17X 4279   5.138   4.456   8.731 -2.0413 -1.2062  1.2192
   57SAPC  H17Y 4280   5.057   4.596   8.804  0.0047  0.6776  0.3617
   57SAPC  C318 4281   5.118   4.629   8.599 -1.0974 -0.2908 -0.3159
   57SAPC  H18X 4282   5.066   4.727   8.597 -1.4833 -0.4694  0.8322
   57SAPC  H18Y 4283   5.108   4.584   8.498 -2.2619  0.0582 -0.3644
   57SAPC  H18Z 4284   5.227   4.637   8.621 -1.0062 -1.6157 -0.2555
   58SAPC     N 4285   0.959   1.716  10.903 -0.5957  0.5748 -0.0565
   58SAPC   C12 4286   0.931   1.714  10.755  0.2945 -0.2498 -0.3264
   58SAPC  H12A 4287   0.938   1.818  10.726  0.1232  0.0612  0.7425
   58SAPC  H12B 4288   0.834   1.670  10.744  0.9300 -2.1846  1.5213
   58SAPC   C13 4289   1.090   1.786  10.935 -0.3415 -0.6094 -0.2305
   58SAPC  H13A 4290   1.093   1.793  11.043 -0.1175  0.8231 -0.3210
   58SAPC  H13B 4291   1.172   1.730  10.894  1.1200  1.1245  0.2578
   58SAPC  H13C 4292   1.093   1.883  10.888  4.4001 -0.8075 -0.5466
   58SAPC   C14 4293   0.850   1.783  10.974  0.2313 -0.0681 -0.0624
   58SAPC  H14A 4294   0.848   1.883  10.933  1.0412  0.2090  0.5688
   58SAPC  H14B 4295   0.757   1.731  10.956 -0.9621  1.7028  0.8479
   58SAPC  H14C 4296   0.876   1.791  11.079 -0.2024  1.0237 -0.0292
   58SAPC   C15 4297   0.970   1.579  10.959  0.2156  1.0443  0.8923
   58SAPC  H15A 4298   0.982   1.571  11.066  1.4930 -1.0328  0.6258
   58SAPC  H15B 4299   0.881   1.518  10.948  0.4251  0.8936  0.0383
   58SAPC  H15C 4300   1.051   1.530  10.907 -1.1270  0.8137 -1.0643
   58SAPC   C11 4301   1.020   1.625  10.657  0.0895 -0.3683 -0.0741
   58SAPC  H11A 4302   1.122   1.645  10.697 -0.1580 -0.8281  0.8053
   58SAPC  H11B 4303   1.007   1.655  10.551  1.5282 -0.5628 -0.3272
   58SAPC     P 4304   0.866   1.416  10.632  0.1799  0.2895  0.2325
   58SAPC   O13 4305   0.861   1.285  10.707 -0.2093 -0.0690 -0.0502
   58SAPC   O14 4306   0.747   1.506  10.641  0.5488  0.1774 -0.2018
   58SAPC   O12 4307   0.998   1.484  10.678  0.0408 -0.2329  0.1308
   58SAPC   O11 4308   0.898   1.382  10.482  0.3252  0.7123  0.0289
   58SAPC    C1 4309   1.038   1.354  10.444 -0.2080 -0.1747 -0.1374
   58SAPC    HA 4310   1.097   1.448  10.451  1.8939 -1.4929  0.4140
   58SAPC    HB 4311   1.084   1.275  10.507 -0.1491 -1.1274 -1.3626
   58SAPC    C2 4312   1.056   1.300  10.300  0.6323 -0.2080  0.7640
   58SAPC    HS 4313   1.158   1.320  10.261 -0.3358  1.1159 -1.1424
   58SAPC   O21 4314   0.954   1.360  10.214  0.0878  0.3554  0.4283
   58SAPC   C21 4315   0.978   1.483  10.171  0.1328  1.4505  0.4041
   58SAPC   O22 4316   1.085   1.545  10.182 -0.0744  0.2044  0.0856
   58SAPC   C22 4317   0.853   1.539  10.092 -0.1816 -0.6247  0.1676
   58SAPC   H2R 4318   0.767   1.496  10.147 -1.0489  0.3754 -0.3834
   58SAPC   H2S 4319   0.862   1.650  10.089 -0.5408 -0.6362 -2.5794
   58SAPC    C3 4320   1.033   1.145  10.291  0.0496 -0.1558 -0.0940
   58SAPC    HX 4321   0.934   1.123  10.337  0.8616 -0.0968  1.7443
   58SAPC    HY 4322   1.100   1.085  10.358 -1.4297 -0.6887  0.9386
   58SAPC   O31 4323   1.038   1.100  10.155  0.4113 -0.5169  0.4503
   58SAPC   C31 4324   0.924   1.101  10.081  0.0984 -0.0963  0.1329
   58SAPC   O32 4325   0.813   1.122  10.124 -0.3974 -0.3088 -0.1675
   58SAPC   C32 4326   0.963   1.057   9.948 -0.1279 -0.4562 -0.0811
   58SAPC   H2X 4327   0.957   0.946   9.953 -0.0322 -0.4125  1.1706
   58SAPC   H2Y 4328   1.067   1.089   9.928 -0.2744 -0.1111 -0.2856
   58SAPC   C23 4329   0.857   1.487   9.948 -0.1294  0.0900  0.1666
   58SAPC   H3R 4330   0.920   1.396   9.940  0.5039  0.7931 -4.0904
   58SAPC   H3S 4331   0.909   1.560   9.882 -0.0961  1.8654  2.1140
   58SAPC   C24 4332   0.725   1.443   9.888 -1.2336  0.1698  0.2374
   58SAPC   H4R 4333   0.683   1.365   9.955  1.5354 -2.0672 -0.5060
   58SAPC   H4S 4334   0.759   1.392   9.796 -1.5788 -0.6729  0.5711
   58SAPC   C25 4335   0.639   1.560   9.874  0.6713 -1.0803  0.4251
   58SAPC   H5R 4336   0.629   1.637   9.952  0.9270 -0.4888 -0.1264
   58SAPC   C26 4337   0.575   1.599   9.765  0.0226  0.7698 -0.0296
   58SAPC   H6R 4338   0.522   1.696   9.760 -0.1557  0.5754 -2.8527
   58SAPC   C27 4339   0.571   1.525   9.630  0.0947 -0.0170  0.6134
   58SAPC   H7R 4340   0.469   1.484   9.617  0.7130 -0.6662 -2.6853
   58SAPC   H7S 4341   0.637   1.436   9.626  0.1478  0.1346 -3.0855
   58SAPC   C28 4342   0.598   1.611   9.513 -1.0419  0.4219  0.0547
   58SAPC   H8R 4343   0.647   1.703   9.546 -0.9653  0.7076 -0.8399
   58SAPC   C29 4344   0.569   1.603   9.380  0.5335  0.0247  0.4226
   58SAPC   H9R 4345   0.602   1.683   9.312 -0.8046  1.8376  1.8422
   58SAPC  C210 4346   0.506   1.487   9.310 -0.7807 -0.4260  0.7709
   58SAPC  H10R 4347   0.535   1.392   9.361  0.2550 -1.2609 -1.3238
   58SAPC  H10S 4348   0.540   1.483   9.205  1.2047 -1.4746  1.4156
   58SAPC  C211 4349   0.355   1.486   9.324  0.4220 -0.5034 -0.0670
   58SAPC  H11R 4350   0.319   1.498   9.427  1.7867  2.7034  0.0897
   58SAPC  C212 4351   0.268   1.464   9.227 -0.0159 -0.3334  0.2955
   58SAPC  H12R 4352   0.161   1.464   9.253 -0.2610 -0.3693 -0.6826
   58SAPC  C213 4353   0.298   1.438   9.082  0.3764 -0.8429  0.0116
   58SAPC  H13R 4354   0.392   1.493   9.061  1.7146 -2.3818  1.8500
   58SAPC  H13S 4355   0.207   1.471   9.027  1.0027 -0.0481 -0.5516
   58SAPC  C214 4356   0.313   1.287   9.066  0.3052 -0.3890  0.8474
   58SAPC  H14R 4357   0.306   1.234   9.161 -1.6136 -3.0158 -0.6860
   58SAPC  C215 4358   0.321   1.224   8.951  0.1940  0.1821  0.3763
   58SAPC  H15R 4359   0.351   1.118   8.955 -0.7102 -0.3007 -3.7177
   58SAPC  C216 4360   0.324   1.287   8.812 -0.5013  0.0236 -0.1503
   58SAPC  H16R 4361   0.420   1.329   8.774  1.4884 -2.3347  2.0723
   58SAPC  H16S 4362   0.254   1.373   8.804 -0.1869  0.1684 -1.6020
   58SAPC  C217 4363   0.274   1.177   8.711 -0.3225  0.1611 -0.6635
   58SAPC  H17R 4364   0.184   1.128   8.754  0.4722 -0.5708  0.2110
   58SAPC  H17S 4365   0.358   1.105   8.711  0.3952  0.9823 -1.3232
   58SAPC  C218 4366   0.272   1.227   8.566 -0.4737  0.1429 -0.2798
   58SAPC  H18R 4367   0.290   1.136   8.504  1.4374 -0.8900  1.7146
   58SAPC  H18S 4368   0.360   1.286   8.534  0.8726 -1.1804  0.8819
   58SAPC  C219 4369   0.147   1.303   8.536  0.5872  0.1455  0.1314
   58SAPC  H19R 4370   0.123   1.387   8.604 -0.8384 -0.5452  0.4970
   58SAPC  H19S 4371   0.057   1.239   8.532 -0.2726  1.3804 -0.6094
   58SAPC  C220 4372   0.159   1.363   8.393  0.1739 -0.3870  0.3354
   58SAPC  H20R 4373   0.080   1.435   8.363  2.3875  2.1165  0.2984
   58SAPC  H20S 4374   0.148   1.284   8.317 -1.3939  1.3350 -1.2783
   58SAPC  H20T 4375   0.260   1.408   8.382 -1.4026  2.8339 -1.5923
   58SAPC   C33 4376   0.846   1.094   9.846  0.4326  0.1059 -0.4278
   58SAPC   H3X 4377   0.836   1.205   9.840 -0.3092  0.1040  0.5568
   58SAPC   H3Y 4378   0.757   1.049   9.894 -0.3401  1.6214 -0.4020
   58SAPC   C34 4379   0.879   1.037   9.708 -0.8384  0.6152 -0.4952
   58SAPC   H4X 4380   0.875   0.926   9.712  0.9212  0.6104  2.3474
   58SAPC   H4Y 4381   0.982   1.064   9.675 -0.3772 -0.6877 -0.1500
   58SAPC   C35 4382   0.796   1.098   9.596  0.2788 -0.2386  0.5741
   58SAPC   H5X 4383   0.788   1.209   9.602 -4.3714 -0.4203 -0.4079
   58SAPC   H5Y 4384   0.688   1.071   9.596  0.2668 -0.2183 -0.9779
   58SAPC   C36 4385   0.843   1.066   9.449 -0.3246  0.2212  0.2613
   58SAPC   H6X 4386   0.873   0.960   9.431 -2.1086 -0.4392  0.9697
   58SAPC   H6Y 4387   0.924   1.140   9.432  0.7707 -1.2718 -1.1462
   58SAPC   C37 4388   0.741   1.109   9.345  0.0811 -0.1701  0.1270
   58SAPC   H7X 4389   0.721   1.215   9.372 -0.9062 -0.5044  0.7065
   58SAPC   H7Y 4390   0.648   1.050   9.353  0.3091 -0.3988  1.1414
   58SAPC   C38 4391   0.791   1.097   9.194  0.8904 -0.0126  0.2484
   58SAPC   H8X 4392   0.822   0.991   9.179  0.8327  0.1880 -1.3195
   58SAPC   H8Y 4393   0.880   1.161   9.177  2.4748 -2.2802 -0.1790
   58SAPC   C39 4394   0.677   1.112   9.089 -0.1555 -0.4569 -0.1326
   58SAPC   H9X 4395   0.645   1.216   9.112 -0.3733 -0.8568  1.4344
   58SAPC   H9Y 4396   0.609   1.024   9.102 -1.8661  0.9139  0.4439
   58SAPC  C310 4397   0.748   1.096   8.954 -0.0299 -0.1799  0.0929
   58SAPC  H10X 4398   0.753   0.988   8.926  1.5034  0.2399 -1.3370
   58SAPC  H10Y 4399   0.850   1.139   8.955  0.2692 -0.8115 -1.4312
   58SAPC  C311 4400   0.684   1.163   8.835  0.7810 -0.5848  0.8399
   58SAPC  H11X 4401   0.655   1.261   8.878  0.9504  0.0783 -0.5359
   58SAPC  H11Y 4402   0.589   1.109   8.816 -0.4722  1.2471  1.7323
   58SAPC  C312 4403   0.771   1.180   8.707  0.0429 -0.5637  0.1459
   58SAPC  H12X 4404   0.824   1.090   8.672 -0.5624 -0.5796 -0.7582
   58SAPC  H12Y 4405   0.843   1.262   8.726 -1.3376  1.1617 -1.8581
   58SAPC  C313 4406   0.677   1.231   8.598  0.3622  0.0958  0.0686
   58SAPC  H13X 4407   0.632   1.326   8.636 -3.0977 -0.7879 -1.6430
   58SAPC  H13Y 4408   0.590   1.162   8.592  1.5862 -1.3718 -0.8976
   58SAPC  C314 4409   0.745   1.241   8.463  0.1169  0.0486 -0.4044
   58SAPC  H14X 4410   0.789   1.141   8.448 -0.9973 -0.6167  0.6533
   58SAPC  H14Y 4411   0.835   1.305   8.480  0.2580  0.0654 -1.1913
   58SAPC  C315 4412   0.647   1.287   8.349  0.0173 -0.2318  0.2448
   58SAPC  H15X 4413   0.540   1.269   8.370 -0.3621 -0.2779 -1.6656
   58SAPC  H15Y 4414   0.666   1.237   8.252  0.7737  1.0446 -0.2832
   58SAPC  C316 4415   0.654   1.443   8.337  0.3719 -0.2213  0.2863
   58SAPC  H16X 4416   0.753   1.466   8.294  0.2374 -1.3694 -0.6728
   58SAPC  H16Y 4417   0.645   1.490   8.437 -0.5749 -0.9934  0.5829
   58SAPC  C317 4418   0.547   1.506   8.253 -0.3864 -0.1664  0.4616
   58SAPC  H17X 4419   0.550   1.617   8.261 -0.1873 -0.1790  0.5667
   58SAPC  H17Y 4420   0.448   1.478   8.295 -1.2231  1.0016 -0.6928
   58SAPC  C318 4421   0.554   1.460   8.112 -0.1273 -0.2575 -0.1835
   58SAPC  H18X 4422   0.660   1.461   8.078 -0.3657 -1.2654 -0.9832
   58SAPC  H18Y 4423   0.499   1.536   8.052  0.5177  0.4116  0.0738
   58SAPC  H18Z 4424   0.513   1.357   8.101 -0.1498 -0.8936  4.8764
   59SAPC     N 4425   1.787   3.104  11.345 -0.6831  0.1386  0.0416
   59SAPC   C12 4426   1.871   3.025  11.245  0.3311 -0.0245 -0.2607
   59SAPC  H12A 4427   1.862   3.059  11.142 -2.7753 -0.4914 -0.1848
   59SAPC  H12B 4428   1.839   2.922  11.246 -2.6040  0.8365 -0.5755
   59SAPC   C13 4429   1.802   3.049  11.478  0.6955  1.1169 -0.5673
   59SAPC  H13A 4430   1.745   3.104  11.551  1.4507  2.0172 -0.6471
   59SAPC  H13B 4431   1.764   2.949  11.489  3.1561  0.2435  0.2595
   59SAPC  H13C 4432   1.905   3.038  11.507 -0.3835 -3.7990  1.8696
   59SAPC   C14 4433   1.832   3.245  11.357 -0.2652  0.8983  0.1179
   59SAPC  H14A 4434   1.940   3.243  11.366 -0.0033  0.2007 -2.6072
   59SAPC  H14B 4435   1.809   3.298  11.265 -0.4801 -0.4895 -0.6359
   59SAPC  H14C 4436   1.792   3.299  11.442  0.6832  0.7843  0.6437
   59SAPC   C15 4437   1.642   3.094  11.309  0.4352 -0.4813  0.6399
   59SAPC  H15A 4438   1.632   3.129  11.207  1.7989  0.6790  0.8833
   59SAPC  H15B 4439   1.581   3.007  11.327  3.5150 -2.8233  0.1614
   59SAPC  H15C 4440   1.589   3.170  11.364  0.0866  0.9002 -1.5647
   59SAPC   C11 4441   2.027   3.032  11.265 -0.0060 -0.0332  0.6714
   59SAPC  H11A 4442   2.071   2.955  11.198  0.7273  0.7515  0.2356
   59SAPC  H11B 4443   2.052   3.012  11.372 -2.0659 -0.8455  1.0262
   59SAPC     P 4444   2.237   3.181  11.179 -0.3625 -0.2615 -0.2212
   59SAPC   O13 4445   2.247   3.326  11.162 -0.3653  0.2895 -0.1926
   59SAPC   O14 4446   2.328   3.112  11.278 -0.0116 -0.1993  0.9250
   59SAPC   O12 4447   2.082   3.157  11.208 -0.0314  0.6902 -0.1894
   59SAPC   O11 4448   2.260   3.120  11.030  0.0221 -0.4662  0.2428
   59SAPC    C1 4449   2.182   3.173  10.915 -0.3899  0.1445  0.1636
   59SAPC    HA 4450   2.080   3.196  10.953 -0.1229 -1.2149  1.7786
   59SAPC    HB 4451   2.234   3.266  10.883  0.0637 -0.1374  0.0823
   59SAPC    C2 4452   2.184   3.060  10.803 -0.2395 -0.6325  0.2193
   59SAPC    HS 4453   2.092   2.999  10.812 -1.0329  0.4041 -0.6461
   59SAPC   O21 4454   2.306   2.983  10.800  0.5055 -0.5183  0.7537
   59SAPC   C21 4455   2.290   2.856  10.793 -0.4671  0.2330 -0.6900
   59SAPC   O22 4456   2.184   2.798  10.794 -0.4627  0.5219  0.6420
   59SAPC   C22 4457   2.424   2.781  10.776 -0.0239 -0.4135  0.0105
   59SAPC   H2R 4458   2.500   2.855  10.741  0.3881 -0.5799  0.5495
   59SAPC   H2S 4459   2.463   2.740  10.871 -2.8681  0.2683  1.4977
   59SAPC    C3 4460   2.168   3.133  10.668 -0.0206  0.3876 -0.3835
   59SAPC    HX 4461   2.242   3.215  10.658 -0.4869  0.6175 -2.2341
   59SAPC    HY 4462   2.067   3.181  10.665 -0.1968  0.6727  5.3877
   59SAPC   O31 4463   2.189   3.047  10.551  0.0382  0.2529 -0.0452
   59SAPC   C31 4464   2.081   3.009  10.487  0.1650  0.1995  0.4930
   59SAPC   O32 4465   1.969   3.042  10.507 -0.1934  0.0588  0.2712
   59SAPC   C32 4466   2.129   2.921  10.372  0.0769  0.0931  0.0977
   59SAPC   H2X 4467   2.076   2.824  10.384 -2.5888  1.4062 -0.5980
   59SAPC   H2Y 4468   2.238   2.903  10.379  0.1205  0.0210 -0.7005
   59SAPC   C23 4469   2.425   2.681  10.663 -0.3735 -0.5200  0.4398
   59SAPC   H3R 4470   2.394   2.739  10.574 -2.2709 -0.3460  1.1882
   59SAPC   H3S 4471   2.347   2.603  10.675 -0.8882  0.0976  1.1657
   59SAPC   C24 4472   2.556   2.616  10.621 -0.1294 -0.8319 -0.3055
   59SAPC   H4R 4473   2.542   2.564  10.524  2.8676  1.9516 -2.3621
   59SAPC   H4S 4474   2.596   2.540  10.691  2.6494  0.3879 -0.4972
   59SAPC   C25 4475   2.676   2.712  10.593 -0.0504 -0.3557  0.0280
   59SAPC   H5R 4476   2.727   2.731  10.689  1.2057 -3.9684  0.1295
   59SAPC   C26 4477   2.699   2.783  10.484 -0.2559 -0.9679 -0.0535
   59SAPC   H6R 4478   2.782   2.855  10.476 -0.3089 -0.9649 -0.6260
   59SAPC   C27 4479   2.621   2.794  10.362  0.9608 -0.2242 -1.0054
   59SAPC   H7R 4480   2.619   2.904  10.346 -2.3890 -0.5205 -3.1091
   59SAPC   H7S 4481   2.514   2.765  10.372  0.3054  1.9841 -1.3728
   59SAPC   C28 4482   2.680   2.725  10.244  0.3917  0.0345  0.2677
   59SAPC   H8R 4483   2.668   2.616  10.253  0.7307  0.0705  1.2691
   59SAPC   C29 4484   2.725   2.771  10.129 -0.9686  0.0286  0.0116
   59SAPC   H9R 4485   2.757   2.700  10.051  1.2799 -0.6061  1.4840
   59SAPC  C210 4486   2.749   2.913  10.085  0.4072  0.2744  0.3262
   59SAPC  H10R 4487   2.853   2.920  10.047 -0.5227  0.3109 -2.3204
   59SAPC  H10S 4488   2.748   2.987  10.168  0.7169  0.5023  0.1281
   59SAPC  C211 4489   2.636   2.946   9.990 -0.3245  1.0923 -0.0055
   59SAPC  H11R 4490   2.536   2.936  10.036 -1.1062 -1.8325 -2.2018
   59SAPC  C212 4491   2.657   3.008   9.867  0.4023 -0.4669  0.3122
   59SAPC  H12R 4492   2.570   3.029   9.803 -1.7865 -1.0183  2.9800
   59SAPC  C213 4493   2.788   3.037   9.794  0.1853  0.1352  0.3143
   59SAPC  H13R 4494   2.868   3.054   9.869  0.8490 -1.3110 -0.0617
   59SAPC  H13S 4495   2.779   3.127   9.729 -1.1366 -1.0669 -1.2011
   59SAPC  C214 4496   2.824   2.914   9.714 -0.8724 -0.2100 -0.7125
   59SAPC  H14R 4497   2.862   2.835   9.780  1.7830  1.9110  0.3849
   59SAPC  C215 4498   2.823   2.898   9.581  0.3793  0.2247 -0.0765
   59SAPC  H15R 4499   2.859   2.804   9.538  0.6864 -0.6269  1.9514
   59SAPC  C216 4500   2.778   3.002   9.474 -0.6573 -0.4426  0.2627
   59SAPC  H16R 4501   2.770   3.110   9.498 -1.4686 -0.5060  0.2908
   59SAPC  H16S 4502   2.672   2.983   9.445 -0.5929 -0.7069  0.2050
   59SAPC  C217 4503   2.872   2.995   9.347  0.4623 -0.4292 -0.1752
   59SAPC  H17R 4504   2.871   2.899   9.291 -0.1900 -1.3835  1.4410
   59SAPC  H17S 4505   2.979   3.004   9.378 -0.4904 -1.4357  3.6574
   59SAPC  C218 4506   2.841   3.099   9.237  0.6135  0.1079 -0.2967
   59SAPC  H18R 4507   2.806   3.189   9.292  0.1955 -1.6588  2.4588
   59SAPC  H18S 4508   2.749   3.074   9.180  0.5434  2.0264 -1.0396
   59SAPC  C219 4509   2.956   3.136   9.144 -0.1178  0.2662  0.1412
   59SAPC  H19R 4510   2.984   3.045   9.087 -0.7854  2.5053 -3.9787
   59SAPC  H19S 4511   3.038   3.146   9.218 -1.6543  0.9290  1.7862
   59SAPC  C220 4512   2.933   3.263   9.054  0.3135  0.6381 -0.1419
   59SAPC  H20R 4513   3.031   3.293   9.013 -0.9647  1.4471 -2.6674
   59SAPC  H20S 4514   2.887   3.350   9.105  3.7947  1.6421  1.4787
   59SAPC  H20T 4515   2.869   3.232   8.969  0.8464 -0.3206 -0.2074
   59SAPC   C33 4516   2.097   2.992  10.235 -0.2584  0.1314 -0.1969
   59SAPC   H3X 4517   2.159   3.084  10.231 -0.9550  0.6689  1.0708
   59SAPC   H3Y 4518   1.992   3.023  10.219  0.2477  1.2815 -1.4011
   59SAPC   C34 4519   2.143   2.901  10.124 -0.3632 -0.6676  0.4710
   59SAPC   H4X 4520   2.065   2.822  10.121 -2.5912  1.4740 -0.0068
   59SAPC   H4Y 4521   2.237   2.848  10.149  1.8222  2.2402 -1.2916
   59SAPC   C35 4522   2.147   2.967   9.987 -0.4456  0.6672 -0.0315
   59SAPC   H5X 4523   2.222   3.049   9.998  1.9619 -1.7018  1.7595
   59SAPC   H5Y 4524   2.046   3.004   9.956 -0.9617 -2.0610 -1.8354
   59SAPC   C36 4525   2.216   2.876   9.880  0.2715 -0.1436  0.4434
   59SAPC   H6X 4526   2.149   2.788   9.870 -0.5055 -0.0016  3.6419
   59SAPC   H6Y 4527   2.317   2.845   9.913  1.7470  1.1469 -2.6683
   59SAPC   C37 4528   2.208   2.957   9.754  0.3340  0.3134 -0.6668
   59SAPC   H7X 4529   2.226   3.065   9.777  2.0802 -0.2191  0.5890
   59SAPC   H7Y 4530   2.105   2.951   9.714  0.3219  0.4460 -0.6548
   59SAPC   C38 4531   2.295   2.898   9.644  0.0740  0.1547 -0.0300
   59SAPC   H8X 4532   2.232   2.813   9.608 -0.0381 -0.3913  1.4303
   59SAPC   H8Y 4533   2.390   2.852   9.678  1.9008  1.9997 -2.4951
   59SAPC   C39 4534   2.310   2.987   9.512  0.3176 -0.1188 -1.1631
   59SAPC   H9X 4535   2.379   3.071   9.539  2.5165 -1.2173 -3.2167
   59SAPC   H9Y 4536   2.212   3.028   9.482 -0.4962  0.5574  2.2143
   59SAPC  C310 4537   2.383   2.919   9.395  0.2861 -0.2371  0.4954
   59SAPC  H10X 4538   2.305   2.853   9.350 -2.4630  2.5821  0.9349
   59SAPC  H10Y 4539   2.466   2.852   9.427  1.0971  0.2658 -0.5113
   59SAPC  C311 4540   2.427   3.011   9.282  0.5874  0.4462  0.7894
   59SAPC  H11X 4541   2.521   3.065   9.304  0.3474  0.6463  1.3285
   59SAPC  H11Y 4542   2.353   3.094   9.283  0.1630  0.0591  3.1743
   59SAPC  C312 4543   2.424   2.952   9.136  0.3204 -0.3459 -0.4873
   59SAPC  H12X 4544   2.316   2.936   9.117  0.2538 -0.1316 -0.2867
   59SAPC  H12Y 4545   2.463   2.847   9.130  0.9260 -0.1051 -0.9186
   59SAPC  C313 4546   2.498   3.026   9.028 -0.1929  0.3560  0.1382
   59SAPC  H13X 4547   2.604   2.996   9.038 -0.5838 -0.9332  0.5666
   59SAPC  H13Y 4548   2.479   3.134   9.046 -0.5658 -0.1474  3.0592
   59SAPC  C314 4549   2.442   2.985   8.894 -0.5259  0.4383 -0.2755
   59SAPC  H14X 4550   2.332   2.997   8.887 -0.5655 -0.4465 -1.2595
   59SAPC  H14Y 4551   2.467   2.878   8.880 -0.3185  0.3493  0.7420
   59SAPC  C315 4552   2.504   3.058   8.777  0.4404  0.1233  0.6352
   59SAPC  H15X 4553   2.614   3.051   8.790  0.4844  0.1172  0.2713
   59SAPC  H15Y 4554   2.480   3.165   8.795 -0.7423 -0.0541  0.1743
   59SAPC  C316 4555   2.463   3.004   8.641 -0.1078 -0.2375 -0.7735
   59SAPC  H16X 4556   2.353   3.004   8.633 -0.0942 -3.3468 -1.4462
   59SAPC  H16Y 4557   2.497   2.898   8.636  2.8824  0.7024 -1.3422
   59SAPC  C317 4558   2.496   3.091   8.527  0.3664 -0.3431 -0.3274
   59SAPC  H17X 4559   2.602   3.105   8.496  0.9021 -0.5339  1.3894
   59SAPC  H17Y 4560   2.457   3.193   8.546  1.2038  0.2108 -1.5060
   59SAPC  C318 4561   2.426   3.037   8.404  0.0244 -0.3407 -0.0344
   59SAPC  H18X 4562   2.453   3.097   8.314  0.3788 -2.5722 -1.4457
   59SAPC  H18Y 4563   2.316   3.037   8.418  0.3368  1.0582  2.8015
   59SAPC  H18Z 4564   2.450   2.931   8.380  0.7472  0.0667 -1.1962
   60SAPC     N 4565   4.135   1.317  10.903  0.8523  0.6698  0.1778
   60SAPC   C12 4566   4.139   1.448  10.827  0.4482 -0.0077 -0.7421
   60SAPC  H12A 4567   4.238   1.490  10.835  1.4480 -2.6732  2.3328
   60SAPC  H12B 4568   4.084   1.524  10.881  0.5770  0.8696 -1.8420
   60SAPC   C13 4569   3.996   1.263  10.891 -0.0134 -0.2585 -0.0134
   60SAPC  H13A 4570   3.974   1.173  10.946 -0.7342 -1.0377 -1.5419
   60SAPC  H13B 4571   3.928   1.338  10.927  0.2245  0.9523 -1.9729
   60SAPC  H13C 4572   3.966   1.232  10.791  2.8833 -0.4799 -0.8702
   60SAPC   C14 4573   4.236   1.218  10.847  0.2360  0.3343  0.3246
   60SAPC  H14A 4574   4.336   1.257  10.855 -0.5277  2.1408  1.3200
   60SAPC  H14B 4575   4.229   1.127  10.906 -2.0102 -2.0176 -3.3445
   60SAPC  H14C 4576   4.218   1.194  10.743  5.4485 -0.2730 -0.5876
   60SAPC   C15 4577   4.163   1.331  11.052 -0.0098  0.4960  0.2609
   60SAPC  H15A 4578   4.100   1.405  11.098  1.4270 -0.1628  3.4350
   60SAPC  H15B 4579   4.143   1.241  11.109  2.0649 -0.2956 -0.2200
   60SAPC  H15C 4580   4.268   1.353  11.065 -0.1288  1.2840 -0.1229
   60SAPC   C11 4581   4.112   1.428  10.674  0.1743  1.0662  0.2593
   60SAPC  H11A 4582   4.006   1.394  10.667  0.9118 -1.1006 -0.6753
   60SAPC  H11B 4583   4.179   1.351  10.631  0.0488  1.4613 -0.6406
   60SAPC     P 4584   4.280   1.608  10.593  0.0450 -0.5884 -0.3768
   60SAPC   O13 4585   4.332   1.636  10.722 -0.2850 -0.4095 -0.2613
   60SAPC   O14 4586   4.367   1.532  10.502  0.1270  0.0737 -0.2062
   60SAPC   O12 4587   4.130   1.550  10.601  0.4595  0.4772 -0.0758
   60SAPC   O11 4588   4.257   1.747  10.516 -0.3601  0.0098  0.6642
   60SAPC    C1 4589   4.130   1.803  10.468  0.7688  0.5033  0.2514
   60SAPC    HA 4590   4.047   1.749  10.519  2.4294  0.0699  2.5769
   60SAPC    HB 4591   4.124   1.912  10.491  0.8434  0.3447  1.0521
   60SAPC    C2 4592   4.106   1.789  10.314  0.3309 -0.2727 -0.0754
   60SAPC    HS 4593   4.005   1.827  10.286  0.1233 -1.1100 -0.4843
   60SAPC   O21 4594   4.120   1.659  10.259  0.2669 -0.5690  0.0690
   60SAPC   C21 4595   4.021   1.577  10.286  0.8287  0.0771 -0.1800
   60SAPC   O22 4596   3.910   1.616  10.318 -0.9444 -0.9507  0.2338
   60SAPC   C22 4597   4.061   1.430  10.268 -0.3486  0.9078  0.3739
   60SAPC   H2R 4598   4.156   1.426  10.325 -0.5387  2.1299  0.7935
   60SAPC   H2S 4599   3.995   1.358  10.320  0.4306  0.8506  1.2953
   60SAPC    C3 4600   4.209   1.880  10.246  0.3403  0.1439  0.7641
   60SAPC    HX 4601   4.314   1.845  10.255  0.3567  0.3372  1.3770
   60SAPC    HY 4602   4.213   1.981  10.292 -1.4279  1.1614 -1.2283
   60SAPC   O31 4603   4.165   1.907  10.107 -0.1307 -0.3506  0.0427
   60SAPC   C31 4604   4.257   1.901  10.016  0.3822 -0.5408 -0.4414
   60SAPC   O32 4605   4.377   1.900  10.036  0.5560 -0.4539  0.0159
   60SAPC   C32 4606   4.187   1.886   9.877 -0.1299  0.3096 -0.0431
   60SAPC   H2X 4607   4.088   1.935   9.866 -1.4046 -2.2531 -0.1273
   60SAPC   H2Y 4608   4.173   1.777   9.862  0.4688  0.0022  1.4907
   60SAPC   C23 4609   4.075   1.396  10.116 -0.5315 -0.8451 -0.1343
   60SAPC   H3R 4610   4.125   1.298  10.108 -0.9621 -1.0822  0.0312
   60SAPC   H3S 4611   4.144   1.475  10.080 -0.7693 -1.4072 -1.9135
   60SAPC   C24 4612   3.943   1.392  10.033  0.1480 -0.0800  0.9763
   60SAPC   H4R 4613   3.885   1.487  10.035 -0.0443 -0.1547 -0.8015
   60SAPC   H4S 4614   3.887   1.303  10.069  2.7860 -1.6828  1.2172
   60SAPC   C25 4615   3.971   1.357   9.890 -0.1851 -0.3165  0.2217
   60SAPC   H5R 4616   4.003   1.252   9.878 -2.0155 -1.0539  1.6792
   60SAPC   C26 4617   3.967   1.423   9.781  0.4434 -0.4167  0.0578
   60SAPC   H6R 4618   4.014   1.374   9.695 -0.1429 -0.5131 -0.2085
   60SAPC   C27 4619   3.935   1.574   9.756 -0.3022  0.6326 -0.0673
   60SAPC   H7R 4620   4.030   1.624   9.728  0.1259  0.6480  1.3891
   60SAPC   H7S 4621   3.900   1.620   9.851  0.3969  1.4202 -0.1889
   60SAPC   C28 4622   3.820   1.586   9.658  0.0926  0.0401  0.5830
   60SAPC   H8R 4623   3.721   1.602   9.703  0.1493  2.7823 -0.1542
   60SAPC   C29 4624   3.821   1.597   9.524 -0.0060 -0.3022  0.8155
   60SAPC   H9R 4625   3.726   1.592   9.469  1.2931  0.1029 -1.5048
   60SAPC  C210 4626   3.948   1.598   9.441  0.5024  0.1999  0.3113
   60SAPC  H10R 4627   3.942   1.504   9.381  2.1627 -0.6290  1.4123
   60SAPC  H10S 4628   4.035   1.584   9.509 -0.1865 -1.2043  0.9246
   60SAPC  C211 4629   3.961   1.717   9.339  0.1319  0.0828  0.9245
   60SAPC  H11R 4630   3.909   1.812   9.360  1.2949  1.2075 -1.1671
   60SAPC  C212 4631   3.982   1.705   9.207  0.1362 -0.6297 -0.0360
   60SAPC  H12R 4632   3.982   1.805   9.162 -2.7414 -1.4027 -1.9551
   60SAPC  C213 4633   4.011   1.580   9.128 -0.5879  0.0142  0.0009
   60SAPC  H13R 4634   4.021   1.488   9.189 -1.3789 -1.0822 -1.4887
   60SAPC  H13S 4635   4.112   1.596   9.084 -0.7071  1.5072  0.2685
   60SAPC  C214 4636   3.913   1.555   9.017 -0.8975  0.3203  0.3143
   60SAPC  H14R 4637   3.833   1.491   9.057  0.3929 -1.6527 -0.1891
   60SAPC  C215 4638   3.918   1.583   8.885 -0.0057 -0.7995 -0.1165
   60SAPC  H15R 4639   3.832   1.553   8.824  1.3511 -1.7283 -1.6345
   60SAPC  C216 4640   4.024   1.657   8.814  0.4094  0.0198  0.5041
   60SAPC  H16R 4641   4.101   1.589   8.771  1.6939  1.1976  0.9208
   60SAPC  H16S 4642   4.079   1.735   8.871  1.7709  0.2771 -1.1269
   60SAPC  C217 4643   3.969   1.733   8.692  0.2587 -0.4568  0.5993
   60SAPC  H17R 4644   3.899   1.809   8.731  0.8497  0.6296 -0.4312
   60SAPC  H17S 4645   3.906   1.666   8.629  0.0967  0.5964 -0.3726
   60SAPC  C218 4646   4.075   1.794   8.600 -1.0485  0.1778  0.2440
   60SAPC  H18R 4647   4.145   1.862   8.653 -0.0982 -1.1025  0.6533
   60SAPC  H18S 4648   4.023   1.868   8.536 -2.1715 -1.1767 -0.4435
   60SAPC  C219 4649   4.144   1.688   8.507 -0.3352  0.1067  0.4991
   60SAPC  H19R 4650   4.064   1.630   8.454  0.5514  1.0145 -1.9246
   60SAPC  H19S 4651   4.195   1.616   8.575  2.3908 -0.2836 -1.8690
   60SAPC  C220 4652   4.241   1.756   8.407  0.1913 -0.7437 -0.0391
   60SAPC  H20R 4653   4.310   1.833   8.448 -1.2472  0.0102  1.0360
   60SAPC  H20S 4654   4.186   1.808   8.326 -0.4536 -0.5025  0.5441
   60SAPC  H20T 4655   4.303   1.677   8.360 -0.5975 -2.1150  1.1584
   60SAPC   C33 4656   4.278   1.934   9.756 -0.4104 -0.2661 -0.8018
   60SAPC   H3X 4657   4.381   1.907   9.786  0.0219  0.4050 -1.6469
   60SAPC   H3Y 4658   4.270   2.045   9.752  0.7612 -0.0489  1.9268
   60SAPC   C34 4659   4.232   1.879   9.624  0.2009 -0.6350 -0.4315
   60SAPC   H4X 4660   4.128   1.911   9.601 -0.3516 -2.4711 -0.6377
   60SAPC   H4Y 4661   4.241   1.769   9.636  0.6040 -0.4093  1.5651
   60SAPC   C35 4662   4.317   1.918   9.506  0.4156 -0.0058 -0.2521
   60SAPC   H5X 4663   4.399   1.843   9.509  1.3830  0.9830 -1.1115
   60SAPC   H5Y 4664   4.357   2.022   9.511  0.2844 -0.0903  3.7057
   60SAPC   C36 4665   4.261   1.899   9.358  0.2860  0.3551  0.0781
   60SAPC   H6X 4666   4.174   1.966   9.345  1.5499  1.7579 -1.2533
   60SAPC   H6Y 4667   4.221   1.796   9.343  0.8307  0.4255 -1.9928
   60SAPC   C37 4668   4.363   1.932   9.246  0.2441  0.6755  0.3311
   60SAPC   H7X 4669   4.455   1.875   9.270  0.7547  1.1414 -0.5197
   60SAPC   H7Y 4670   4.388   2.040   9.241 -0.2802  0.7520 -0.7130
   60SAPC   C38 4671   4.309   1.890   9.104 -0.2938  0.1708  0.7021
   60SAPC   H8X 4672   4.200   1.908   9.114 -0.3428  0.0445  0.4102
   60SAPC   H8Y 4673   4.326   1.781   9.086 -1.0924  0.5932 -2.9389
   60SAPC   C39 4674   4.375   1.975   8.997 -1.0223 -0.4563  0.1033
   60SAPC   H9X 4675   4.479   1.940   8.984 -0.3175  0.7274  2.2858
   60SAPC   H9Y 4676   4.378   2.080   9.032  1.4912 -0.1026 -1.0550
   60SAPC  C310 4677   4.300   1.967   8.857  0.5176  0.1733  0.2088
   60SAPC  H10X 4678   4.205   2.024   8.861 -0.6633 -1.6341 -1.4008
   60SAPC  H10Y 4679   4.286   1.859   8.834 -0.8655  0.4562 -0.2909
   60SAPC  C311 4680   4.376   2.035   8.739  0.3538 -0.4476 -0.3904
   60SAPC  H11X 4681   4.312   2.016   8.650 -0.0105  1.4663 -0.5540
   60SAPC  H11Y 4682   4.461   1.965   8.722  0.9169 -0.2659  1.6293
   60SAPC  C312 4683   4.409   2.187   8.761 -0.0403 -0.1815 -0.6008
   60SAPC  H12X 4684   4.442   2.199   8.866  0.4964 -0.9117 -0.6786
   60SAPC  H12Y 4685   4.313   2.239   8.743  0.1921  0.3056 -0.4596
   60SAPC  C313 4686   4.518   2.243   8.672 -0.3987 -0.4427 -0.3116
   60SAPC  H13X 4687   4.616   2.199   8.698 -0.4847 -0.2820  0.2958
   60SAPC  H13Y 4688   4.532   2.351   8.695 -0.3327 -0.4195 -0.4632
   60SAPC  C314 4689   4.499   2.222   8.522 -0.2624  0.2662  0.1796
   60SAPC  H14X 4690   4.501   2.112   8.510 -1.1993  0.4249 -1.4812
   60SAPC  H14Y 4691   4.591   2.255   8.468  0.4065  1.4534  1.9750
   60SAPC  C315 4692   4.365   2.274   8.469 -0.1672  0.8242 -0.1512
   60SAPC  H15X 4693   4.351   2.379   8.500 -0.5456  0.7259  0.0084
   60SAPC  H15Y 4694   4.276   2.229   8.517  1.0969  0.5225  1.9538
   60SAPC  C316 4695   4.348   2.262   8.314 -0.3465  0.0570 -0.2578
   60SAPC  H16X 4696   4.447   2.284   8.270  0.2582 -1.2420  0.4156
   60SAPC  H16Y 4697   4.271   2.326   8.266 -0.6562  0.3350  0.5888
   60SAPC  C317 4698   4.311   2.123   8.271  0.5491 -0.4022  0.1489
   60SAPC  H17X 4699   4.216   2.098   8.323 -0.4394  1.7105 -0.5931
   60SAPC  H17Y 4700   4.389   2.057   8.315  0.9760  0.2657  0.3831
   60SAPC  C318 4701   4.297   2.102   8.117 -0.5119  0.1543 -0.3350
   60SAPC  H18X 4702   4.382   2.150   8.065 -0.5260  1.1532  0.5311
   60SAPC  H18Y 4703   4.212   2.161   8.077 -0.7092 -1.2218 -1.9580
   60SAPC  H18Z 4704   4.310   1.995   8.091 -0.1906  0.1287 -0.0712
   61SAPC     N 4705   5.155   6.726  10.861  0.0953  0.3412 -0.0400
   61SAPC   C12 4706   5.086   6.861  10.878 -0.6991 -0.1743  0.2463
   61SAPC  H12A 4707   4.985   6.847  10.913 -1.3938  1.9543 -0.8153
   61SAPC  H12B 4708   5.083   6.904  10.779  2.8901  0.6273  0.4200
   61SAPC   C13 4709   5.189   6.667  11.001  0.3447  0.4673  0.9999
   61SAPC  H13A 4710   5.259   6.730  11.053  0.8480  0.4207  0.3849
   61SAPC  H13B 4711   5.105   6.649  11.066 -0.5752 -1.6788 -0.6914
   61SAPC  H13C 4712   5.241   6.573  10.986  1.8684  1.3153  0.9281
   61SAPC   C14 4713   5.076   6.623  10.796  0.2213  0.0184  0.0146
   61SAPC  H14A 4714   5.001   6.590  10.866 -0.5247  2.9918  0.7004
   61SAPC  H14B 4715   5.032   6.662  10.705  1.2557  1.0245 -0.0711
   61SAPC  H14C 4716   5.135   6.538  10.764  0.3115  0.1596 -0.1974
   61SAPC   C15 4717   5.288   6.746  10.786 -0.5970  0.3006 -0.0947
   61SAPC  H15A 4718   5.262   6.785  10.688  1.1855 -1.2431 -1.2175
   61SAPC  H15B 4719   5.356   6.812  10.838 -1.4185  0.0835  1.2739
   61SAPC  H15C 4720   5.345   6.654  10.778 -1.4033 -0.4339  2.3078
   61SAPC   C11 4721   5.151   6.969  10.969  0.3375  0.7362  0.0887
   61SAPC  H11A 4722   5.161   6.924  11.071 -0.5533  2.0325  0.7482
   61SAPC  H11B 4723   5.078   7.051  10.982  0.7935  1.2299 -0.4784
   61SAPC     P 4724   5.280   7.143  10.828  0.0949  0.1642 -0.3775
   61SAPC   O13 4725   5.267   7.269  10.908  0.4610 -0.0541  0.0791
   61SAPC   O14 4726   5.403   7.139  10.752  0.3877 -0.0651  0.2372
   61SAPC   O12 4727   5.274   7.015  10.922 -0.2911 -0.2033  0.1764
   61SAPC   O11 4728   5.160   7.117  10.724 -0.4839 -0.4431 -0.2780
   61SAPC    C1 4729   5.045   7.195  10.732  0.3042 -1.0075 -0.6613
   61SAPC    HA 4730   4.965   7.121  10.712  0.2048 -0.9583 -0.4537
   61SAPC    HB 4731   5.026   7.248  10.828  1.6547  2.2184 -2.1037
   61SAPC    C2 4732   5.016   7.288  10.606 -0.0005  0.3156  0.2756
   61SAPC    HS 4733   4.907   7.292  10.586 -0.3673 -0.7504  1.9429
   61SAPC   O21 4734   5.085   7.240  10.487 -0.0471 -0.3142 -0.0295
   61SAPC   C21 4735   5.009   7.198  10.383 -0.8136  0.9480  0.3603
   61SAPC   O22 4736   4.885   7.198  10.391 -0.2485 -0.3792 -0.4612
   61SAPC   C22 4737   5.099   7.160  10.270 -0.3025  0.5498 -0.4671
   61SAPC   H2R 4738   5.126   7.241  10.199  1.8313  0.5360  0.2947
   61SAPC   H2S 4739   5.190   7.107  10.303 -0.4280  0.9640  0.5809
   61SAPC    C3 4740   5.048   7.439  10.637  0.3082  0.2829 -0.0665
   61SAPC    HX 4741   5.136   7.437  10.704 -0.1618  0.7839  0.5638
   61SAPC    HY 4742   4.965   7.478  10.699 -2.2355 -2.5532 -1.5481
   61SAPC   O31 4743   5.065   7.508  10.504 -0.3663 -0.4155  0.3519
   61SAPC   C31 4744   4.952   7.553  10.443 -0.2949 -0.2578  0.4432
   61SAPC   O32 4745   4.838   7.546  10.495  0.4131  0.9255 -0.4653
   61SAPC   C32 4746   4.977   7.611  10.311  0.4764 -0.0275  0.4589
   61SAPC   H2X 4747   5.078   7.574  10.284  0.8204  0.9444  0.3965
   61SAPC   H2Y 4748   4.990   7.721  10.317  3.2514 -0.1506 -1.9774
   61SAPC   C23 4749   5.022   7.053  10.177 -0.1024 -0.7983  0.2547
   61SAPC   H3R 4750   4.958   6.989  10.241 -1.0965 -0.5593 -0.4910
   61SAPC   H3S 4751   5.103   6.994  10.129 -0.4217 -1.7732  0.8875
   61SAPC   C24 4752   4.948   7.124  10.063  0.0467  0.3171 -0.3064
   61SAPC   H4R 4753   5.010   7.204  10.018  0.6694 -0.0237 -0.0600
   61SAPC   H4S 4754   4.868   7.181  10.113  1.0658  0.7501  0.8507
   61SAPC   C25 4755   4.891   7.020   9.968 -0.1887 -0.1260  0.6268
   61SAPC   H5R 4756   4.814   6.956  10.015 -1.0417 -0.9270 -1.7612
   61SAPC   C26 4757   4.920   6.997   9.836 -0.2575 -0.0861 -0.3630
   61SAPC   H6R 4758   4.850   6.930   9.783 -0.4793 -2.2885  2.6398
   61SAPC   C27 4759   5.016   7.076   9.752  0.8482 -0.0756  0.7593
   61SAPC   H7R 4760   5.100   7.125   9.806  1.5754  0.3664 -0.7589
   61SAPC   H7S 4761   4.975   7.165   9.700  2.5807  0.3708  0.1324
   61SAPC   C28 4762   5.064   6.985   9.646 -0.3223 -0.0079 -0.7866
   61SAPC   H8R 4763   5.041   6.877   9.649 -1.0052  0.0966 -1.8746
   61SAPC   C29 4764   5.143   7.036   9.544 -0.7309  0.2214  0.8438
   61SAPC   H9R 4765   5.181   6.975   9.461 -0.0210  0.8591  0.7012
   61SAPC  C210 4766   5.180   7.179   9.516  0.5129 -0.6715 -0.3427
   61SAPC  H10R 4767   5.177   7.233   9.613 -0.9458 -1.1507 -0.1121
   61SAPC  H10S 4768   5.104   7.236   9.458 -0.5502 -0.1635  1.4944
   61SAPC  C211 4769   5.311   7.202   9.447  0.3021  0.8635  0.0167
   61SAPC  H11R 4770   5.392   7.217   9.520 -1.1270  0.7342  1.6788
   61SAPC  C212 4771   5.336   7.219   9.319 -0.3124  0.1718  0.7446
   61SAPC  H12R 4772   5.434   7.259   9.289 -1.5824  1.1337 -2.3629
   61SAPC  C213 4773   5.234   7.212   9.206 -0.3250 -0.2626  0.2155
   61SAPC  H13R 4774   5.251   7.302   9.142 -0.7099 -1.0175 -0.9556
   61SAPC  H13S 4775   5.131   7.234   9.243 -0.6714 -0.3300 -0.7011
   61SAPC  C214 4776   5.230   7.082   9.136  0.1112  0.6621  0.0032
   61SAPC  H14R 4777   5.159   7.009   9.178  0.8967 -0.1592 -0.0934
   61SAPC  C215 4778   5.296   7.049   9.029  0.2485 -0.3605 -0.2920
   61SAPC  H15R 4779   5.287   6.948   8.987 -0.0791  0.3759 -2.0459
   61SAPC  C216 4780   5.396   7.140   8.954  0.7401  0.4016  0.0133
   61SAPC  H16R 4781   5.442   7.212   9.025  0.2530  0.6074  0.1229
   61SAPC  H16S 4782   5.347   7.196   8.871 -0.6429 -1.2728 -0.3256
   61SAPC  C217 4783   5.521   7.059   8.912  0.0309  0.5192  0.4336
   61SAPC  H17R 4784   5.559   7.006   9.001 -1.4087 -3.4100 -1.1919
   61SAPC  H17S 4785   5.595   7.136   8.881 -0.0568 -0.3798 -2.1615
   61SAPC  C218 4786   5.503   6.966   8.791  0.2065 -0.1473 -0.4124
   61SAPC  H18R 4787   5.403   6.919   8.801 -0.8044  2.4427  2.1313
   61SAPC  H18S 4788   5.570   6.877   8.790 -1.0583 -1.1348 -2.6195
   61SAPC  C219 4789   5.523   7.034   8.656 -0.0133 -0.1277  0.1199
   61SAPC  H19R 4790   5.545   6.957   8.578  1.5828  0.4052  0.0163
   61SAPC  H19S 4791   5.621   7.087   8.648 -0.4851  0.5293 -1.5441
   61SAPC  C220 4792   5.407   7.120   8.601  0.4450 -0.4278  0.1173
   61SAPC  H20R 4793   5.312   7.062   8.598  0.8282 -1.0088 -1.0826
   61SAPC  H20S 4794   5.416   7.148   8.494 -1.7941 -3.2250 -0.8808
   61SAPC  H20T 4795   5.395   7.208   8.668 -2.6079 -0.5147 -0.2056
   61SAPC   C33 4796   4.876   7.568  10.197 -0.1594  0.5886  0.6477
   61SAPC   H3X 4797   4.777   7.594  10.240 -0.8232  1.4537 -1.3243
   61SAPC   H3Y 4798   4.882   7.459  10.179 -1.5568  0.2080  2.3360
   61SAPC   C34 4799   4.912   7.623  10.055  0.7177  0.7869 -0.4534
   61SAPC   H4X 4800   4.936   7.731  10.049 -1.0610  1.2896  0.8674
   61SAPC   H4Y 4801   4.825   7.612   9.987  0.9115 -0.2726 -0.5338
   61SAPC   C35 4802   5.027   7.558   9.979  0.0717  0.2392  0.4407
   61SAPC   H5X 4803   4.992   7.453   9.966  0.4418 -0.3192  3.5074
   61SAPC   H5Y 4804   5.118   7.554  10.043 -1.0653 -0.7697  2.0194
   61SAPC   C36 4805   5.049   7.620   9.839 -0.0131  0.2242  0.3090
   61SAPC   H6X 4806   5.138   7.574   9.792  1.1489  2.5119  0.2218
   61SAPC   H6Y 4807   5.059   7.730   9.843  0.3059  0.1555  1.6028
   61SAPC   C37 4808   4.925   7.609   9.739  0.7340  0.2342  0.1643
   61SAPC   H7X 4809   4.832   7.664   9.767  2.6293  3.0778  1.0764
   61SAPC   H7Y 4810   4.902   7.500   9.729 -1.0107  0.6556 -0.6611
   61SAPC   C38 4811   4.943   7.645   9.591  0.0929  0.4554 -0.3443
   61SAPC   H8X 4812   4.969   7.753   9.597 -2.0561  0.8619  2.6774
   61SAPC   H8Y 4813   4.850   7.633   9.531 -0.6686 -0.9629  1.0994
   61SAPC   C39 4814   5.050   7.568   9.522 -0.6333  0.4398 -0.2097
   61SAPC   H9X 4815   5.046   7.457   9.527  1.6116  0.3314 -0.5738
   61SAPC   H9Y 4816   5.141   7.589   9.582 -1.1314 -1.3932  1.2375
   61SAPC  C310 4817   5.077   7.624   9.373 -0.0290  0.3494 -0.0802
   61SAPC  H10X 4818   5.038   7.727   9.382 -0.2040  0.2407  0.4362
   61SAPC  H10Y 4819   5.028   7.566   9.291  0.4124  1.2511 -0.9779
   61SAPC  C311 4820   5.226   7.633   9.346  0.3785 -0.1715  0.2848
   61SAPC  H11X 4821   5.276   7.534   9.354 -0.4459 -0.5582  0.7552
   61SAPC  H11Y 4822   5.282   7.689   9.424  2.8570 -1.0812 -0.7852
   61SAPC  C312 4823   5.243   7.698   9.213 -0.2260  0.5860  0.3621
   61SAPC  H12X 4824   5.339   7.754   9.211  0.1638 -0.0734  0.6452
   61SAPC  H12Y 4825   5.161   7.773   9.204  0.4197  1.5157  2.1346
   61SAPC  C313 4826   5.230   7.603   9.092  0.0409 -0.7329  0.2754
   61SAPC  H13X 4827   5.139   7.540   9.099  0.6170 -1.4868  1.1926
   61SAPC  H13Y 4828   5.315   7.531   9.091 -1.3825 -2.4610 -2.4191
   61SAPC  C314 4829   5.230   7.676   8.948  0.1228  0.1148 -0.0854
   61SAPC  H14X 4830   5.330   7.725   8.949  1.4497 -2.5180  1.5127
   61SAPC  H14Y 4831   5.154   7.756   8.954  1.0152  0.8200  2.4453
   61SAPC  C315 4832   5.214   7.573   8.837  0.2178 -0.2067  0.1768
   61SAPC  H15X 4833   5.108   7.545   8.821  0.0684  1.1191 -1.1858
   61SAPC  H15Y 4834   5.268   7.480   8.864  1.0537 -0.5322 -2.4611
   61SAPC  C316 4835   5.270   7.626   8.705  0.2259  0.2048  0.8447
   61SAPC  H16X 4836   5.377   7.654   8.717 -0.2136  1.8071  1.0833
   61SAPC  H16Y 4837   5.212   7.715   8.672 -1.0550  0.1880  2.9855
   61SAPC  C317 4838   5.261   7.528   8.587  0.2429  0.4032 -0.2284
   61SAPC  H17X 4839   5.157   7.489   8.590  0.1664  0.6407  0.2963
   61SAPC  H17Y 4840   5.320   7.436   8.608 -0.3829 -0.4368 -2.0687
   61SAPC  C318 4841   5.289   7.589   8.453  0.1422 -0.4164  0.1988
   61SAPC  H18X 4842   5.393   7.629   8.453  0.6471 -1.6822  0.6688
   61SAPC  H18Y 4843   5.218   7.667   8.418 -1.0220 -2.2037 -1.5432
   61SAPC  H18Z 4844   5.287   7.509   8.376  2.7123 -1.7701  1.4568
   62SAPC     N 4845   4.203   6.446  10.741  0.3814 -0.4966 -0.0328
   62SAPC   C12 4846   4.069   6.384  10.773  0.2062 -0.2047 -0.4615
   62SAPC  H12A 4847   4.011   6.471  10.804 -0.2472 -0.6389 -0.0860
   62SAPC  H12B 4848   4.086   6.312  10.852  0.8923  0.3411 -0.1094
   62SAPC   C13 4849   4.295   6.479  10.853 -1.5259  0.2518  0.4231
   62SAPC  H13A 4850   4.235   6.513  10.936 -1.2004  1.2368  0.2582
   62SAPC  H13B 4851   4.352   6.399  10.898  1.6562  0.6477 -2.6977
   62SAPC  H13C 4852   4.369   6.554  10.831 -1.3155 -0.0600  0.0699
   62SAPC   C14 4853   4.279   6.346  10.659 -0.1261 -0.1942  0.5494
   62SAPC  H14A 4854   4.369   6.384  10.613 -0.9450 -0.8428 -1.6428
   62SAPC  H14B 4855   4.320   6.272  10.726 -0.5895 -0.1650  0.8673
   62SAPC  H14C 4856   4.217   6.302  10.583 -1.6232 -1.7700  2.6368
   62SAPC   C15 4857   4.192   6.559  10.646  0.0706 -0.1712  0.4029
   62SAPC  H15A 4858   4.160   6.651  10.692  0.0991  0.3038 -0.5028
   62SAPC  H15B 4859   4.285   6.590  10.601 -0.6115  1.0176 -0.2571
   62SAPC  H15C 4860   4.124   6.529  10.567 -1.6405 -1.2989  2.2508
   62SAPC   C11 4861   3.994   6.310  10.646 -0.7228  0.3599 -0.1087
   62SAPC  H11A 4862   3.916   6.248  10.695 -0.6308  0.4679  0.1729
   62SAPC  H11B 4863   4.052   6.228  10.599  1.6464  0.6205  2.2277
   62SAPC     P 4864   3.830   6.490  10.572 -0.4190 -0.5614  0.2844
   62SAPC   O13 4865   3.814   6.514  10.718 -0.3490 -0.3956  0.4891
   62SAPC   O14 4866   3.841   6.606  10.488 -0.0206 -0.0233  0.4306
   62SAPC   O12 4867   3.951   6.394  10.544  0.0949 -0.3369  0.5249
   62SAPC   O11 4868   3.705   6.403  10.531 -0.0618 -0.4174 -0.3643
   62SAPC    C1 4869   3.709   6.298  10.427 -0.4008 -0.0905  0.4682
   62SAPC    HA 4870   3.756   6.213  10.479  0.5366  0.8808  1.2389
   62SAPC    HB 4871   3.603   6.268  10.408 -0.4302  0.6940 -0.7109
   62SAPC    C2 4872   3.795   6.317  10.295 -0.0006  0.0450  0.2596
   62SAPC    HS 4873   3.894   6.359  10.324  0.4415 -0.6390 -0.2370
   62SAPC   O21 4874   3.721   6.405  10.210  0.0008  0.2366 -0.7912
   62SAPC   C21 4875   3.792   6.487  10.134  0.2650 -0.8776  0.2157
   62SAPC   O22 4876   3.910   6.509  10.134  0.4830  0.0664  0.3994
   62SAPC   C22 4877   3.700   6.563  10.051  0.1784  0.8851 -0.6868
   62SAPC   H2R 4878   3.605   6.508  10.032 -1.3723  3.4343 -0.5685
   62SAPC   H2S 4879   3.679   6.660  10.101  2.1301  0.9238  0.1020
   62SAPC    C3 4880   3.813   6.183  10.226 -0.1712 -0.2798  0.1352
   62SAPC    HX 4881   3.714   6.142  10.197 -0.7160 -0.5770  2.3531
   62SAPC    HY 4882   3.860   6.103  10.287  0.2968 -0.9898 -1.1309
   62SAPC   O31 4883   3.887   6.207  10.101 -0.0234  0.3478  0.2144
   62SAPC   C31 4884   4.018   6.180  10.096 -0.2974 -0.0298 -0.8975
   62SAPC   O32 4885   4.083   6.121  10.179 -0.3911  0.8445  0.2916
   62SAPC   C32 4886   4.070   6.231   9.961  0.4148 -0.0462  0.3508
   62SAPC   H2X 4887   4.162   6.170   9.951  1.3506  0.9959  2.2746
   62SAPC   H2Y 4888   4.078   6.340   9.979 -0.5892  0.9185 -4.4017
   62SAPC   C23 4889   3.756   6.594   9.909  1.1339 -0.1045  0.4923
   62SAPC   H3R 4890   3.791   6.495   9.871 -0.8570 -0.1004 -1.4715
   62SAPC   H3S 4891   3.834   6.672   9.901 -2.2387  3.4377  1.0540
   62SAPC   C24 4892   3.652   6.629   9.798 -0.5463 -0.7496  0.3792
   62SAPC   H4R 4893   3.576   6.549   9.786 -1.2027 -0.1746  0.6929
   62SAPC   H4S 4894   3.703   6.662   9.704 -3.0245 -0.0486 -0.7616
   62SAPC   C25 4895   3.575   6.748   9.851  0.5164  0.4325  0.2018
   62SAPC   H5R 4896   3.517   6.731   9.943  0.4022  1.9420  0.4271
   62SAPC   C26 4897   3.564   6.874   9.807 -0.1623  0.0535 -0.0023
   62SAPC   H6R 4898   3.522   6.952   9.872 -2.0042 -1.3232  0.4875
   62SAPC   C27 4899   3.610   6.942   9.676 -0.2690 -0.0417  0.7580
   62SAPC   H7R 4900   3.514   6.971   9.628 -0.5793  0.5541  1.7120
   62SAPC   H7S 4901   3.651   6.871   9.601  0.0642 -0.8682  1.7129
   62SAPC   C28 4902   3.710   7.048   9.693 -0.2674 -0.1224  0.1343
   62SAPC   H8R 4903   3.728   7.074   9.798 -2.2113  0.6520  0.2938
   62SAPC   C29 4904   3.769   7.115   9.590 -0.2696  0.4517 -0.4477
   62SAPC   H9R 4905   3.833   7.201   9.612 -1.7269  1.4106  0.1425
   62SAPC  C210 4906   3.741   7.081   9.449 -0.5984 -0.2595  0.2674
   62SAPC  H10R 4907   3.636   7.105   9.420 -0.2002  0.0334 -0.9596
   62SAPC  H10S 4908   3.743   6.972   9.431  0.1380  0.2196 -2.7748
   62SAPC  C211 4909   3.833   7.133   9.340  0.0049  0.1082 -0.8739
   62SAPC  H11R 4910   3.902   7.211   9.374  0.0279  0.3673 -1.5125
   62SAPC  C212 4911   3.852   7.079   9.219 -0.7172 -0.3443  0.7874
   62SAPC  H12R 4912   3.925   7.129   9.154  0.7308 -1.6907  1.3140
   62SAPC  C213 4913   3.782   6.959   9.163 -0.0242 -0.1866 -0.2180
   62SAPC  H13R 4914   3.697   6.992   9.099  1.3970  0.1349 -2.0076
   62SAPC  H13S 4915   3.726   6.902   9.240  0.0574 -0.1573 -0.1357
   62SAPC  C214 4916   3.870   6.862   9.086 -0.0232 -0.3469 -0.4828
   62SAPC  H14R 4917   3.933   6.792   9.144 -1.9359 -0.3230  1.6607
   62SAPC  C215 4918   3.877   6.863   8.955 -0.1292 -0.6855  0.3447
   62SAPC  H15R 4919   3.955   6.801   8.910 -0.3094 -0.8897  0.3118
   62SAPC  C216 4920   3.792   6.939   8.856 -0.4103 -0.3849 -0.4424
   62SAPC  H16R 4921   3.684   6.946   8.883 -0.1263  1.2072  0.3820
   62SAPC  H16S 4922   3.799   6.889   8.757  0.6332  0.1700 -0.6618
   62SAPC  C217 4923   3.846   7.081   8.845 -0.2230  0.1160 -0.1535
   62SAPC  H17R 4924   3.953   7.078   8.817 -1.0288  1.1517 -3.6770
   62SAPC  H17S 4925   3.836   7.137   8.940  0.1290  1.5506 -0.9448
   62SAPC  C218 4926   3.765   7.170   8.747  0.2828  0.3440  0.4010
   62SAPC  H18R 4927   3.792   7.276   8.766  0.9912  0.2831 -0.2361
   62SAPC  H18S 4928   3.656   7.167   8.769 -0.3502  4.1230 -1.7700
   62SAPC  C219 4929   3.800   7.135   8.597 -0.6715  0.0743 -0.3306
   62SAPC  H19R 4930   3.755   7.036   8.578 -1.5893  0.4388 -0.0682
   62SAPC  H19S 4931   3.910   7.127   8.585 -0.4638  0.4640  1.1909
   62SAPC  C220 4932   3.738   7.242   8.510  0.3439 -0.5554 -0.0777
   62SAPC  H20R 4933   3.763   7.347   8.536 -0.0087 -0.3755 -0.4605
   62SAPC  H20S 4934   3.627   7.237   8.511  0.3826 -1.1951  1.0331
   62SAPC  H20T 4935   3.776   7.225   8.407 -2.7885  1.2247 -1.6102
   62SAPC   C33 4936   3.980   6.213   9.839 -0.3156  0.2547  0.1709
   62SAPC   H3X 4937   3.886   6.271   9.850 -1.9497 -2.2737 -0.0163
   62SAPC   H3Y 4938   3.940   6.110   9.830 -1.8652  0.8512 -0.0532
   62SAPC   C34 4939   4.060   6.233   9.701  0.0653  0.3056 -0.1928
   62SAPC   H4X 4940   4.024   6.151   9.635 -0.9146  1.6960 -1.4543
   62SAPC   H4Y 4941   4.168   6.220   9.721  0.0751 -0.4038 -0.6898
   62SAPC   C35 4942   4.050   6.368   9.631 -0.0403 -0.2444  0.1656
   62SAPC   H5X 4943   4.075   6.446   9.706  0.9593  1.8274 -2.2358
   62SAPC   H5Y 4944   3.944   6.379   9.598  0.4320 -0.4043 -1.4532
   62SAPC   C36 4945   4.143   6.383   9.515 -0.2780  0.1852 -0.6892
   62SAPC   H6X 4946   4.141   6.301   9.440 -2.4533 -1.9455  1.5982
   62SAPC   H6Y 4947   4.249   6.389   9.549 -0.5925 -0.4984  0.4378
   62SAPC   C37 4948   4.116   6.517   9.445 -0.2730 -0.3062  0.1506
   62SAPC   H7X 4949   4.006   6.534   9.447 -0.0871  0.8829  0.5316
   62SAPC   H7Y 4950   4.145   6.510   9.338  0.8726 -0.2647  0.4553
   62SAPC   C38 4951   4.185   6.635   9.511 -0.7582  0.3293  0.6815
   62SAPC   H8X 4952   4.293   6.641   9.485 -0.2987 -1.8472  2.0206
   62SAPC   H8Y 4953   4.165   6.643   9.620  0.3865  2.7268  0.7467
   62SAPC   C39 4954   4.146   6.772   9.452 -0.1849  0.2655  0.5378
   62SAPC   H9X 4955   4.194   6.845   9.520  0.3447 -2.2846  2.9880
   62SAPC   H9Y 4956   4.035   6.784   9.451  0.0271  2.5797 -1.0222
   62SAPC  C310 4957   4.214   6.795   9.321 -0.0546 -0.1795  0.3931
   62SAPC  H10X 4958   4.159   6.743   9.239 -1.7081 -0.7107  1.8173
   62SAPC  H10Y 4959   4.320   6.762   9.328 -0.2340 -0.6441  0.9498
   62SAPC  C311 4960   4.216   6.943   9.283 -0.1978  0.8575  0.3067
   62SAPC  H11X 4961   4.258   7.006   9.365  0.7325 -0.2332  0.6809
   62SAPC  H11Y 4962   4.114   6.982   9.262  0.3584  1.3765 -1.5247
   62SAPC  C312 4963   4.311   6.951   9.166 -0.2313 -0.6802 -0.0855
   62SAPC  H12X 4964   4.268   6.883   9.090  0.6299 -1.5708  0.2250
   62SAPC  H12Y 4965   4.415   6.916   9.187  0.4684  1.5556  0.3372
   62SAPC  C313 4966   4.347   7.088   9.110 -0.2065  0.8642 -0.1639
   62SAPC  H13X 4967   4.420   7.072   9.028  1.2236 -1.7970  1.5470
   62SAPC  H13Y 4968   4.403   7.148   9.184  0.0056  1.6563 -0.9557
   62SAPC  C314 4969   4.228   7.165   9.057 -0.5253 -0.4025  0.0568
   62SAPC  H14X 4970   4.171   7.217   9.137 -0.3188 -1.2056  0.7400
   62SAPC  H14Y 4971   4.161   7.096   9.001 -0.9768  0.0790  0.0016
   62SAPC  C315 4972   4.268   7.275   8.947 -0.2377  0.1103  0.7507
   62SAPC  H15X 4973   4.338   7.230   8.873 -0.2935  0.7001  0.3344
   62SAPC  H15Y 4974   4.325   7.361   8.988 -0.5642  0.3593  0.6909
   62SAPC  C316 4975   4.146   7.330   8.876 -0.0855  0.0629 -0.0101
   62SAPC  H16X 4976   4.060   7.343   8.945 -0.3241  4.5072 -0.9944
   62SAPC  H16Y 4977   4.104   7.258   8.802 -0.8655 -0.0832  0.5654
   62SAPC  C317 4978   4.164   7.455   8.797 -0.1572  0.3716 -0.4965
   62SAPC  H17X 4979   4.262   7.470   8.746  0.2730  2.1372  0.7909
   62SAPC  H17Y 4980   4.169   7.538   8.870 -0.9219  0.9502 -1.0974
   62SAPC  C318 4981   4.058   7.482   8.693 -0.0956 -0.0763 -0.3511
   62SAPC  H18X 4982   4.055   7.419   8.601 -0.2231 -0.4338 -0.1022
   62SAPC  H18Y 4983   4.071   7.581   8.645 -2.5792 -0.2698 -1.4951
   62SAPC  H18Z 4984   3.961   7.486   8.747  1.6919 -0.9217  3.0355
   63SAPC     N 4985   0.622   5.769   6.236 -0.3984  0.1118 -0.4814
   63SAPC   C12 4986   0.704   5.879   6.301  0.9442 -0.3631 -0.7168
   63SAPC  H12A 4987   0.701   5.854   6.407 -0.1902  1.3959 -0.3224
   63SAPC  H12B 4988   0.643   5.966   6.284  2.7771  1.2629  0.7211
   63SAPC   C13 4989   0.664   5.636   6.269 -0.1133 -0.3649  0.0784
   63SAPC  H13A 4990   0.593   5.558   6.246 -1.5179  0.6249  0.9779
   63SAPC  H13B 4991   0.760   5.607   6.228  0.8303  0.6195  1.5295
   63SAPC  H13C 4992   0.681   5.622   6.375 -1.3739 -1.1462  0.1934
   63SAPC   C14 4993   0.475   5.778   6.273  0.5687  0.2803 -0.4834
   63SAPC  H14A 4994   0.421   5.871   6.267  1.4326  0.9137  1.3201
   63SAPC  H14B 4995   0.423   5.697   6.223 -1.0570  0.3342  1.0906
   63SAPC  H14C 4996   0.466   5.739   6.373 -1.3983 -0.7581 -1.0269
   63SAPC   C15 4997   0.619   5.794   6.083  0.1548  1.0659 -0.5418
   63SAPC  H15A 4998   0.712   5.765   6.037 -0.3164  0.2645 -1.0066
   63SAPC  H15B 4999   0.543   5.732   6.037  0.3820 -0.3894  1.0099
   63SAPC  H15C 5000   0.592   5.896   6.061  1.4322  1.6150  0.4146
   63SAPC   C11 5001   0.846   5.894   6.248 -0.0989  0.8453  0.7648
   63SAPC  H11A 5002   0.895   5.987   6.284  1.3319  1.5003 -2.6533
   63SAPC  H11B 5003   0.846   5.913   6.139  0.6524 -0.3871  0.5492
   63SAPC     P 5004   0.989   5.751   6.426  0.3876 -0.2256 -0.2819
   63SAPC   O13 5005   0.889   5.677   6.500  0.0567  0.4414  0.1367
   63SAPC   O14 5006   1.120   5.686   6.411 -0.2461 -0.7480 -0.1841
   63SAPC   O12 5007   0.928   5.781   6.278 -0.1206 -0.2575  0.2494
   63SAPC   O11 5008   1.014   5.892   6.491  0.4039 -0.3223 -0.2808
   63SAPC    C1 5009   1.126   5.983   6.460 -0.1276 -0.4585 -0.4215
   63SAPC    HA 5010   1.165   5.964   6.358 -0.0987 -1.0473 -0.2998
   63SAPC    HB 5011   1.091   6.088   6.467 -0.3366 -0.5764  0.2670
   63SAPC    C2 5012   1.238   5.969   6.563  0.4436  0.1340  0.0185
   63SAPC    HS 5013   1.268   5.862   6.558  2.1753  0.4986  1.9571
   63SAPC   O21 5014   1.179   6.003   6.689 -0.7818 -0.0332  0.7394
   63SAPC   C21 5015   1.145   5.898   6.764  0.3042 -0.9551 -0.3316
   63SAPC   O22 5016   1.183   5.786   6.749 -0.5560  0.4227  0.0584
   63SAPC   C22 5017   1.061   5.946   6.889 -0.4696  0.4052  0.0939
   63SAPC   H2R 5018   0.997   6.030   6.855 -2.2516 -0.1366  1.9625
   63SAPC   H2S 5019   0.990   5.864   6.915 -0.9234  1.0312  0.8714
   63SAPC    C3 5020   1.354   6.053   6.539  0.3514  0.0721  0.2724
   63SAPC    HX 5021   1.402   6.027   6.443  0.5629  0.8321  0.1706
   63SAPC    HY 5022   1.428   6.038   6.620  0.2385  2.5946  0.8723
   63SAPC   O31 5023   1.319   6.196   6.535 -0.3047 -0.6397 -0.6772
   63SAPC   C31 5024   1.422   6.273   6.524 -0.7726 -0.4941  0.8085
   63SAPC   O32 5025   1.537   6.247   6.509  0.2580 -0.3755 -0.1434
   63SAPC   C32 5026   1.368   6.415   6.542 -0.1593  0.1286 -0.6607
   63SAPC   H2X 5027   1.319   6.410   6.641  1.1980  2.4363  0.1652
   63SAPC   H2Y 5028   1.296   6.415   6.457 -0.0799 -0.3935 -0.7337
   63SAPC   C23 5029   1.152   5.988   7.012  0.0955 -0.1549 -0.1306
   63SAPC   H3R 5030   1.092   6.058   7.073 -0.4751  0.4142 -1.3282
   63SAPC   H3S 5031   1.243   6.037   6.970 -1.5731  1.4374 -1.9788
   63SAPC   C24 5032   1.198   5.875   7.108  0.6668  0.3628 -0.4436
   63SAPC   H4R 5033   1.276   5.914   7.176  0.5938  2.4050 -1.4891
   63SAPC   H4S 5034   1.251   5.794   7.053  1.2696  0.2960  0.2386
   63SAPC   C25 5035   1.087   5.820   7.193 -0.5762  0.6839  0.0525
   63SAPC   H5R 5036   1.001   5.784   7.135  0.1665 -0.6182 -0.2759
   63SAPC   C26 5037   1.088   5.801   7.328  0.1465  0.2675  0.7021
   63SAPC   H6R 5038   1.006   5.737   7.362  1.5561 -2.0926 -0.1985
   63SAPC   C27 5039   1.196   5.841   7.422  0.2554  0.1946  0.4855
   63SAPC   H7R 5040   1.263   5.919   7.381  1.8039  0.0966  2.7408
   63SAPC   H7S 5041   1.264   5.755   7.437  1.5460  1.4546  2.0617
   63SAPC   C28 5042   1.141   5.889   7.556 -0.4194  0.0325 -0.6374
   63SAPC   H8R 5043   1.041   5.933   7.544 -0.3318 -0.1705 -2.2129
   63SAPC   C29 5044   1.201   5.891   7.676  0.6847 -0.8243 -0.1290
   63SAPC   H9R 5045   1.144   5.923   7.764 -1.0445  0.9786 -1.8500
   63SAPC  C210 5046   1.342   5.841   7.695 -0.2503  0.2516  0.2175
   63SAPC  H10R 5047   1.395   5.916   7.758 -0.1557  0.0133  0.4241
   63SAPC  H10S 5048   1.403   5.834   7.603 -1.2197  1.7172 -0.5563
   63SAPC  C211 5049   1.329   5.723   7.793  0.4567  0.2907 -1.1324
   63SAPC  H11R 5050   1.294   5.633   7.741  0.3091  0.8907 -2.0924
   63SAPC  C212 5051   1.355   5.718   7.927 -0.3785  0.3949 -1.1097
   63SAPC  H12R 5052   1.337   5.623   7.978  1.7564  0.3170 -0.4955
   63SAPC  C213 5053   1.389   5.831   8.024  0.2688 -0.0913  0.1670
   63SAPC  H13R 5054   1.483   5.884   7.997  0.2864  1.1214  2.5282
   63SAPC  H13S 5055   1.406   5.774   8.117 -0.4434 -0.1101  0.2898
   63SAPC  C214 5056   1.269   5.912   8.049 -0.2163 -0.3259  0.0714
   63SAPC  H14R 5057   1.243   5.986   7.972  0.3279 -0.5861 -0.3663
   63SAPC  C215 5058   1.195   5.921   8.154 -0.0091 -0.2056 -0.1748
   63SAPC  H15R 5059   1.114   5.995   8.155  1.4964  1.4950 -1.1199
   63SAPC  C216 5060   1.218   5.842   8.282 -0.0908 -0.1356 -0.1907
   63SAPC  H16R 5061   1.260   5.741   8.264 -2.1290 -0.9640 -0.4053
   63SAPC  H16S 5062   1.120   5.837   8.335 -0.1888  1.5235 -0.1886
   63SAPC  C217 5063   1.318   5.918   8.364  0.4401  0.0432 -0.0471
   63SAPC  H17R 5064   1.289   6.022   8.388 -1.8384 -0.9997  1.9680
   63SAPC  H17S 5065   1.415   5.927   8.311  0.3962  1.6334  0.1326
   63SAPC  C218 5066   1.349   5.850   8.510  0.2141 -0.1458 -0.1239
   63SAPC  H18R 5067   1.254   5.875   8.562  0.5120 -1.6514  1.1759
   63SAPC  H18S 5068   1.432   5.912   8.549  0.2467 -0.0065 -0.4179
   63SAPC  C219 5069   1.379   5.702   8.524 -0.1454  0.9641 -0.3144
   63SAPC  H19R 5070   1.433   5.687   8.620  2.0660  1.0501 -1.5005
   63SAPC  H19S 5071   1.441   5.674   8.436  1.3913 -0.6770  1.2464
   63SAPC  C220 5072   1.254   5.614   8.522 -0.1265  0.2769  0.1191
   63SAPC  H20R 5073   1.203   5.636   8.426 -3.5061 -0.3695  1.7056
   63SAPC  H20S 5074   1.182   5.628   8.605  0.1726 -0.6293  0.5374
   63SAPC  H20T 5075   1.293   5.510   8.518 -0.5332  0.1787 -1.8089
   63SAPC   C33 5076   1.474   6.527   6.536 -0.8439 -0.3016  0.2282
   63SAPC   H3X 5077   1.541   6.503   6.451  0.0222 -0.4624  0.9472
   63SAPC   H3Y 5078   1.523   6.535   6.635 -1.1547  2.0476  0.2093
   63SAPC   C34 5079   1.423   6.664   6.503  0.6207 -0.9159  0.3694
   63SAPC   H4X 5080   1.381   6.659   6.401  0.3524 -1.9071  0.5250
   63SAPC   H4Y 5081   1.500   6.744   6.502  1.0065 -1.3035 -2.1470
   63SAPC   C35 5082   1.325   6.726   6.611 -0.4196  0.1920  0.3113
   63SAPC   H5X 5083   1.242   6.655   6.632  0.3614 -0.1337  2.5268
   63SAPC   H5Y 5084   1.296   6.825   6.571 -3.4423 -0.8889 -0.2664
   63SAPC   C36 5085   1.401   6.760   6.735  0.5651 -0.0507 -0.3866
   63SAPC   H6X 5086   1.467   6.841   6.697  1.8725 -0.8657  0.0841
   63SAPC   H6Y 5087   1.460   6.679   6.785  0.2036 -0.3246 -0.4023
   63SAPC   C37 5088   1.305   6.825   6.842 -0.2534 -0.3175 -0.3485
   63SAPC   H7X 5089   1.226   6.749   6.857 -0.9734  0.2253 -1.2937
   63SAPC   H7Y 5090   1.255   6.917   6.804 -0.3201  0.3964  1.4374
   63SAPC   C38 5091   1.383   6.857   6.970 -0.3707 -0.5880  0.4129
   63SAPC   H8X 5092   1.308   6.899   7.040 -0.6417 -1.6455  0.7636
   63SAPC   H8Y 5093   1.456   6.935   6.939  0.1178 -0.7939  1.0451
   63SAPC   C39 5094   1.442   6.733   7.042  0.0893 -0.8922 -0.4941
   63SAPC   H9X 5095   1.498   6.658   6.983  0.0332 -2.4453  1.3745
   63SAPC   H9Y 5096   1.364   6.666   7.086  0.0706 -0.3126  0.3487
   63SAPC  C310 5097   1.521   6.777   7.170  0.8282 -0.0794 -0.0484
   63SAPC  H10X 5098   1.453   6.821   7.246 -2.1526  0.5775 -2.9761
   63SAPC  H10Y 5099   1.587   6.862   7.142 -1.8085  1.9323 -0.3302
   63SAPC  C311 5100   1.605   6.670   7.236  0.8044  0.0053 -0.6035
   63SAPC  H11X 5101   1.658   6.609   7.160  1.0975  0.2877 -0.6239
   63SAPC  H11Y 5102   1.541   6.590   7.280 -0.3399  1.3078  0.1473
   63SAPC  C312 5103   1.696   6.721   7.348 -0.3167 -0.6992  0.6981
   63SAPC  H12X 5104   1.734   6.823   7.325 -0.4802 -0.4817  1.3728
   63SAPC  H12Y 5105   1.781   6.650   7.356  2.7587  2.5498 -1.9546
   63SAPC  C313 5106   1.617   6.728   7.487 -0.1633  0.4031  0.0804
   63SAPC  H13X 5107   1.600   6.622   7.514 -2.3414  0.3286 -1.4900
   63SAPC  H13Y 5108   1.519   6.774   7.463 -0.3316  0.6965  1.2978
   63SAPC  C314 5109   1.691   6.799   7.607 -0.1718  0.3857 -0.0811
   63SAPC  H14X 5110   1.709   6.900   7.564  0.2546  0.7622  0.9611
   63SAPC  H14Y 5111   1.794   6.758   7.615  0.0484  0.7371 -0.9731
   63SAPC  C315 5112   1.619   6.819   7.737 -0.6332  0.0298 -0.1561
   63SAPC  H15X 5113   1.511   6.842   7.725 -1.0261 -1.3439  0.6131
   63SAPC  H15Y 5114   1.666   6.911   7.779  0.3235  0.1014 -1.3960
   63SAPC  C316 5115   1.625   6.698   7.839  0.2103  0.5092  0.4332
   63SAPC  H16X 5116   1.732   6.674   7.857  0.2793  0.1918 -0.3661
   63SAPC  H16Y 5117   1.574   6.611   7.794  0.1864  0.4291  0.6167
   63SAPC  C317 5118   1.553   6.723   7.974 -0.6500  0.2026 -0.0341
   63SAPC  H17X 5119   1.586   6.826   8.001 -0.7699  0.2010  0.1154
   63SAPC  H17Y 5120   1.600   6.648   8.040 -1.3425 -0.8307 -0.7066
   63SAPC  C318 5121   1.406   6.701   7.970  0.6172  0.9659 -0.3233
   63SAPC  H18X 5122   1.373   6.644   8.060 -0.7059 -1.5724 -2.3139
   63SAPC  H18Y 5123   1.382   6.641   7.879  2.8364 -0.9724  0.3209
   63SAPC  H18Z 5124   1.345   6.794   7.976 -0.0392  0.4691  0.9384
   64SAPC     N 5125   2.961   6.469   6.175 -1.1177  0.3700  0.0615
   64SAPC   C12 5126   3.096   6.454   6.242 -0.0890  0.7448 -0.3385
   64SAPC  H12A 5127   3.161   6.393   6.181  1.0609  1.2162  0.4167
   64SAPC  H12B 5128   3.083   6.385   6.324 -1.9520  0.8930 -0.4860
   64SAPC   C13 5129   2.869   6.566   6.244 -0.4507  0.5483  1.0154
   64SAPC  H13A 5130   2.911   6.665   6.248 -0.5338  0.5694  1.3266
   64SAPC  H13B 5131   2.775   6.579   6.193  0.0958 -0.8049 -0.3829
   64SAPC  H13C 5132   2.847   6.538   6.346 -0.3744  1.2044  1.2121
   64SAPC   C14 5133   2.974   6.502   6.029 -0.3659  0.8020 -0.0434
   64SAPC  H14A 5134   2.880   6.517   5.980 -0.3795 -1.6642 -0.8468
   64SAPC  H14B 5135   3.027   6.595   6.016 -2.1910  1.6454 -1.6252
   64SAPC  H14C 5136   3.023   6.422   5.976 -1.6155  1.1410 -1.7352
   64SAPC   C15 5137   2.885   6.337   6.190 -0.2935 -0.2213 -0.7018
   64SAPC  H15A 5138   2.922   6.262   6.121  3.0771  2.1253 -1.6063
   64SAPC  H15B 5139   2.891   6.301   6.291 -0.3417 -0.3266 -0.7362
   64SAPC  H15C 5140   2.780   6.351   6.166  0.0090  1.7797 -0.9891
   64SAPC   C11 5141   3.171   6.585   6.280  0.7695 -0.1977  0.0844
   64SAPC  H11A 5142   3.258   6.573   6.347  1.2206 -1.5163 -0.7061
   64SAPC  H11B 5143   3.108   6.639   6.354 -0.0398 -0.3284 -0.4962
   64SAPC     P 5144   3.326   6.656   6.086 -0.1849 -0.2086  0.4744
   64SAPC   O13 5145   3.368   6.519   6.080  0.0512 -0.3260  0.2505
   64SAPC   O14 5146   3.320   6.719   5.955  0.2140 -0.7318  0.2603
   64SAPC   O12 5147   3.185   6.669   6.167 -0.1915 -0.1386 -0.2621
   64SAPC   O11 5148   3.422   6.729   6.176 -0.6953 -0.2158 -0.1673
   64SAPC    C1 5149   3.379   6.834   6.263 -0.2280  0.6287 -0.0206
   64SAPC    HA 5150   3.385   6.935   6.216  1.6628  0.1358 -0.9048
   64SAPC    HB 5151   3.277   6.823   6.304 -0.0944  1.0167  0.4149
   64SAPC    C2 5152   3.469   6.841   6.386  0.2311  0.7021 -0.0833
   64SAPC    HS 5153   3.574   6.863   6.355  1.0132  1.5914  3.0013
   64SAPC   O21 5154   3.458   6.718   6.455  0.8957 -0.7742  0.0023
   64SAPC   C21 5155   3.575   6.655   6.489 -0.0735  0.6493 -0.3005
   64SAPC   O22 5156   3.686   6.692   6.457  0.1987 -0.2819 -0.5523
   64SAPC   C22 5157   3.552   6.522   6.552  0.0003  0.5163  0.5625
   64SAPC   H2R 5158   3.501   6.537   6.649 -0.4710 -1.6934  0.6716
   64SAPC   H2S 5159   3.480   6.471   6.485 -0.5002  3.1887 -1.0210
   64SAPC    C3 5160   3.430   6.946   6.485  0.1943  0.5498  0.0844
   64SAPC    HX 5161   3.322   6.922   6.491  0.3148  0.2135  0.9903
   64SAPC    HY 5162   3.447   7.047   6.442 -0.6959  1.3617  1.6136
   64SAPC   O31 5163   3.499   6.922   6.611  0.2231  0.0654 -0.1267
   64SAPC   C31 5164   3.626   6.957   6.616  0.0552 -0.1011 -0.2118
   64SAPC   O32 5165   3.693   7.010   6.530  0.5652  0.8939  0.9807
   64SAPC   C32 5166   3.687   6.913   6.753  0.4458 -0.2806 -0.0257
   64SAPC   H2X 5167   3.672   7.000   6.821  1.0664 -1.3364  1.4939
   64SAPC   H2Y 5168   3.796   6.901   6.739  0.3121 -1.6183 -0.0016
   64SAPC   C23 5169   3.679   6.439   6.581 -0.2888  0.3125  0.4962
   64SAPC   H3R 5170   3.759   6.500   6.627  2.0632 -0.5769 -2.2746
   64SAPC   H3S 5171   3.715   6.408   6.481 -0.7081  0.5995  0.2557
   64SAPC   C24 5172   3.648   6.314   6.658 -0.8964  0.1067 -0.1262
   64SAPC   H4R 5173   3.582   6.258   6.589 -0.7628 -2.3073  1.6515
   64SAPC   H4S 5174   3.588   6.348   6.745  1.5689  0.6087  1.4580
   64SAPC   C25 5175   3.746   6.210   6.691  0.3477 -0.3867 -0.4876
   64SAPC   H5R 5176   3.745   6.130   6.616 -1.4903 -1.4753  0.6437
   64SAPC   C26 5177   3.828   6.215   6.799  0.3225  0.4866  0.5493
   64SAPC   H6R 5178   3.902   6.134   6.810 -0.3143  0.1894  2.8892
   64SAPC   C27 5179   3.847   6.316   6.904  0.4787  0.3495 -0.2487
   64SAPC   H7R 5180   3.854   6.411   6.847  0.6202 -0.7322 -2.0809
   64SAPC   H7S 5181   3.951   6.298   6.937  0.1446  0.3329  0.7981
   64SAPC   C28 5182   3.748   6.337   7.013  0.2698  0.1114 -0.0269
   64SAPC   H8R 5183   3.649   6.373   6.983  0.8379  1.4978 -0.2997
   64SAPC   C29 5184   3.771   6.307   7.145  0.0289  0.1479 -0.3157
   64SAPC   H9R 5185   3.694   6.332   7.220  1.6824  0.9694  1.1235
   64SAPC  C210 5186   3.893   6.254   7.214  0.7226 -0.2876  0.4786
   64SAPC  H10R 5187   3.949   6.180   7.153 -0.9419 -1.2878  0.1227
   64SAPC  H10S 5188   3.865   6.201   7.308  0.7434  2.3271  1.9928
   64SAPC  C211 5189   3.985   6.373   7.240  0.0187 -0.0547 -0.5025
   64SAPC  H11R 5190   4.018   6.434   7.155 -0.7352  2.8772  1.2237
   64SAPC  C212 5191   4.028   6.409   7.368 -0.4877 -0.2383 -0.0654
   64SAPC  H12R 5192   4.089   6.500   7.376 -2.8948  1.6213 -2.1029
   64SAPC  C213 5193   3.984   6.350   7.495 -0.0235  0.7341 -0.2339
   64SAPC  H13R 5194   4.060   6.386   7.567 -0.3777  3.0337 -0.9678
   64SAPC  H13S 5195   3.984   6.240   7.480  1.9675  0.8185 -0.9548
   64SAPC  C214 5196   3.851   6.411   7.547 -0.1735 -0.3231  0.8655
   64SAPC  H14R 5197   3.781   6.449   7.471  1.7296 -0.5285 -1.0565
   64SAPC  C215 5198   3.815   6.391   7.674 -0.0004  0.7926 -0.7484
   64SAPC  H15R 5199   3.721   6.440   7.704 -0.7356  0.0893 -1.8737
   64SAPC  C216 5200   3.884   6.322   7.793 -0.2102 -0.8105  0.3874
   64SAPC  H16R 5201   3.974   6.264   7.764 -0.0455  0.3568 -1.5837
   64SAPC  H16S 5202   3.799   6.268   7.840 -1.5704  0.7626 -0.1945
   64SAPC  C217 5203   3.934   6.415   7.903 -0.5143  0.0393 -0.4604
   64SAPC  H17R 5204   3.852   6.486   7.927  0.9288  1.5924 -0.0522
   64SAPC  H17S 5205   4.015   6.479   7.865  0.1179 -1.3676 -1.5255
   64SAPC  C218 5206   3.969   6.337   8.028 -0.5705 -0.0942  0.4903
   64SAPC  H18R 5207   4.057   6.272   8.011 -0.8347 -0.2630 -0.2301
   64SAPC  H18S 5208   3.886   6.266   8.046  0.5106 -1.8099 -1.1811
   64SAPC  C219 5209   3.993   6.433   8.144  0.4380  1.1460  0.0394
   64SAPC  H19R 5210   3.981   6.386   8.244  0.6921  1.4082  0.1903
   64SAPC  H19S 5211   3.918   6.515   8.146 -1.1585 -0.2937  1.4014
   64SAPC  C220 5212   4.130   6.499   8.139 -0.3637 -0.4423  0.0244
   64SAPC  H20R 5213   4.205   6.425   8.174 -0.2108  0.1955  1.0681
   64SAPC  H20S 5214   4.139   6.590   8.202 -0.6928  0.9544 -1.9053
   64SAPC  H20T 5215   4.147   6.542   8.038 -0.0918 -0.5222  0.0376
   64SAPC   C33 5216   3.635   6.773   6.808  0.1484 -0.5508 -0.1192
   64SAPC   H3X 5217   3.705   6.699   6.764 -0.2246  0.4714 -2.5023
   64SAPC   H3Y 5218   3.535   6.739   6.771 -0.2914  0.5421  0.0519
   64SAPC   C34 5219   3.649   6.766   6.960 -0.1549  0.0178 -0.0245
   64SAPC   H4X 5220   3.595   6.676   6.998  2.0849 -1.7427 -0.9273
   64SAPC   H4Y 5221   3.599   6.858   6.998  0.3252  0.3235 -0.1407
   64SAPC   C35 5222   3.795   6.748   7.006  0.2144  0.7419 -0.0781
   64SAPC   H5X 5223   3.860   6.835   6.985  1.7061  0.3715  2.8861
   64SAPC   H5Y 5224   3.852   6.667   6.957 -0.5290 -0.3821  0.8912
   64SAPC   C36 5225   3.801   6.712   7.156  0.3256 -0.4632  0.9613
   64SAPC   H6X 5226   3.906   6.683   7.177  0.4265 -1.1058 -0.3372
   64SAPC   H6Y 5227   3.731   6.628   7.178  1.3415 -1.6638 -0.2883
   64SAPC   C37 5228   3.780   6.830   7.255 -0.3139 -0.1242  0.9702
   64SAPC   H7X 5229   3.676   6.866   7.240  0.2538  1.4663  0.7492
   64SAPC   H7Y 5230   3.852   6.909   7.228  0.1365 -0.5842  0.8107
   64SAPC   C38 5231   3.821   6.798   7.400 -0.0528  0.2218  0.4599
   64SAPC   H8X 5232   3.925   6.760   7.409 -0.6960 -1.9631 -0.7370
   64SAPC   H8Y 5233   3.767   6.708   7.440  1.7832 -0.1899  2.0775
   64SAPC   C39 5234   3.799   6.916   7.494 -0.0407 -0.4628  0.4980
   64SAPC   H9X 5235   3.703   6.970   7.479 -0.3324 -0.9725  0.5102
   64SAPC   H9Y 5236   3.877   6.992   7.475 -1.0752  1.2083  2.7638
   64SAPC  C310 5237   3.797   6.872   7.641  0.4123  0.1435  0.1314
   64SAPC  H10X 5238   3.858   6.781   7.659 -0.6645 -0.5059  0.5486
   64SAPC  H10Y 5239   3.699   6.826   7.666  0.1676  1.2636  1.2841
   64SAPC  C311 5240   3.830   6.977   7.741  0.1258 -0.1136  0.3656
   64SAPC  H11X 5241   3.746   7.048   7.722  0.2192 -0.2516 -0.5809
   64SAPC  H11Y 5242   3.919   7.024   7.693 -1.1277  0.7861 -1.1437
   64SAPC  C312 5243   3.851   6.924   7.887 -0.3032 -0.4169  0.0876
   64SAPC  H12X 5244   3.896   6.822   7.880 -3.2304 -1.6391 -2.3041
   64SAPC  H12Y 5245   3.754   6.922   7.942 -0.2996 -1.0000  0.0799
   64SAPC  C313 5246   3.938   7.012   7.976  0.5310 -0.5749  0.2699
   64SAPC  H13X 5247   3.919   7.121   7.986  0.7054 -0.7295  2.4200
   64SAPC  H13Y 5248   4.043   6.997   7.941  0.1924  0.0128 -1.0126
   64SAPC  C314 5249   3.929   6.962   8.120  0.1332 -0.4839 -0.8245
   64SAPC  H14X 5250   3.960   6.856   8.127  1.5192 -0.0367  0.0978
   64SAPC  H14Y 5251   3.828   6.985   8.160  1.1088  0.1711  1.3302
   64SAPC  C315 5252   4.029   7.045   8.206 -0.5896 -0.2650 -1.1062
   64SAPC  H15X 5253   4.014   7.154   8.196 -1.0768 -0.3988 -1.9394
   64SAPC  H15Y 5254   4.129   7.018   8.166  0.5590 -2.7255  3.1302
   64SAPC  C316 5255   4.031   6.999   8.356 -0.5896 -0.0473  0.0931
   64SAPC  H16X 5256   4.035   6.888   8.352 -0.0864 -0.0483  0.6872
   64SAPC  H16Y 5257   3.931   7.012   8.402 -1.7199 -3.1202 -1.3354
   64SAPC  C317 5258   4.142   7.069   8.428  0.0811 -0.0137  0.1223
   64SAPC  H17X 5259   4.099   7.171   8.440  0.3387 -0.1655  2.6263
   64SAPC  H17Y 5260   4.229   7.071   8.359  0.4342  3.1454  0.5606
   64SAPC  C318 5261   4.178   7.023   8.569 -0.4007 -0.2067 -0.6644
   64SAPC  H18X 5262   4.278   6.978   8.588 -0.3784  0.5921  1.1952
   64SAPC  H18Y 5263   4.104   6.952   8.613 -1.2794  0.4379 -1.0941
   64SAPC  H18Z 5264   4.184   7.117   8.628 -0.7514 -0.7198  0.2013
   65SAPC     N 5265   4.024   1.467   5.684 -0.1642 -0.2686  0.4152
   65SAPC   C12 5266   4.003   1.529   5.816 -0.0536  0.2604 -0.4132
   65SAPC  H12A 5267   3.911   1.585   5.809 -0.7391 -0.8142 -0.0518
   65SAPC  H12B 5268   4.076   1.609   5.822 -1.1222  1.2143  0.0412
   65SAPC   C13 5269   4.165   1.414   5.671  0.2511 -0.2506  0.0439
   65SAPC  H13A 5270   4.189   1.386   5.569 -2.1365 -4.4077  0.5291
   65SAPC  H13B 5271   4.232   1.489   5.709  0.3081  1.3180 -2.9868
   65SAPC  H13C 5272   4.188   1.326   5.728  1.3214  0.3592  0.5595
   65SAPC   C14 5273   3.927   1.354   5.665  0.0220  0.0268  0.4070
   65SAPC  H14A 5274   3.826   1.385   5.687 -0.3881  0.5362 -2.0241
   65SAPC  H14B 5275   3.927   1.306   5.568 -3.4324 -0.8184  0.7532
   65SAPC  H14C 5276   3.943   1.287   5.748 -2.4031  1.7817  2.3599
   65SAPC   C15 5277   3.996   1.572   5.577 -0.4820  0.6297 -0.5557
   65SAPC  H15A 5278   4.044   1.664   5.606  1.2868 -1.2626  2.9967
   65SAPC  H15B 5279   4.038   1.555   5.479  2.9117  2.1220  0.5824
   65SAPC  H15C 5280   3.892   1.594   5.560  0.3763  3.1304 -2.8728
   65SAPC   C11 5281   4.020   1.442   5.942  0.0326 -0.4506  0.3252
   65SAPC  H11A 5282   4.042   1.505   6.031 -1.5259  0.5700 -0.0052
   65SAPC  H11B 5283   4.108   1.377   5.924 -1.8536 -3.0356  0.1519
   65SAPC     P 5284   3.767   1.392   5.985 -0.1654 -0.0574  0.1287
   65SAPC   O13 5285   3.742   1.520   5.931  0.1620  0.2450 -0.2586
   65SAPC   O14 5286   3.681   1.286   5.938 -0.2935  0.4517  0.6405
   65SAPC   O12 5287   3.915   1.347   5.956 -0.4672  0.1871  0.9479
   65SAPC   O11 5288   3.768   1.392   6.139 -0.2692 -0.1865 -0.1328
   65SAPC    C1 5289   3.804   1.507   6.212 -0.2356  0.2057 -0.0871
   65SAPC    HA 5290   3.910   1.498   6.244 -0.3373  1.3652  0.6483
   65SAPC    HB 5291   3.801   1.607   6.163 -1.7400 -0.0789 -0.6060
   65SAPC    C2 5292   3.729   1.536   6.341 -0.1851 -0.1930  0.1390
   65SAPC    HS 5293   3.742   1.638   6.382  1.3938 -0.1618 -0.3962
   65SAPC   O21 5294   3.772   1.436   6.436 -0.2577  0.0622 -0.4257
   65SAPC   C21 5295   3.799   1.473   6.562 -0.6175 -0.0618  0.7072
   65SAPC   O22 5296   3.774   1.581   6.603 -0.2662  0.3241 -0.0189
   65SAPC   C22 5297   3.862   1.360   6.650  0.3328  0.3761 -0.3476
   65SAPC   H2R 5298   3.892   1.283   6.576 -2.3576 -1.4234  0.3545
   65SAPC   H2S 5299   3.954   1.396   6.700  0.2235 -1.1693  0.9839
   65SAPC    C3 5300   3.574   1.527   6.309  0.0350 -0.0608  0.3739
   65SAPC    HX 5301   3.545   1.421   6.297 -1.2614  0.0495  2.2226
   65SAPC    HY 5302   3.568   1.583   6.214  0.6599  0.0493  0.3983
   65SAPC   O31 5303   3.485   1.587   6.404  0.2490  0.1762 -0.3653
   65SAPC   C31 5304   3.456   1.515   6.508 -0.0693 -0.0235  0.5039
   65SAPC   O32 5305   3.488   1.399   6.532  0.4894 -0.6656 -0.6823
   65SAPC   C32 5306   3.362   1.596   6.601 -0.1097 -0.0499  0.4990
   65SAPC   H2X 5307   3.292   1.524   6.649  0.2528 -1.0044 -0.3786
   65SAPC   H2Y 5308   3.298   1.661   6.537  1.0898  0.3559 -0.3089
   65SAPC   C23 5309   3.759   1.301   6.748  0.4632 -0.4535  0.1074
   65SAPC   H3R 5310   3.773   1.191   6.746 -2.6207 -0.8943  0.8504
   65SAPC   H3S 5311   3.657   1.305   6.704 -0.0892 -0.3229  1.3790
   65SAPC   C24 5312   3.762   1.352   6.891 -0.0835 -0.1730 -0.0983
   65SAPC   H4R 5313   3.724   1.456   6.899  0.8081  0.3215 -1.9845
   65SAPC   H4S 5314   3.867   1.353   6.928 -0.3554  0.9560  0.6470
   65SAPC   C25 5315   3.676   1.254   6.959  0.2681 -0.4882 -0.2227
   65SAPC   H5R 5316   3.736   1.162   6.966 -0.9121 -1.2328  0.1924
   65SAPC   C26 5317   3.551   1.266   7.010  0.5850  0.1271 -0.3239
   65SAPC   H6R 5318   3.498   1.183   7.059  0.5462  0.4105  0.1129
   65SAPC   C27 5319   3.454   1.380   7.018  0.1324 -0.2907  0.4369
   65SAPC   H7R 5320   3.510   1.474   6.997  1.3859 -1.0182  0.4591
   65SAPC   H7S 5321   3.398   1.383   7.114 -3.1368  1.5975 -1.4540
   65SAPC   C28 5322   3.355   1.389   6.903 -0.6500 -0.0210 -0.3628
   65SAPC   H8R 5323   3.396   1.349   6.809 -0.0226 -3.1125  1.1358
   65SAPC   C29 5324   3.237   1.433   6.905 -0.1888 -0.0932 -0.2388
   65SAPC   H9R 5325   3.176   1.417   6.814 -0.6461  0.2713 -0.0014
   65SAPC  C210 5326   3.159   1.489   7.017  0.5292  0.0263 -0.8050
   65SAPC  H10R 5327   3.089   1.569   6.987  0.8733  0.6289 -0.0238
   65SAPC  H10S 5328   3.239   1.538   7.077  0.0927  1.2862 -1.2449
   65SAPC  C211 5329   3.083   1.401   7.109 -0.7341 -0.0809 -0.5568
   65SAPC  H11R 5330   3.065   1.303   7.064  2.2758 -0.4495 -1.1016
   65SAPC  C212 5331   3.039   1.437   7.231 -0.3635 -0.4518 -0.2806
   65SAPC  H12R 5332   2.990   1.357   7.288 -0.3015 -1.2609 -1.3514
   65SAPC  C213 5333   3.062   1.570   7.298 -0.9592  0.6530  0.0484
   65SAPC  H13R 5334   3.106   1.643   7.226  2.7263 -1.6433 -0.1665
   65SAPC  H13S 5335   3.136   1.551   7.379 -1.8238  0.1353  0.7133
   65SAPC  C214 5336   2.924   1.615   7.343 -0.2527  0.9356  0.4922
   65SAPC  H14R 5337   2.859   1.658   7.265 -1.3742  2.3911  2.1960
   65SAPC  C215 5338   2.862   1.594   7.458 -0.0019 -0.4996  0.7516
   65SAPC  H15R 5339   2.758   1.629   7.459 -0.4072 -1.6553  0.4710
   65SAPC  C216 5340   2.906   1.521   7.580 -0.5341 -0.2140  0.0634
   65SAPC  H16R 5341   3.016   1.523   7.595 -0.3581 -0.2912 -1.1857
   65SAPC  H16S 5342   2.879   1.414   7.578  1.7369 -0.8103  0.1329
   65SAPC  C217 5343   2.856   1.564   7.723  0.8988  0.4619 -0.4519
   65SAPC  H17R 5344   2.745   1.569   7.728  0.8482 -0.5003 -0.4165
   65SAPC  H17S 5345   2.891   1.669   7.733  2.9734  0.1379 -3.6617
   65SAPC  C218 5346   2.910   1.487   7.840 -0.1230 -0.0328  0.1786
   65SAPC  H18R 5347   3.019   1.503   7.836 -0.1234  0.1319  0.7745
   65SAPC  H18S 5348   2.889   1.381   7.813  2.7889 -1.0039  1.6243
   65SAPC  C219 5349   2.844   1.513   7.979  0.2132  0.5867  0.0381
   65SAPC  H19R 5350   2.740   1.481   7.960  1.2865 -2.3937 -1.1226
   65SAPC  H19S 5351   2.852   1.623   7.992  1.6718  0.4536  0.4315
   65SAPC  C220 5352   2.896   1.432   8.096 -0.0775  0.0498  0.1627
   65SAPC  H20R 5353   2.987   1.466   8.149 -1.0312  0.2706  1.7069
   65SAPC  H20S 5354   2.899   1.324   8.068 -1.5035 -0.1731  0.7842
   65SAPC  H20T 5355   2.820   1.437   8.177 -1.0080 -0.9557 -0.6225
   65SAPC   C33 5356   3.453   1.679   6.701 -0.8369 -0.9740  0.1806
   65SAPC   H3X 5357   3.527   1.730   6.635 -0.0301 -0.4435  1.4824
   65SAPC   H3Y 5358   3.515   1.609   6.760 -0.7497 -1.0473  0.0000
   65SAPC   C34 5359   3.374   1.767   6.792  0.0973  0.4726  0.1066
   65SAPC   H4X 5360   3.296   1.701   6.836  0.8343 -0.6548 -0.2689
   65SAPC   H4Y 5361   3.321   1.850   6.739  0.3342 -0.0848 -1.0072
   65SAPC   C35 5362   3.466   1.820   6.900  0.4325 -1.2422 -0.3069
   65SAPC   H5X 5363   3.523   1.904   6.854  0.3195  0.0709  1.8639
   65SAPC   H5Y 5364   3.535   1.748   6.950 -1.1510 -1.2845  1.8853
   65SAPC   C36 5365   3.377   1.873   7.021 -0.5824 -0.3638  0.2909
   65SAPC   H6X 5366   3.308   1.791   7.052 -1.7362  0.0964 -1.0535
   65SAPC   H6Y 5367   3.314   1.952   6.975  1.2024  0.3401 -0.9977
   65SAPC   C37 5368   3.452   1.920   7.144 -0.1609 -0.3544  0.6655
   65SAPC   H7X 5369   3.376   1.959   7.215 -2.7626 -1.3597 -1.4671
   65SAPC   H7Y 5370   3.531   1.986   7.102 -0.7589 -0.1781 -0.1962
   65SAPC   C38 5371   3.523   1.806   7.215  0.5598 -0.3911  0.0499
   65SAPC   H8X 5372   3.576   1.851   7.302  0.2833 -0.5562  0.3052
   65SAPC   H8Y 5373   3.606   1.766   7.153 -0.3441 -1.5223 -0.4314
   65SAPC   C39 5374   3.441   1.689   7.270 -0.6461  0.5856 -0.8172
   65SAPC   H9X 5375   3.389   1.644   7.183 -0.3985 -1.6361  0.1590
   65SAPC   H9Y 5376   3.372   1.726   7.349  1.8660  0.6607  1.3888
   65SAPC  C310 5377   3.533   1.578   7.324  0.3155 -0.5225  0.2609
   65SAPC  H10X 5378   3.588   1.620   7.411  0.3929 -3.0385  1.4793
   65SAPC  H10Y 5379   3.608   1.540   7.252 -1.3672 -1.4543 -1.0396
   65SAPC  C311 5380   3.446   1.462   7.378 -0.3744 -0.8592  0.2348
   65SAPC  H11X 5381   3.490   1.363   7.352  0.9233  0.4565 -2.8372
   65SAPC  H11Y 5382   3.349   1.464   7.324 -0.7723 -1.9388  0.8856
   65SAPC  C312 5383   3.419   1.450   7.533  0.0649  0.2210 -0.4788
   65SAPC  H12X 5384   3.519   1.420   7.570  0.5926  0.7221 -1.4886
   65SAPC  H12Y 5385   3.358   1.361   7.560  0.5468  0.6620  2.1510
   65SAPC  C313 5386   3.381   1.576   7.610 -0.2206  0.2851  0.5387
   65SAPC  H13X 5387   3.307   1.643   7.562  0.7334 -0.5321 -2.1540
   65SAPC  H13Y 5388   3.471   1.642   7.615 -1.3423  1.9970 -1.1981
   65SAPC  C314 5389   3.325   1.540   7.751  0.1147  0.8596 -0.1522
   65SAPC  H14X 5390   3.216   1.519   7.754 -0.6905  4.4888 -1.3233
   65SAPC  H14Y 5391   3.334   1.633   7.811  3.1824  1.4829 -1.5311
   65SAPC  C315 5392   3.399   1.429   7.832  0.0588  0.1412  0.0380
   65SAPC  H15X 5393   3.506   1.413   7.809 -0.4900 -3.6448 -0.2652
   65SAPC  H15Y 5394   3.344   1.335   7.809 -2.2852  1.9383 -2.0038
   65SAPC  C316 5395   3.398   1.457   7.984 -0.0632  0.1139 -0.0990
   65SAPC  H16X 5396   3.292   1.453   8.015 -0.5414  1.0613 -1.5433
   65SAPC  H16Y 5397   3.429   1.562   8.001 -3.1543  1.6176 -3.1925
   65SAPC  C317 5398   3.455   1.346   8.071  0.6451  0.1286 -0.2234
   65SAPC  H17X 5399   3.565   1.342   8.050  0.5447 -1.0050 -0.5636
   65SAPC  H17Y 5400   3.419   1.244   8.046  1.1582 -0.0269 -0.3419
   65SAPC  C318 5401   3.426   1.363   8.219 -0.3298 -0.3129  0.2390
   65SAPC  H18X 5402   3.318   1.368   8.244  0.0762  3.4931  1.4962
   65SAPC  H18Y 5403   3.483   1.451   8.255 -0.2660 -1.0919  2.0881
   65SAPC  H18Z 5404   3.468   1.275   8.271 -1.8021 -0.6791  0.8350
   66SAPC     N 5405   2.056   0.722   5.943  0.4804  0.1100  0.2045
   66SAPC   C12 5406   1.920   0.768   5.972  0.4024  0.0630 -0.3076
   66SAPC  H12A 5407   1.867   0.685   6.017 -1.0390 -0.6286 -3.1288
   66SAPC  H12B 5408   1.869   0.791   5.879 -0.2260  0.1114  0.0461
   66SAPC   C13 5409   2.136   0.710   6.065 -0.0542  0.0206 -0.5718
   66SAPC  H13A 5410   2.223   0.647   6.061 -0.3667 -0.5703  1.3839
   66SAPC  H13B 5411   2.172   0.808   6.093 -1.8174 -0.1844  2.6046
   66SAPC  H13C 5412   2.069   0.680   6.144  0.2064  1.6203  0.2749
   66SAPC   C14 5413   2.070   0.578   5.882  0.0484 -0.5686 -0.4904
   66SAPC  H14A 5414   2.015   0.504   5.939 -1.4425 -0.4272 -1.6916
   66SAPC  H14B 5415   2.026   0.563   5.784 -1.9015 -0.5046  0.3369
   66SAPC  H14C 5416   2.173   0.550   5.871  0.1573 -0.8934  1.2430
   66SAPC   C15 5417   2.123   0.808   5.850 -0.0542 -0.4959 -0.1482
   66SAPC  H15A 5418   2.229   0.788   5.841 -0.2369 -1.4844 -0.1898
   66SAPC  H15B 5419   2.099   0.792   5.746 -1.4561  2.1399 -0.2576
   66SAPC  H15C 5420   2.111   0.914   5.865  0.1770 -0.5594  0.4990
   66SAPC   C11 5421   1.898   0.891   6.063 -0.0300 -0.4983 -0.1831
   66SAPC  H11A 5422   1.933   0.877   6.168  0.8530  0.4934 -0.3433
   66SAPC  H11B 5423   1.788   0.904   6.070  0.1426  0.7834  0.3855
   66SAPC     P 5424   1.903   1.106   5.908  0.5324  0.0762 -0.0160
   66SAPC   O13 5425   2.020   1.175   5.858 -0.0162 -0.1886  0.3341
   66SAPC   O14 5426   1.816   1.034   5.819  0.0985  0.7109  0.6061
   66SAPC   O12 5427   1.955   1.013   6.024 -0.0111 -0.2932  0.0251
   66SAPC   O11 5428   1.810   1.221   5.982 -0.4597  0.1584 -0.6477
   66SAPC    C1 5429   1.860   1.290   6.095  0.5184  0.8553 -0.1288
   66SAPC    HA 5430   1.969   1.307   6.098  0.5256  0.6265  1.1332
   66SAPC    HB 5431   1.826   1.396   6.095  0.6055  0.9219  2.7272
   66SAPC    C2 5432   1.811   1.226   6.226  0.0454  0.5956  0.6349
   66SAPC    HS 5433   1.844   1.120   6.220 -2.2050 -0.1584  1.0001
   66SAPC   O21 5434   1.669   1.222   6.224 -0.2365 -0.0327 -0.1387
   66SAPC   C21 5435   1.618   1.106   6.280  0.2378 -0.3123 -0.0024
   66SAPC   O22 5436   1.680   1.010   6.319 -0.6900  0.3422 -0.2292
   66SAPC   C22 5437   1.467   1.106   6.295 -0.0800  0.0042  0.3276
   66SAPC   H2R 5438   1.434   1.211   6.283  1.4715  0.3077 -1.6167
   66SAPC   H2S 5439   1.427   1.043   6.212 -0.2761  2.7805 -1.7605
   66SAPC    C3 5440   1.871   1.296   6.349 -0.2207 -0.3858  0.4001
   66SAPC    HX 5441   1.825   1.397   6.358  0.7445  0.0629  0.2528
   66SAPC    HY 5442   1.976   1.307   6.316 -0.6283 -0.3945 -0.9193
   66SAPC   O31 5443   1.848   1.232   6.478 -0.4492  0.6304  0.1796
   66SAPC   C31 5444   1.930   1.137   6.499 -0.2225 -0.4231 -0.4027
   66SAPC   O32 5445   2.017   1.087   6.427 -0.3441  0.0426  0.2256
   66SAPC   C32 5446   1.909   1.102   6.645  0.1782 -0.1603  0.3103
   66SAPC   H2X 5447   1.967   1.173   6.706  0.8254  0.9611 -1.5620
   66SAPC   H2Y 5448   1.950   0.999   6.650  0.3283 -0.2571 -2.2111
   66SAPC   C23 5449   1.418   1.039   6.426  0.1124 -0.4460 -0.4755
   66SAPC   H3R 5450   1.499   1.063   6.499  1.2762 -0.7175 -1.6518
   66SAPC   H3S 5451   1.416   0.929   6.413 -1.2646 -0.5733  0.6883
   66SAPC   C24 5452   1.279   1.089   6.466 -0.0574  0.3152  0.9199
   66SAPC   H4R 5453   1.267   1.195   6.437 -2.5023 -0.4544 -1.1244
   66SAPC   H4S 5454   1.277   1.089   6.577 -1.0051 -0.9894  0.9121
   66SAPC   C25 5455   1.160   1.012   6.410  0.7573  0.2202 -0.3064
   66SAPC   H5R 5456   1.124   1.057   6.316 -1.3748  0.2412  0.4881
   66SAPC   C26 5457   1.090   0.919   6.476 -0.3457 -0.3518  0.2360
   66SAPC   H6R 5458   0.995   0.890   6.429  0.7170 -0.1031 -2.1286
   66SAPC   C27 5459   1.113   0.852   6.613 -0.1463  0.2148 -0.8519
   66SAPC   H7R 5460   1.036   0.773   6.625 -1.8079  2.0533  0.9360
   66SAPC   H7S 5461   1.083   0.924   6.692  1.4622 -1.6266  1.5019
   66SAPC   C28 5462   1.260   0.805   6.629 -0.6805  0.3547  0.4433
   66SAPC   H8R 5463   1.284   0.711   6.577  0.3725  1.5844 -1.3300
   66SAPC   C29 5464   1.352   0.840   6.723  0.2072  0.0978 -0.3525
   66SAPC   H9R 5465   1.454   0.798   6.716 -0.4437 -1.4065 -0.9939
   66SAPC  C210 5466   1.326   0.943   6.831  0.3151  0.9591 -0.2785
   66SAPC  H10R 5467   1.216   0.955   6.843  0.2104 -1.7124  2.2103
   66SAPC  H10S 5468   1.360   1.039   6.789 -2.0407  1.9989  0.0963
   66SAPC  C211 5469   1.403   0.920   6.958  0.0944  0.0272 -0.0563
   66SAPC  H11R 5470   1.505   0.886   6.937 -0.1246 -0.8131  0.2265
   66SAPC  C212 5471   1.347   0.923   7.082  0.0960  1.0836  0.7472
   66SAPC  H12R 5472   1.414   0.930   7.169  1.3987  0.1084 -0.1324
   66SAPC  C213 5473   1.199   0.950   7.111 -0.2427 -0.5041  0.0908
   66SAPC  H13R 5474   1.152   0.886   7.188 -0.4645 -0.3851  0.0546
   66SAPC  H13S 5475   1.142   0.917   7.022  0.2269  0.8222 -0.7262
   66SAPC  C214 5476   1.168   1.100   7.127  0.7610  1.0104  0.3923
   66SAPC  H14R 5477   1.142   1.149   7.032 -0.2548  0.1533  0.2185
   66SAPC  C215 5478   1.147   1.158   7.247 -0.0118  0.1486 -0.3741
   66SAPC  H15R 5479   1.126   1.266   7.255 -0.3890  0.1606 -1.4340
   66SAPC  C216 5480   1.159   1.087   7.388  0.4363 -0.1579  0.0106
   66SAPC  H16R 5481   1.172   0.977   7.387 -3.1872 -0.7043  2.5696
   66SAPC  H16S 5482   1.064   1.102   7.444 -0.0904  1.3808 -1.2568
   66SAPC  C217 5483   1.286   1.147   7.447  0.4454  0.4035 -0.2498
   66SAPC  H17R 5484   1.291   1.258   7.449  1.1354  0.3654  0.8389
   66SAPC  H17S 5485   1.376   1.107   7.395  0.8520 -0.0618  0.8007
   66SAPC  C218 5486   1.301   1.089   7.592 -0.4797  0.4553 -0.1406
   66SAPC  H18R 5487   1.332   0.984   7.580  0.4747  0.6127  0.7975
   66SAPC  H18S 5488   1.199   1.090   7.636  0.2532  1.3717  1.5854
   66SAPC  C219 5489   1.379   1.163   7.699  0.1522  0.1986 -0.4291
   66SAPC  H19R 5490   1.475   1.208   7.663  0.4132  1.0687  1.2924
   66SAPC  H19S 5491   1.412   1.100   7.785 -0.2134 -1.4431 -1.4686
   66SAPC  C220 5492   1.288   1.271   7.764 -0.6817 -0.0999  0.3089
   66SAPC  H20R 5493   1.341   1.327   7.844  0.5886  2.6088 -2.3227
   66SAPC  H20S 5494   1.209   1.211   7.815  1.4805 -2.7058  0.7098
   66SAPC  H20T 5495   1.231   1.331   7.690  0.4158 -1.1194 -1.4009
   66SAPC   C33 5496   1.759   1.091   6.685  0.9550 -0.1440 -0.2284
   66SAPC   H3X 5497   1.715   0.997   6.646 -1.1900  0.5176  0.5601
   66SAPC   H3Y 5498   1.701   1.181   6.656 -2.4324 -1.2268  2.8246
   66SAPC   C34 5499   1.745   1.090   6.838 -0.1551  0.3235  0.7474
   66SAPC   H4X 5500   1.638   1.063   6.853  0.0422 -0.1942  1.2154
   66SAPC   H4Y 5501   1.756   1.195   6.872  0.2055  0.4372  0.2892
   66SAPC   C35 5502   1.835   0.995   6.916  0.2105  0.0049  0.6712
   66SAPC   H5X 5503   1.931   1.051   6.921 -0.0202  0.5653 -0.8030
   66SAPC   H5Y 5504   1.853   0.901   6.861  1.4035 -0.6177  2.0835
   66SAPC   C36 5505   1.783   0.970   7.054  0.4634  0.2654 -0.5632
   66SAPC   H6X 5506   1.680   0.928   7.056  0.5346  0.1009 -0.2601
   66SAPC   H6Y 5507   1.780   1.062   7.118  1.1396 -0.8241  1.0801
   66SAPC   C37 5508   1.869   0.865   7.131 -0.4448 -0.1724 -0.6392
   66SAPC   H7X 5509   1.977   0.890   7.124 -0.4033  0.1192  0.9538
   66SAPC   H7Y 5510   1.854   0.768   7.079  1.7291 -0.2284 -1.2099
   66SAPC   C38 5511   1.831   0.868   7.283 -0.9490  0.3246 -0.2785
   66SAPC   H8X 5512   1.871   0.963   7.325  0.0379 -0.0505 -0.3573
   66SAPC   H8Y 5513   1.894   0.786   7.322 -2.0178  0.1179  1.0544
   66SAPC   C39 5514   1.687   0.855   7.309  0.5986  0.5260 -0.2535
   66SAPC   H9X 5515   1.635   0.780   7.245  0.5065 -0.2571  0.7219
   66SAPC   H9Y 5516   1.644   0.953   7.281  0.4384  0.1314 -1.3992
   66SAPC  C310 5517   1.648   0.821   7.453 -0.3454 -0.4493  0.2343
   66SAPC  H10X 5518   1.682   0.715   7.466 -1.7218 -1.0985 -1.2959
   66SAPC  H10Y 5519   1.537   0.821   7.457 -0.2978  1.1491  2.2726
   66SAPC  C311 5520   1.701   0.911   7.553  0.9357 -0.4814  0.3765
   66SAPC  H11X 5521   1.683   1.020   7.541  1.6393 -0.2974  0.9693
   66SAPC  H11Y 5522   1.811   0.905   7.565  1.0155 -0.6083 -0.4097
   66SAPC  C312 5523   1.629   0.874   7.690 -0.9545 -0.1852 -0.4227
   66SAPC  H12X 5524   1.640   0.764   7.702 -1.2862 -0.4115 -2.0168
   66SAPC  H12Y 5525   1.522   0.900   7.681 -0.8041  0.2394 -1.0418
   66SAPC  C313 5526   1.685   0.956   7.806  0.3692 -0.6469 -0.5697
   66SAPC  H13X 5527   1.654   1.063   7.796  0.3497 -0.4447  1.4595
   66SAPC  H13Y 5528   1.793   0.936   7.796  0.2529 -2.4671  1.6436
   66SAPC  C314 5529   1.636   0.913   7.945 -0.0744 -0.2097  0.4546
   66SAPC  H14X 5530   1.611   0.805   7.942 -1.9389  0.1979  0.6635
   66SAPC  H14Y 5531   1.538   0.966   7.943  0.0331  0.0306 -3.1787
   66SAPC  C315 5532   1.729   0.959   8.055  0.6877  0.6657 -0.1359
   66SAPC  H15X 5533   1.683   0.959   8.157 -1.8097 -0.5498 -1.2194
   66SAPC  H15Y 5534   1.750   1.068   8.043  0.2954  1.0793  2.5288
   66SAPC  C316 5535   1.856   0.878   8.062 -0.2479 -0.6454 -0.8430
   66SAPC  H16X 5536   1.922   0.914   8.143  0.4010 -0.2146 -1.5629
   66SAPC  H16Y 5537   1.911   0.900   7.968 -1.6337  1.3953 -1.2099
   66SAPC  C317 5538   1.844   0.722   8.077 -0.2845  0.0021 -0.3432
   66SAPC  H17X 5539   1.806   0.687   7.979 -1.3638  1.8393 -0.5959
   66SAPC  H17Y 5540   1.772   0.694   8.157 -1.0358  3.0041  0.0855
   66SAPC  C318 5541   1.969   0.649   8.103 -0.2479  0.5984  0.9355
   66SAPC  H18X 5542   2.001   0.666   8.208 -1.2592  0.7866  1.2208
   66SAPC  H18Y 5543   2.054   0.681   8.038 -0.2776  1.1305  1.1505
   66SAPC  H18Z 5544   1.955   0.539   8.097 -1.8855  0.6682  2.8397
   67SAPC     N 5545   2.969   3.674   6.441  0.3649  0.1565 -0.1019
   67SAPC   C12 5546   2.997   3.618   6.582 -0.2404 -0.3355  0.1557
   67SAPC  H12A 5547   2.915   3.555   6.616  0.5352 -0.4774  1.8132
   67SAPC  H12B 5548   2.988   3.705   6.646  0.1226 -1.0599  1.2130
   67SAPC   C13 5549   2.835   3.733   6.438  0.2133 -0.5589 -0.0777
   67SAPC  H13A 5550   2.816   3.807   6.362 -0.3631  0.6332  1.2151
   67SAPC  H13B 5551   2.757   3.657   6.435 -0.7067  0.3816 -0.1685
   67SAPC  H13C 5552   2.814   3.779   6.533 -0.7576 -1.0122 -0.0603
   67SAPC   C14 5553   3.066   3.786   6.407 -0.3815 -0.0560  0.4374
   67SAPC  H14A 5554   3.053   3.825   6.307 -1.2782 -2.0005 -0.2473
   67SAPC  H14B 5555   3.073   3.870   6.474  2.9655  0.2985 -0.3132
   67SAPC  H14C 5556   3.160   3.734   6.402 -1.2474 -1.3998 -2.8089
   67SAPC   C15 5557   2.984   3.566   6.338 -0.3767 -0.4117  0.1628
   67SAPC  H15A 5558   2.974   3.605   6.238 -0.3251 -1.5894 -0.3180
   67SAPC  H15B 5559   3.083   3.524   6.348 -1.2889 -2.3902  1.2358
   67SAPC  H15C 5560   2.913   3.486   6.355 -1.4814  0.7450  1.1430
   67SAPC   C11 5561   3.120   3.532   6.597 -0.0231  0.2983  0.1950
   67SAPC  H11A 5562   3.089   3.436   6.550  1.4189  0.7656 -1.7881
   67SAPC  H11B 5563   3.150   3.520   6.703 -1.3343  0.4756  0.6047
   67SAPC     P 5564   3.343   3.491   6.472  0.1271  0.1052 -0.2550
   67SAPC   O13 5565   3.302   3.444   6.340  0.3787  0.1267  0.0320
   67SAPC   O14 5566   3.479   3.552   6.482  0.0014  0.1026  0.3436
   67SAPC   O12 5567   3.232   3.589   6.525  0.0151 -0.1058 -0.3677
   67SAPC   O11 5568   3.335   3.365   6.570  0.3540  0.4520 -0.0376
   67SAPC    C1 5569   3.382   3.378   6.712  0.7039  0.2240  0.2567
   67SAPC    HA 5570   3.417   3.480   6.738  1.2936 -0.0350  0.4868
   67SAPC    HB 5571   3.290   3.362   6.772 -1.6861 -0.7450 -3.5151
   67SAPC    C2 5572   3.484   3.267   6.732  0.0066  0.1891 -0.2889
   67SAPC    HS 5573   3.432   3.174   6.700 -0.6799  0.8802 -1.1788
   67SAPC   O21 5574   3.526   3.245   6.864 -0.1840  0.0818 -0.0598
   67SAPC   C21 5575   3.439   3.193   6.945  0.4375  0.7407  0.4185
   67SAPC   O22 5576   3.325   3.157   6.919 -0.1810  0.6138  0.2864
   67SAPC   C22 5577   3.500   3.198   7.089 -0.5992 -0.5549 -0.1866
   67SAPC   H2R 5578   3.503   3.089   7.112 -0.5354 -0.3329  0.8813
   67SAPC   H2S 5579   3.606   3.231   7.082 -0.6273 -0.3489  0.3369
   67SAPC    C3 5580   3.609   3.284   6.632 -0.1528 -0.8579 -0.1049
   67SAPC    HX 5581   3.635   3.392   6.636 -0.0977 -0.8203 -1.3820
   67SAPC    HY 5582   3.588   3.271   6.524  0.0612  0.8162 -0.3691
   67SAPC   O31 5583   3.726   3.206   6.663 -0.2020 -0.4079  0.1754
   67SAPC   C31 5584   3.711   3.072   6.675  0.9350 -0.3764 -0.0221
   67SAPC   O32 5585   3.608   3.015   6.645 -0.2084  0.3522 -0.0936
   67SAPC   C32 5586   3.834   3.018   6.742  0.3029  0.3952  0.3633
   67SAPC   H2X 5587   3.855   3.080   6.832 -0.8785  1.2410  0.0716
   67SAPC   H2Y 5588   3.922   3.027   6.675  1.0992 -0.0740  1.3363
   67SAPC   C23 5589   3.413   3.278   7.189  0.0739  0.0220 -0.0281
   67SAPC   H3R 5590   3.305   3.254   7.178 -0.0360  0.9161 -0.9373
   67SAPC   H3S 5591   3.419   3.387   7.171 -0.9074  0.7119  3.3861
   67SAPC   C24 5592   3.458   3.260   7.336  0.1901  0.7986 -0.0285
   67SAPC   H4R 5593   3.541   3.329   7.362  1.3312 -0.8010  0.6405
   67SAPC   H4S 5594   3.500   3.158   7.343 -0.7917  0.4483  1.0550
   67SAPC   C25 5595   3.344   3.280   7.431  0.0743 -0.1557 -0.7419
   67SAPC   H5R 5596   3.274   3.363   7.416  0.1895  1.2653  5.1222
   67SAPC   C26 5597   3.310   3.208   7.539 -0.8152 -0.4255 -0.7324
   67SAPC   H6R 5598   3.219   3.228   7.598 -2.0420 -1.8084 -2.1080
   67SAPC   C27 5599   3.374   3.080   7.594 -0.0578  0.2192  0.4040
   67SAPC   H7R 5600   3.413   3.012   7.515 -0.2115  2.2374 -1.4596
   67SAPC   H7S 5601   3.300   3.022   7.654  1.0106 -0.7301  0.8241
   67SAPC   C28 5602   3.489   3.111   7.687 -0.1400 -0.0027  0.3882
   67SAPC   H8R 5603   3.567   3.162   7.628 -0.2928 -1.0859 -0.7847
   67SAPC   C29 5604   3.522   3.069   7.810 -0.2800  0.2890  0.1943
   67SAPC   H9R 5605   3.610   3.112   7.861  0.4920  2.0927 -2.5659
   67SAPC  C210 5606   3.440   2.971   7.896 -0.1837 -0.1648 -0.0312
   67SAPC  H10R 5607   3.512   2.909   7.954  0.7335  1.6874  0.8664
   67SAPC  H10S 5608   3.391   2.896   7.831 -5.0311  2.1094  0.8172
   67SAPC  C211 5609   3.329   3.038   7.964 -0.6288 -0.4434 -0.6797
   67SAPC  H11R 5610   3.335   3.147   7.964  3.3734 -0.5538  2.4881
   67SAPC  C212 5611   3.248   2.979   8.052  0.6003 -0.2201 -0.9450
   67SAPC  H12R 5612   3.175   3.039   8.108  1.1094 -0.7317  0.2849
   67SAPC  C213 5613   3.255   2.835   8.090  0.4194 -0.4243 -0.5269
   67SAPC  H13R 5614   3.361   2.808   8.066  0.6640 -0.8213  0.9828
   67SAPC  H13S 5615   3.188   2.776   8.024  0.8161 -1.1959 -0.2439
   67SAPC  C214 5616   3.221   2.806   8.235  0.4442  0.0457 -0.4501
   67SAPC  H14R 5617   3.119   2.775   8.262  0.9742 -1.6883 -0.3821
   67SAPC  C215 5618   3.304   2.837   8.335 -0.6213  0.2466 -0.1417
   67SAPC  H15R 5619   3.273   2.804   8.435 -2.8398 -4.5212 -2.2353
   67SAPC  C216 5620   3.438   2.902   8.327  0.4182  0.0941  0.0275
   67SAPC  H16R 5621   3.444   3.012   8.343 -0.0742  0.0113  0.8578
   67SAPC  H16S 5622   3.482   2.888   8.226  0.9474 -1.5355  0.4723
   67SAPC  C217 5623   3.549   2.848   8.426  0.2220  0.1099  0.3222
   67SAPC  H17R 5624   3.531   2.869   8.533 -0.6729 -3.3303  0.8874
   67SAPC  H17S 5625   3.640   2.906   8.398  0.7637 -0.5957  0.6132
   67SAPC  C218 5626   3.597   2.700   8.409 -0.8109  0.2254  0.3203
   67SAPC  H18R 5627   3.516   2.632   8.442 -0.6033 -1.2785 -2.1382
   67SAPC  H18S 5628   3.677   2.684   8.485 -0.1587 -0.9019 -0.5833
   67SAPC  C219 5629   3.639   2.661   8.269 -0.0896 -0.5056  0.6277
   67SAPC  H19R 5630   3.720   2.735   8.249 -0.8400  0.3259  0.6480
   67SAPC  H19S 5631   3.561   2.687   8.195 -1.8806 -0.2162  2.5912
   67SAPC  C220 5632   3.674   2.513   8.272 -0.2972 -0.1235  0.0938
   67SAPC  H20R 5633   3.574   2.467   8.288 -0.2218 -1.2153 -2.3782
   67SAPC  H20S 5634   3.746   2.493   8.354 -0.0516  3.6765  0.8969
   67SAPC  H20T 5635   3.712   2.487   8.171  2.6449 -0.4520  1.2518
   67SAPC   C33 5636   3.824   2.868   6.787 -0.1295 -0.5106  0.0821
   67SAPC   H3X 5637   3.918   2.832   6.833 -1.2283  0.4190  3.1875
   67SAPC   H3Y 5638   3.804   2.802   6.700 -0.6870 -0.8014  0.4327
   67SAPC   C34 5639   3.726   2.835   6.899  0.1571 -0.2866  0.6530
   67SAPC   H4X 5640   3.704   2.726   6.894  0.4738 -0.2741 -1.5114
   67SAPC   H4Y 5641   3.628   2.888   6.896 -0.5701 -1.7440 -2.5686
   67SAPC   C35 5642   3.789   2.881   7.031  0.4237  0.3018  0.1730
   67SAPC   H5X 5643   3.791   2.991   7.041  1.0496  0.2380  0.8059
   67SAPC   H5Y 5644   3.890   2.837   7.047  1.0497  1.9179  0.8008
   67SAPC   C36 5645   3.703   2.822   7.145  0.4123  0.2047  0.4602
   67SAPC   H6X 5646   3.714   2.712   7.156 -0.8203 -0.1372 -1.5874
   67SAPC   H6Y 5647   3.596   2.830   7.117  0.4953 -1.8287 -0.5103
   67SAPC   C37 5648   3.727   2.878   7.284  0.1189  0.2520  0.4749
   67SAPC   H7X 5649   3.714   2.988   7.297  1.0857  0.3388  0.7736
   67SAPC   H7Y 5650   3.836   2.864   7.302  0.3128  0.1033 -0.7972
   67SAPC   C38 5651   3.648   2.804   7.395  0.0131  0.4911 -0.1574
   67SAPC   H8X 5652   3.620   2.699   7.373  4.7557 -0.8895  0.0525
   67SAPC   H8Y 5653   3.555   2.861   7.418 -0.1714 -0.5001  1.6348
   67SAPC   C39 5654   3.714   2.793   7.531  0.0016  0.5834 -0.3746
   67SAPC   H9X 5655   3.738   2.899   7.555  2.0676  0.4295 -1.6108
   67SAPC   H9Y 5656   3.808   2.735   7.523 -1.4577 -1.6680 -1.5903
   67SAPC  C310 5657   3.623   2.737   7.642  0.4168  0.4778  0.3011
   67SAPC  H10X 5658   3.594   2.634   7.612  1.2595  0.1998  0.4329
   67SAPC  H10Y 5659   3.537   2.806   7.657 -0.7779 -0.6374 -1.2196
   67SAPC  C311 5660   3.693   2.722   7.779  0.3953 -0.4613 -0.2458
   67SAPC  H11X 5661   3.621   2.698   7.860 -1.3019 -0.3628 -1.6849
   67SAPC  H11Y 5662   3.741   2.820   7.800 -0.6651  0.2464 -1.0921
   67SAPC  C312 5663   3.804   2.611   7.773  0.0000 -0.6268  0.4981
   67SAPC  H12X 5664   3.889   2.639   7.707 -0.1323  1.2227  1.0693
   67SAPC  H12Y 5665   3.752   2.522   7.732  0.9271 -1.6405  1.4902
   67SAPC  C313 5666   3.848   2.583   7.919  0.3929  0.6161 -0.0277
   67SAPC  H13X 5667   3.765   2.539   7.979  1.4297 -0.1298  0.9101
   67SAPC  H13Y 5668   3.881   2.678   7.966  2.2205 -0.4769  1.0062
   67SAPC  C314 5669   3.967   2.486   7.936  0.1351  0.0935  0.1953
   67SAPC  H14X 5670   4.044   2.525   7.865  0.1432 -1.4368 -0.6487
   67SAPC  H14Y 5671   3.941   2.390   7.887  1.4776 -1.4134  2.3588
   67SAPC  C315 5672   4.021   2.460   8.080 -0.0588 -0.1771 -0.2185
   67SAPC  H15X 5673   4.102   2.386   8.061  1.2435  0.7542  1.5436
   67SAPC  H15Y 5674   3.935   2.417   8.136 -1.8534  1.8567 -1.3372
   67SAPC  C316 5675   4.059   2.592   8.147  0.7477  0.1164 -0.9664
   67SAPC  H16X 5676   3.972   2.661   8.149 -1.4443 -2.5122 -2.8961
   67SAPC  H16Y 5677   4.134   2.658   8.099 -0.0041 -0.4888 -3.0001
   67SAPC  C317 5678   4.092   2.573   8.296 -0.5042  0.7134 -0.0568
   67SAPC  H17X 5679   4.172   2.496   8.298  1.4775  2.7382  2.7241
   67SAPC  H17Y 5680   4.010   2.519   8.348  0.1400  0.2470  0.4792
   67SAPC  C318 5681   4.131   2.693   8.379  0.3772 -0.5522 -0.8794
   67SAPC  H18X 5682   4.041   2.758   8.380 -0.0876 -1.1666 -1.6894
   67SAPC  H18Y 5683   4.204   2.757   8.325  2.3446 -1.5420  0.5520
   67SAPC  H18Z 5684   4.163   2.662   8.480 -2.9155  1.0220  0.7255
   68SAPC     N 5685   1.072   2.499   6.076 -0.1607  0.1759  0.8025
   68SAPC   C12 5686   1.104   2.450   6.222 -0.5903  0.4290 -0.1018
   68SAPC  H12A 5687   1.109   2.536   6.287  0.8368  1.1480 -1.1266
   68SAPC  H12B 5688   1.201   2.403   6.230 -1.3187 -1.0967 -0.0829
   68SAPC   C13 5689   1.188   2.587   6.033  0.2606 -0.1739  1.1593
   68SAPC  H13A 5690   1.156   2.636   5.943 -0.7349 -1.5058  0.7670
   68SAPC  H13B 5691   1.204   2.666   6.106 -1.3883 -0.1327  1.5057
   68SAPC  H13C 5692   1.278   2.530   6.017 -0.2673 -1.1804  1.7136
   68SAPC   C14 5693   1.056   2.392   5.972 -0.4020  0.4099  0.3738
   68SAPC  H14A 5694   0.980   2.317   5.995 -0.0927  0.4417  1.5457
   68SAPC  H14B 5695   1.038   2.419   5.869 -0.8061  0.5467  0.4780
   68SAPC  H14C 5696   1.141   2.326   5.976 -0.1077  0.8307  1.2734
   68SAPC   C15 5697   0.947   2.577   6.065  0.7439  0.0486 -0.6604
   68SAPC  H15A 5698   0.955   2.675   6.109 -2.6644  0.0082  0.1904
   68SAPC  H15B 5699   0.922   2.587   5.961  1.4604  0.2250 -0.8197
   68SAPC  H15C 5700   0.864   2.525   6.111  2.0367 -0.8011  0.7495
   68SAPC   C11 5701   1.000   2.354   6.286  0.3526 -0.0180 -0.0833
   68SAPC  H11A 5702   0.898   2.396   6.273 -0.4221 -1.9398 -0.3665
   68SAPC  H11B 5703   1.015   2.349   6.396  2.0507 -0.7632 -0.3333
   68SAPC     P 5704   1.117   2.134   6.227 -0.2397 -0.5581  0.1068
   68SAPC   O13 5705   1.089   2.010   6.299  0.0909 -0.4635  0.6020
   68SAPC   O14 5706   1.162   2.129   6.088 -0.0622  0.0632 -0.1107
   68SAPC   O12 5707   0.993   2.225   6.217 -0.1546 -0.6599  0.2783
   68SAPC   O11 5708   1.228   2.210   6.313  0.0054 -0.5108  0.1354
   68SAPC    C1 5709   1.241   2.188   6.453 -0.7804 -0.2089 -0.9193
   68SAPC    HA 5710   1.159   2.239   6.509  0.4283  0.9750 -0.1911
   68SAPC    HB 5711   1.254   2.083   6.484  0.9795  0.1632 -0.3920
   68SAPC    C2 5712   1.361   2.267   6.503 -0.5402  0.6791  0.0082
   68SAPC    HS 5713   1.449   2.235   6.442 -1.4868  1.2133 -1.6836
   68SAPC   O21 5714   1.381   2.240   6.646 -0.1953  0.0281  0.3649
   68SAPC   C21 5715   1.507   2.201   6.677 -0.1539  0.3548 -0.0849
   68SAPC   O22 5716   1.587   2.155   6.599 -0.1212 -0.3292  1.0028
   68SAPC   C22 5717   1.523   2.196   6.833  0.1847 -0.0142 -0.0922
   68SAPC   H2R 5718   1.525   2.298   6.877  0.3262 -0.1396  0.1905
   68SAPC   H2S 5719   1.428   2.144   6.858  0.8167 -1.7668 -1.3040
   68SAPC    C3 5720   1.357   2.422   6.470  0.3105  0.1508 -0.0576
   68SAPC    HX 5721   1.271   2.456   6.531  2.3495  1.7513  2.0322
   68SAPC    HY 5722   1.348   2.445   6.362  0.8488 -0.1523 -0.1686
   68SAPC   O31 5723   1.482   2.474   6.512 -0.1782  0.5565  0.1278
   68SAPC   C31 5724   1.470   2.587   6.586 -0.4991 -0.1720  0.2917
   68SAPC   O32 5725   1.363   2.636   6.626 -0.2090  0.1636  0.3543
   68SAPC   C32 5726   1.609   2.644   6.623  0.7309 -0.6325  0.0541
   68SAPC   H2X 5727   1.637   2.721   6.548  0.8683 -0.6728  0.0657
   68SAPC   H2Y 5728   1.696   2.576   6.617  1.6104  0.4234  0.6521
   68SAPC   C23 5729   1.645   2.113   6.871  0.3741 -0.0165  0.2760
   68SAPC   H3R 5730   1.724   2.139   6.798 -0.2798 -3.7167 -1.8684
   68SAPC   H3S 5731   1.652   2.003   6.859  1.1230 -0.1311  1.6102
   68SAPC   C24 5732   1.670   2.135   7.016  0.0769  0.4028  0.4579
   68SAPC   H4R 5733   1.662   2.243   7.039  0.0991  0.1662  1.6056
   68SAPC   H4S 5734   1.775   2.104   7.033 -0.2590 -1.0651  0.0014
   68SAPC   C25 5735   1.569   2.063   7.107  0.1159  0.6178  0.0696
   68SAPC   H5R 5736   1.474   2.025   7.066  1.6039 -1.7602 -1.2923
   68SAPC   C26 5737   1.591   2.034   7.239 -0.1801  0.2497 -0.2254
   68SAPC   H6R 5738   1.516   1.978   7.297  0.7306  0.4856  1.2199
   68SAPC   C27 5739   1.718   2.059   7.326  0.1638  0.1548 -0.1873
   68SAPC   H7R 5740   1.688   2.128   7.408 -2.7053 -2.8789  1.4543
   68SAPC   H7S 5741   1.790   2.105   7.255 -0.1279 -1.8874 -1.8749
   68SAPC   C28 5742   1.756   1.925   7.382 -0.6556  0.2440 -0.5379
   68SAPC   H8R 5743   1.745   1.845   7.308 -0.1470 -0.3860  0.0663
   68SAPC   C29 5744   1.803   1.897   7.510  0.2039 -0.2136  0.2620
   68SAPC   H9R 5745   1.836   1.795   7.535 -1.1500 -0.3685  1.4853
   68SAPC  C210 5746   1.831   2.003   7.612 -0.7265  0.3868  0.2085
   68SAPC  H10R 5747   1.830   1.957   7.714 -2.7299 -0.1839 -0.0340
   68SAPC  H10S 5748   1.741   2.068   7.608 -1.0825 -0.1021  0.1746
   68SAPC  C211 5749   1.949   2.093   7.570 -0.4521  0.5200 -0.8226
   68SAPC  H11R 5750   1.933   2.147   7.476  1.0143  2.7649  0.1938
   68SAPC  C212 5751   2.060   2.117   7.640 -0.3604  0.0607  0.0806
   68SAPC  H12R 5752   2.134   2.184   7.594  0.0439 -0.1944  0.3530
   68SAPC  C213 5753   2.099   2.050   7.768 -0.2756  1.0594  0.0977
   68SAPC  H13R 5754   2.043   1.957   7.788  2.1179 -0.4456  0.0050
   68SAPC  H13S 5755   2.069   2.120   7.849  2.9130  2.3118  0.2728
   68SAPC  C214 5756   2.247   2.020   7.794  0.3274  0.9050  0.9731
   68SAPC  H14R 5757   2.286   1.929   7.748 -1.4008 -0.9012  2.9574
   68SAPC  C215 5758   2.332   2.097   7.859 -0.3306 -0.2384 -0.4060
   68SAPC  H15R 5759   2.436   2.068   7.880 -0.8991 -1.3270  0.9454
   68SAPC  C216 5760   2.300   2.228   7.926  0.5211 -0.2355 -0.0172
   68SAPC  H16R 5761   2.208   2.268   7.878  0.9268  0.2898 -0.3701
   68SAPC  H16S 5762   2.379   2.303   7.900 -0.6820  0.5183 -1.6382
   68SAPC  C217 5763   2.281   2.222   8.083 -0.1882  0.4964  0.2301
   68SAPC  H17R 5764   2.191   2.163   8.109  1.5270 -3.2080 -1.8770
   68SAPC  H17S 5765   2.267   2.329   8.112 -1.2108  0.2878  0.5069
   68SAPC  C218 5766   2.398   2.151   8.152 -0.8292 -0.0818  0.1457
   68SAPC  H18R 5767   2.496   2.196   8.127 -0.4789 -1.6661 -1.4735
   68SAPC  H18S 5768   2.401   2.049   8.108  0.3691  0.3981 -0.8933
   68SAPC  C219 5769   2.374   2.140   8.303  0.3138 -0.2352 -0.3875
   68SAPC  H19R 5770   2.461   2.082   8.341  0.5387  0.1981 -0.2430
   68SAPC  H19S 5771   2.284   2.077   8.322 -0.1916 -0.7502 -4.0759
   68SAPC  C220 5772   2.347   2.273   8.370  0.1904  0.0013  0.1006
   68SAPC  H20R 5773   2.356   2.252   8.479  0.0405 -0.3674  0.0412
   68SAPC  H20S 5774   2.248   2.319   8.346  1.0756  0.3646 -2.9701
   68SAPC  H20T 5775   2.417   2.354   8.342 -1.2176  1.1191 -0.2905
   68SAPC   C33 5776   1.608   2.716   6.760 -0.2918 -0.5891 -0.1914
   68SAPC   H3X 5777   1.529   2.794   6.770 -1.5855 -1.5719 -2.5902
   68SAPC   H3Y 5778   1.709   2.761   6.765 -1.0401  1.1859 -0.2818
   68SAPC   C34 5779   1.604   2.606   6.869 -0.1536  0.1324  0.0016
   68SAPC   H4X 5780   1.658   2.519   6.825 -1.7801  0.3551 -2.5838
   68SAPC   H4Y 5781   1.500   2.568   6.874 -0.6916  1.2120 -2.0644
   68SAPC   C35 5782   1.662   2.639   7.009 -0.3188  0.0274 -0.1144
   68SAPC   H5X 5783   1.596   2.710   7.064 -1.2072  0.4991 -1.7685
   68SAPC   H5Y 5784   1.753   2.699   6.990 -0.9577  0.9410 -0.3194
   68SAPC   C36 5785   1.684   2.516   7.091  0.2601 -0.0178  0.2697
   68SAPC   H6X 5786   1.766   2.451   7.054 -0.1356 -0.6941  0.5669
   68SAPC   H6Y 5787   1.598   2.445   7.091  1.4120 -1.4452  0.3715
   68SAPC   C37 5788   1.683   2.548   7.244 -0.3243  0.1245  0.1465
   68SAPC   H7X 5789   1.592   2.611   7.255 -0.0731  0.6153 -0.5353
   68SAPC   H7Y 5790   1.766   2.616   7.274  0.5359 -0.4705 -0.8498
   68SAPC   C38 5791   1.679   2.429   7.341 -0.5102 -0.0846 -0.6509
   68SAPC   H8X 5792   1.775   2.375   7.329 -0.2767  0.8692 -3.3095
   68SAPC   H8Y 5793   1.596   2.357   7.326  0.7405 -2.3013  2.4197
   68SAPC   C39 5794   1.681   2.488   7.487 -0.3099  0.1308 -0.1239
   68SAPC   H9X 5795   1.583   2.536   7.508 -0.8409 -1.6650  1.6408
   68SAPC   H9Y 5796   1.755   2.571   7.491 -0.3501  0.1896 -0.5134
   68SAPC  C310 5797   1.706   2.377   7.591 -0.1264 -0.3491  0.7742
   68SAPC  H10X 5798   1.808   2.335   7.580  0.9347  2.4158 -0.2605
   68SAPC  H10Y 5799   1.641   2.288   7.584  0.3040 -0.4975 -1.6362
   68SAPC  C311 5800   1.675   2.425   7.732  0.1546 -0.2117  1.2545
   68SAPC  H11X 5801   1.575   2.474   7.736 -1.0276 -2.4330 -0.1969
   68SAPC  H11Y 5802   1.751   2.505   7.745  0.4420 -0.3603  0.5274
   68SAPC  C312 5803   1.698   2.323   7.839 -0.1399 -0.1155  0.7828
   68SAPC  H12X 5804   1.808   2.307   7.832 -0.3200 -0.3937 -1.7498
   68SAPC  H12Y 5805   1.639   2.229   7.825  1.5690 -1.4344  2.0706
   68SAPC  C313 5806   1.675   2.356   7.982  0.0149 -0.2888  0.4906
   68SAPC  H13X 5807   1.564   2.363   7.991 -0.3137  2.3302 -3.8210
   68SAPC  H13Y 5808   1.726   2.453   7.994  0.7002 -0.2889 -2.1266
   68SAPC  C314 5809   1.728   2.253   8.082 -0.4757 -0.0584 -0.2965
   68SAPC  H14X 5810   1.834   2.224   8.068 -0.7724 -1.4233  0.1259
   68SAPC  H14Y 5811   1.664   2.163   8.068  1.2511 -1.1406 -1.4410
   68SAPC  C315 5812   1.715   2.297   8.232  0.9158  0.5153 -0.4965
   68SAPC  H15X 5813   1.608   2.289   8.262  1.2576 -0.6727  0.4486
   68SAPC  H15Y 5814   1.752   2.400   8.248  1.9879 -0.1964  1.6473
   68SAPC  C316 5815   1.783   2.199   8.331  0.5713 -0.2502 -0.2447
   68SAPC  H16X 5816   1.891   2.216   8.309  0.4877 -1.0445 -1.3352
   68SAPC  H16Y 5817   1.768   2.090   8.312  2.0049 -0.9553  2.3871
   68SAPC  C317 5818   1.760   2.248   8.477 -0.4624  0.1796 -0.0018
   68SAPC  H17X 5819   1.660   2.213   8.509  0.7313 -2.5986  0.8437
   68SAPC  H17Y 5820   1.740   2.357   8.474  0.7905  0.3976 -2.7710
   68SAPC  C318 5821   1.860   2.180   8.578  0.1894 -0.0527 -0.3956
   68SAPC  H18X 5822   1.847   2.070   8.574 -0.5923  0.0167  0.3206
   68SAPC  H18Y 5823   1.833   2.207   8.682 -0.1832 -1.4534 -0.1205
   68SAPC  H18Z 5824   1.967   2.197   8.552  0.3849  0.7059  0.8501
   69SLPC     N 5825   5.881   5.855  11.068 -0.1304  0.1488 -0.3215
   69SLPC   C13 5826   5.969   5.739  11.070 -0.3407  0.0456 -0.1986
   69SLPC  H13A 5827   5.982   5.701  10.970  2.0377  0.8028 -0.2051
   69SLPC  H13B 5828   6.062   5.763  11.121 -1.4235 -1.0270  2.3733
   69SLPC  H13C 5829   5.926   5.657  11.126  1.4265 -1.3324 -0.8119
   69SLPC   C14 5830   5.827   5.871  11.213 -0.1958  0.4410  0.1539
   69SLPC  H14A 5831   5.766   5.784  11.233  1.4545 -0.7284  0.1961
   69SLPC  H14B 5832   5.908   5.876  11.285  1.9938 -1.5888 -2.0506
   69SLPC  H14C 5833   5.757   5.951  11.230 -0.4714  0.4785 -1.1197
   69SLPC   C15 5834   5.766   5.827  10.975 -0.4574 -1.1849 -0.0091
   69SLPC  H15A 5835   5.712   5.918  10.954 -0.8544 -1.5202 -0.4637
   69SLPC  H15B 5836   5.806   5.809  10.876 -0.2503 -0.3180 -0.0860
   69SLPC  H15C 5837   5.708   5.741  11.004 -1.9663 -0.0413  0.4055
   69SLPC   C12 5838   5.949   5.986  11.023  0.3758 -0.2289 -0.0774
   69SLPC  H12A 5839   6.038   6.007  11.081  0.7739 -1.6616 -0.1678
   69SLPC  H12B 5840   5.882   6.071  11.028 -0.4474 -0.9591  1.3574
   69SLPC   C11 5841   5.994   5.986  10.868 -0.4546 -0.4448 -0.2640
   69SLPC  H11A 5842   6.011   5.885  10.824 -1.6558 -0.8410  0.1679
   69SLPC  H11B 5843   6.097   6.026  10.879 -0.8416 -0.4238  3.9632
   69SLPC     P 5844   5.923   6.229  10.799  0.1596  0.1599 -0.0773
   69SLPC   O13 5845   5.833   6.262  10.912  0.1038  0.2012 -0.0447
   69SLPC   O14 5846   6.063   6.268  10.815  0.3180  0.3392  0.6040
   69SLPC   O12 5847   5.918   6.070  10.787  0.4909 -0.0999  0.5898
   69SLPC   O11 5848   5.861   6.272  10.662 -0.2811 -0.0232  0.3321
   69SLPC    C1 5849   5.921   6.203  10.546  0.4305 -0.2754  0.3755
   69SLPC    HA 5850   5.942   6.094  10.554  1.6604 -0.0681  0.1630
   69SLPC    HB 5851   5.858   6.226  10.457 -0.5842  0.1823  1.2049
   69SLPC    C2 5852   6.066   6.260  10.503  0.3326 -0.0929 -0.1084
   69SLPC    HS 5853   6.141   6.191  10.546  0.4502 -0.7485 -1.3432
   69SLPC   O21 5854   6.088   6.403  10.535  0.5254 -0.0630 -0.0326
   69SLPC   C21 5855   6.218   6.426  10.536 -0.3921 -0.1005  0.5620
   69SLPC   O22 5856   6.307   6.348  10.512 -0.3205 -0.3003 -0.3391
   69SLPC   C22 5857   6.251   6.568  10.578  0.5412  0.2404 -0.2764
   69SLPC   H2R 5858   6.153   6.600  10.620  1.4121  2.0009  0.4544
   69SLPC   H2S 5859   6.315   6.567  10.669 -0.4628 -1.5419  0.4330
   69SLPC    C3 5860   6.068   6.257  10.349  1.0793  0.7782  0.4059
   69SLPC    HX 5861   6.159   6.300  10.301  0.4560 -0.0011 -1.5239
   69SLPC    HY 5862   5.990   6.323  10.307 -0.0341 -0.9011 -0.2326
   69SLPC   O31 5863   6.035   6.122  10.305  0.1875 -0.0890 -0.6631
   69SLPC   C31 5864   6.137   6.048  10.264  0.6745  0.3716 -0.1067
   69SLPC   O32 5865   6.255   6.077  10.278 -0.5791  0.0960  0.0676
   69SLPC   C32 5866   6.093   5.914  10.211  0.0439 -0.0335 -0.3079
   69SLPC   H2X 5867   6.091   5.848  10.300  0.7178  0.9163  0.4215
   69SLPC   H2Y 5868   6.177   5.880  10.147  0.2011  0.7740 -0.5307
   69SLPC   C23 5869   6.314   6.648  10.473  0.2218  0.6053 -0.0286
   69SLPC   H3R 5870   6.418   6.612  10.459  0.0644 -0.3271  1.1389
   69SLPC   H3S 5871   6.334   6.753  10.503 -1.1968  0.1265  2.7930
   69SLPC   C24 5872   6.235   6.644  10.338 -0.7407 -0.3757 -0.0206
   69SLPC   H4R 5873   6.223   6.537  10.311  1.4752 -0.3347 -1.3015
   69SLPC   H4S 5874   6.304   6.690  10.264 -0.0073 -1.7005 -0.1779
   69SLPC   C25 5875   6.099   6.721  10.344 -0.2347  0.0830 -1.0747
   69SLPC   H5R 5876   6.130   6.820  10.384  0.8672 -0.8889  0.5259
   69SLPC   H5S 5877   6.035   6.671  10.420  1.5762 -0.9335 -0.1910
   69SLPC   C26 5878   6.025   6.723  10.210  1.2014  0.2851  0.0785
   69SLPC   H6R 5879   6.096   6.729  10.126  1.6594  0.6448  0.4868
   69SLPC   H6S 5880   5.953   6.807  10.199  1.7369  0.7510  0.1062
   69SLPC   C27 5881   5.950   6.598  10.198 -0.9269  0.2075 -0.2638
   69SLPC   H7R 5882   5.881   6.601  10.285  1.1772 -1.9167  1.5301
   69SLPC   H7S 5883   6.014   6.508  10.207  0.1620  0.9130 -0.9022
   69SLPC   C28 5884   5.860   6.606  10.071 -0.1094 -0.0258  0.1622
   69SLPC   H8R 5885   5.933   6.608   9.987 -0.0592  0.2538  0.2128
   69SLPC   H8S 5886   5.792   6.694  10.067  1.5680  1.3976  1.8118
   69SLPC   C29 5887   5.776   6.480  10.052  0.6864  0.0328  0.7926
   69SLPC   H9R 5888   5.711   6.445  10.134  0.1362 -3.1581 -0.9254
   69SLPC  C210 5889   5.775   6.407   9.941  0.2434  0.1489  0.0003
   69SLPC  H10R 5890   5.700   6.327   9.936 -0.0988  0.5807 -2.9683
   69SLPC  C211 5891   5.870   6.423   9.816  0.0531  0.8997 -0.9734
   69SLPC  H11R 5892   5.920   6.521   9.803  1.8321  0.1149 -0.1345
   69SLPC  H11S 5893   5.794   6.417   9.735 -0.2977  0.0883 -0.5914
   69SLPC  C212 5894   5.957   6.297   9.823  0.8152  0.3369  0.5841
   69SLPC  H12R 5895   6.049   6.310   9.883  2.2987  3.3271 -2.1823
   69SLPC  C213 5896   5.942   6.188   9.750 -0.0897 -0.2164 -0.4444
   69SLPC  H13R 5897   6.012   6.105   9.769 -2.9675 -2.7516 -0.5077
   69SLPC  C214 5898   5.835   6.145   9.652 -0.3616  0.0443  0.5327
   69SLPC  H14R 5899   5.754   6.219   9.637 -0.6229 -0.6823 -1.8036
   69SLPC  H14S 5900   5.785   6.050   9.682  1.6346 -1.8567 -1.9312
   69SLPC  C215 5901   5.899   6.128   9.517 -0.4023  0.0990 -0.3849
   69SLPC  H15R 5902   5.969   6.043   9.503 -1.9700 -1.2935  0.0577
   69SLPC  H15S 5903   5.937   6.221   9.469 -0.5754 -0.0377 -0.7908
   69SLPC  C216 5904   5.785   6.097   9.411  0.2295 -0.2929  0.5365
   69SLPC  H16R 5905   5.701   6.170   9.418 -0.3448 -1.0440  1.7172
   69SLPC  H16S 5906   5.748   5.993   9.428 -1.9060  0.0110 -1.8587
   69SLPC  C217 5907   5.839   6.081   9.263 -0.2793 -0.2744  0.0969
   69SLPC  H17R 5908   5.894   5.985   9.258  1.0302  0.5027 -0.9236
   69SLPC  H17S 5909   5.914   6.163   9.256 -1.9075  1.2449  0.0454
   69SLPC  C218 5910   5.742   6.097   9.151 -0.8848 -0.0307  0.9502
   69SLPC  H18R 5911   5.681   6.190   9.164 -0.0918  0.9701 -2.0179
   69SLPC  H18S 5912   5.674   6.010   9.136  0.0233 -0.4345 -0.9674
   69SLPC  H18T 5913   5.798   6.105   9.055 -1.4802 -3.8971  0.2104
   69SLPC   C33 5914   5.968   5.895  10.127  0.2391 -0.7203 -0.1710
   69SLPC   H3X 5915   5.919   5.994  10.120  0.1949 -0.7655 -0.5092
   69SLPC   H3Y 5916   5.906   5.826  10.188 -0.5621 -0.6826 -0.9261
   69SLPC   C34 5917   6.003   5.843   9.994  0.6189 -0.0342 -0.3389
   69SLPC   H4X 5918   6.074   5.758  10.001  0.9202  0.1199 -1.4223
   69SLPC   H4Y 5919   6.065   5.926   9.952 -1.4117  0.1605 -3.0989
   69SLPC   C35 5920   5.894   5.798   9.899 -0.0090 -0.5480 -0.2996
   69SLPC   H5X 5921   5.828   5.885   9.880  0.8377  0.4231  1.1252
   69SLPC   H5Y 5922   5.843   5.709   9.942 -0.5128  1.0293  2.3943
   69SLPC   C36 5923   5.955   5.739   9.767  0.2076 -0.2745 -0.3230
   69SLPC   H6X 5924   6.006   5.641   9.779 -1.8263 -1.4915 -1.2479
   69SLPC   H6Y 5925   6.043   5.802   9.739  0.4178 -0.4759 -0.1179
   69SLPC   C37 5926   5.861   5.725   9.653  1.0233 -0.5091  0.1777
   69SLPC   H7X 5927   5.795   5.815   9.648 -3.3930 -3.5949 -0.5609
   69SLPC   H7Y 5928   5.807   5.629   9.665 -0.9723  0.5610  0.0029
   69SLPC   C38 5929   5.935   5.703   9.518  0.2145  0.5857  0.7994
   69SLPC   H8X 5930   6.010   5.623   9.533 -0.3332  0.1831  1.4763
   69SLPC   H8Y 5931   5.991   5.793   9.487  0.1919  0.3643  0.1197
   69SLPC   C39 5932   5.833   5.678   9.400  0.0524  0.8098 -0.1435
   69SLPC   H9X 5933   5.801   5.781   9.373  0.3714  0.4239 -2.0322
   69SLPC   H9Y 5934   5.753   5.610   9.435  1.7876 -0.9783  0.4673
   69SLPC  C310 5935   5.895   5.616   9.275 -0.8231  0.6412  0.1384
   69SLPC  H10X 5936   5.934   5.515   9.299  1.1183  1.5724  0.9437
   69SLPC  H10Y 5937   5.976   5.680   9.234 -0.2661 -0.5440 -0.6285
   69SLPC  C311 5938   5.802   5.605   9.156 -0.5095  0.7592 -0.4808
   69SLPC  H11X 5939   5.715   5.540   9.181  1.7735 -1.2560  2.6835
   69SLPC  H11Y 5940   5.853   5.550   9.073 -1.4412 -2.2295  0.8316
   69SLPC  C312 5941   5.751   5.743   9.100  0.3838  0.7410  0.7763
   69SLPC  H12X 5942   5.837   5.814   9.097  0.4689  0.5968 -1.9117
   69SLPC  H12Y 5943   5.675   5.778   9.173 -0.6986  1.0355 -0.4802
   69SLPC  C313 5944   5.680   5.720   8.959  0.4755  0.2090  0.2945
   69SLPC  H13X 5945   5.597   5.793   8.945  0.9659  0.8444  0.7375
   69SLPC  H13Y 5946   5.637   5.618   8.959 -1.4858  0.9862 -2.0184
   69SLPC  C314 5947   5.778   5.733   8.840  0.8982  0.4630 -0.4748
   69SLPC  H14X 5948   5.863   5.664   8.860  0.1033 -0.8728 -1.6570
   69SLPC  H14Y 5949   5.828   5.832   8.833 -2.1665  2.1021 -0.2388
   69SLPC  C315 5950   5.710   5.688   8.710  0.0540  0.8178  0.1730
   69SLPC  H15X 5951   5.648   5.776   8.680 -1.9297  0.2398  2.3575
   69SLPC  H15Y 5952   5.644   5.600   8.721  0.4697  0.3371 -1.1177
   69SLPC  C316 5953   5.815   5.646   8.613  0.5085  0.1310  0.1941
   69SLPC  H16X 5954   5.869   5.560   8.657 -1.0889 -0.8179  0.3539
   69SLPC  H16Y 5955   5.877   5.736   8.593 -1.5117  1.2609 -1.1655
   69SLPC  C317 5956   5.756   5.614   8.475 -0.2445 -0.7942 -0.1563
   69SLPC  H17X 5957   5.707   5.514   8.480  0.0875 -0.8817  1.7884
   69SLPC  H17Y 5958   5.845   5.606   8.409 -0.1081 -2.0857  0.1704
   69SLPC  C318 5959   5.654   5.715   8.414  0.2596  0.8036 -0.7360
   69SLPC  H18X 5960   5.658   5.704   8.303 -0.4083 -0.0090 -0.6836
   69SLPC  H18Y 5961   5.659   5.824   8.434 -1.4877  0.7582  0.0394
   69SLPC  H18Z 5962   5.555   5.696   8.459 -0.7899  1.0706 -2.8425
   70SLPC     N 5963   0.778   3.742  10.911 -0.8781 -0.2462  0.1841
   70SLPC   C13 5964   0.751   3.630  10.812 -0.1479 -0.0688 -0.3409
   70SLPC  H13A 5965   0.661   3.642  10.753  1.2300  0.5014 -2.3387
   70SLPC  H13B 5966   0.826   3.615  10.736 -1.0397 -0.0029 -1.2473
   70SLPC  H13C 5967   0.735   3.536  10.863  4.1802 -1.1908 -0.8648
   70SLPC   C14 5968   0.844   3.856  10.834 -0.1519 -0.0155 -0.2521
   70SLPC  H14A 5969   0.941   3.828  10.796  0.1298 -0.3291  0.6930
   70SLPC  H14B 5970   0.789   3.874  10.742 -1.9389  2.6208  1.2862
   70SLPC  H14C 5971   0.844   3.948  10.891 -0.6506  1.0180 -1.8651
   70SLPC   C15 5972   0.863   3.688  11.020 -0.5681 -0.0306  0.3129
   70SLPC  H15A 5973   0.911   3.776  11.059 -0.4300  0.3038 -0.5894
   70SLPC  H15B 5974   0.815   3.641  11.104 -0.2803  3.0657  2.2829
   70SLPC  H15C 5975   0.931   3.611  10.988 -0.1695  0.6468 -0.4943
   70SLPC   C12 5976   0.648   3.783  10.976 -0.9888  0.0991 -0.2141
   70SLPC  H12A 5977   0.664   3.867  11.042 -0.5997  0.4380 -0.7428
   70SLPC  H12B 5978   0.606   3.712  11.046  0.5142 -0.3982  0.2064
   70SLPC   C11 5979   0.529   3.810  10.883 -0.8163  0.1014  0.2546
   70SLPC  H11A 5980   0.557   3.857  10.786  0.1652  2.0930  1.4791
   70SLPC  H11B 5981   0.469   3.884  10.941 -1.9403 -0.5771 -0.0295
   70SLPC     P 5982   0.300   3.689  10.821 -0.1444 -0.2084  0.1023
   70SLPC   O13 5983   0.282   3.570  10.742 -0.0003  0.1648  0.2344
   70SLPC   O14 5984   0.213   3.705  10.942 -0.0778  0.6031  0.0295
   70SLPC   O12 5985   0.455   3.691  10.854  0.3607 -0.4569  0.4314
   70SLPC   O11 5986   0.283   3.812  10.728 -0.2003  0.5517 -0.3839
   70SLPC    C1 5987   0.354   3.823  10.608 -0.7267 -0.0302  0.2631
   70SLPC    HA 5988   0.400   3.923  10.591 -1.1226  0.1344  0.1559
   70SLPC    HB 5989   0.440   3.753  10.609 -1.5812 -1.0801  1.2376
   70SLPC    C2 5990   0.261   3.782  10.487  0.1749 -0.8649  0.7292
   70SLPC    HS 5991   0.219   3.679  10.495 -1.8456 -0.2852 -1.9584
   70SLPC   O21 5992   0.334   3.792  10.365 -0.2774  0.0465  0.3493
   70SLPC   C21 5993   0.356   3.688  10.290 -1.1558 -0.0582 -0.5945
   70SLPC   O22 5994   0.329   3.573  10.314  0.2906 -0.4419 -0.5006
   70SLPC   C22 5995   0.434   3.724  10.159 -0.1883 -0.5992 -0.5257
   70SLPC   H2R 5996   0.368   3.779  10.088  1.0318 -1.5527 -2.4559
   70SLPC   H2S 5997   0.528   3.776  10.187 -0.5891 -0.0160 -0.2766
   70SLPC    C3 5998   0.132   3.873  10.489  0.3360  0.4447  0.1728
   70SLPC    HX 5999   0.154   3.982  10.482  2.3046  0.0162 -0.6144
   70SLPC    HY 6000   0.080   3.858  10.586  1.6575 -0.9088  0.6823
   70SLPC   O31 6001   0.038   3.842  10.378 -0.0046  0.5782 -0.3228
   70SLPC   C31 6002  -0.044   3.747  10.398  0.0615  0.5592 -0.7163
   70SLPC   O32 6003  -0.064   3.687  10.502 -0.0513  0.1619 -0.3902
   70SLPC   C32 6004  -0.105   3.694  10.274  0.8514 -0.1981  0.9704
   70SLPC   H2X 6005  -0.215   3.709  10.286  0.8510  1.1059 -0.4019
   70SLPC   H2Y 6006  -0.088   3.585  10.263  0.0202 -0.2916  0.5659
   70SLPC   C23 6007   0.455   3.580  10.097 -0.3594 -0.5029  0.3118
   70SLPC   H3R 6008   0.358   3.528  10.084 -0.1052 -1.1658  1.0544
   70SLPC   H3S 6009   0.523   3.521  10.162  1.6254  2.0567  0.6320
   70SLPC   C24 6010   0.528   3.589   9.958  0.4541 -1.0599 -0.7351
   70SLPC   H4R 6011   0.602   3.672   9.961 -1.4008  0.6435 -1.5473
   70SLPC   H4S 6012   0.449   3.622   9.888  1.5357  1.3231 -0.8904
   70SLPC   C25 6013   0.590   3.456   9.922 -0.2845 -0.4153 -0.0759
   70SLPC   H5R 6014   0.530   3.367   9.951  0.9837 -1.4280 -0.4897
   70SLPC   H5S 6015   0.678   3.442   9.989 -1.3169  0.1192  1.3929
   70SLPC   C26 6016   0.650   3.437   9.778 -0.0897 -0.0738 -0.7122
   70SLPC   H6R 6017   0.721   3.518   9.754 -0.1100  0.2863  0.3917
   70SLPC   H6S 6018   0.559   3.447   9.714 -1.6554 -0.2418  1.4042
   70SLPC   C27 6019   0.708   3.296   9.766 -0.2313 -0.7562  0.4968
   70SLPC   H7R 6020   0.626   3.222   9.761 -2.3766  1.6271 -0.6413
   70SLPC   H7S 6021   0.781   3.267   9.844  0.7455 -2.0266 -0.8585
   70SLPC   C28 6022   0.775   3.277   9.629 -0.1718 -0.2168 -0.5789
   70SLPC   H8R 6023   0.856   3.353   9.618  0.4290 -0.7509  0.0685
   70SLPC   H8S 6024   0.696   3.297   9.554  0.7416 -0.7032 -1.6881
   70SLPC   C29 6025   0.825   3.139   9.593 -0.1521  0.8787 -0.1968
   70SLPC   H9R 6026   0.883   3.084   9.668 -3.6033 -0.2261  1.8194
   70SLPC  C210 6027   0.818   3.083   9.466 -0.8794  0.0082 -0.4256
   70SLPC  H10R 6028   0.851   2.979   9.452 -1.0617 -0.3822  1.9164
   70SLPC  C211 6029   0.759   3.147   9.341 -0.2634  0.2610  0.4427
   70SLPC  H11R 6030   0.697   3.236   9.364  0.5468  0.9106  0.1353
   70SLPC  H11S 6031   0.700   3.064   9.297 -1.4224  1.2670  0.0640
   70SLPC  C212 6032   0.865   3.192   9.246  0.2311  1.0756 -0.4906
   70SLPC  H12R 6033   0.917   3.281   9.283 -1.5581  1.5204  1.0226
   70SLPC  C213 6034   0.899   3.129   9.134  0.7035 -0.0709  0.0688
   70SLPC  H13R 6035   0.964   3.184   9.064  1.1349 -1.9041 -0.9869
   70SLPC  C214 6036   0.844   3.002   9.082 -0.0146  0.4860  0.1159
   70SLPC  H14R 6037   0.739   2.981   9.110  0.5703 -1.3109  1.0104
   70SLPC  H14S 6038   0.903   2.919   9.128  0.4584  0.4283 -0.5678
   70SLPC  C215 6039   0.853   2.986   8.930  0.4029  0.8840 -1.0114
   70SLPC  H15R 6040   0.809   3.080   8.893  1.1074  1.4319 -0.4660
   70SLPC  H15S 6041   0.789   2.905   8.888 -0.8043  1.6720 -0.6992
   70SLPC  C216 6042   0.987   2.961   8.864  0.6428 -0.4417  0.1475
   70SLPC  H16R 6043   1.040   2.879   8.916  1.3798  0.8720  1.5062
   70SLPC  H16S 6044   1.042   3.054   8.889 -2.2003  0.6896  2.5279
   70SLPC  C217 6045   0.984   2.911   8.720 -0.3989 -0.9404  0.0455
   70SLPC  H17R 6046   0.952   2.997   8.657 -3.6580 -0.2992  2.4597
   70SLPC  H17S 6047   0.918   2.822   8.708  1.2188 -2.1321 -0.0957
   70SLPC  C218 6048   1.116   2.871   8.665 -0.5530 -0.1870  0.2341
   70SLPC  H18R 6049   1.108   2.840   8.559 -1.1570  0.3091  0.1316
   70SLPC  H18S 6050   1.151   2.787   8.728  1.5053  0.8156  0.4910
   70SLPC  H18T 6051   1.191   2.953   8.672 -0.4728 -0.3356  1.2450
   70SLPC   C33 6052  -0.041   3.762  10.143  0.4163  0.4238  0.1068
   70SLPC   H3X 6053   0.052   3.702  10.131  0.2850 -0.5227  3.4251
   70SLPC   H3Y 6054  -0.033   3.872  10.154 -1.5427  0.6299 -0.2658
   70SLPC   C34 6055  -0.120   3.732  10.010 -0.8584 -0.0926 -1.0633
   70SLPC   H4X 6056  -0.221   3.776  10.021 -0.6196  0.0636  0.6716
   70SLPC   H4Y 6057  -0.117   3.626   9.980  0.3544 -0.8998  1.7459
   70SLPC   C35 6058  -0.064   3.818   9.892  0.1324  0.3061  0.0335
   70SLPC   H5X 6059  -0.025   3.915   9.930  1.6478 -0.6717  1.0249
   70SLPC   H5Y 6060  -0.150   3.842   9.825  0.2584 -1.8731 -0.9414
   70SLPC   C36 6061   0.059   3.758   9.816 -0.1329 -0.1828 -0.3642
   70SLPC   H6X 6062   0.032   3.650   9.822 -0.2239 -0.0264  3.3833
   70SLPC   H6Y 6063   0.147   3.777   9.880  0.4928 -0.6500 -1.0865
   70SLPC   C37 6064   0.078   3.810   9.674 -0.1749  0.0736 -0.1235
   70SLPC   H7X 6065   0.169   3.755   9.642 -0.9226 -1.4784  0.3679
   70SLPC   H7Y 6066   0.099   3.918   9.667  3.0620 -0.4214  1.1516
   70SLPC   C38 6067  -0.037   3.777   9.578 -0.6521 -0.3926  0.1912
   70SLPC   H8X 6068  -0.127   3.833   9.607 -0.1768 -0.2434  1.4144
   70SLPC   H8Y 6069  -0.069   3.674   9.604  1.6254 -1.0885  0.3761
   70SLPC   C39 6070   0.013   3.802   9.434  0.0584  0.4548  0.1616
   70SLPC   H9X 6071   0.101   3.737   9.411 -1.9082 -1.7266 -1.4228
   70SLPC   H9Y 6072   0.045   3.908   9.428 -0.3249  0.7593  2.8704
   70SLPC  C310 6073  -0.098   3.768   9.338  0.5956 -0.2949 -0.4784
   70SLPC  H10X 6074  -0.181   3.840   9.355  0.3582 -0.8349  0.6908
   70SLPC  H10Y 6075  -0.139   3.666   9.359 -1.2384  0.2800 -1.1046
   70SLPC  C311 6076  -0.063   3.774   9.185 -0.4223 -1.3738  0.1873
   70SLPC  H11X 6077   0.019   3.699   9.183  1.5574  0.7384 -1.7104
   70SLPC  H11Y 6078  -0.031   3.879   9.164 -0.2269 -1.6029 -0.6853
   70SLPC  C312 6079  -0.188   3.725   9.104  0.5967  0.0486  0.5262
   70SLPC  H12X 6080  -0.235   3.643   9.162 -0.2143  1.2370  1.5762
   70SLPC  H12Y 6081  -0.149   3.671   9.015 -1.7642 -1.7207  0.5026
   70SLPC  C313 6082  -0.289   3.835   9.055 -0.0353  0.2233 -0.7145
   70SLPC  H13X 6083  -0.238   3.916   8.999 -0.5462  1.6135  0.8244
   70SLPC  H13Y 6084  -0.324   3.876   9.152  2.6636 -0.3764  0.5649
   70SLPC  C314 6085  -0.396   3.765   8.968  0.2472  0.0751  1.2025
   70SLPC  H14X 6086  -0.432   3.684   9.034 -2.2030 -0.2442 -0.4400
   70SLPC  H14Y 6087  -0.341   3.732   8.877  0.7457  1.7735  0.8670
   70SLPC  C315 6088  -0.511   3.855   8.931 -0.6145  0.1634 -0.0234
   70SLPC  H15X 6089  -0.484   3.950   8.881 -1.0476 -0.6671 -1.8523
   70SLPC  H15Y 6090  -0.566   3.884   9.023  0.5968 -0.0368  0.7774
   70SLPC  C316 6091  -0.620   3.774   8.854 -0.9502 -0.2892  0.6870
   70SLPC  H16X 6092  -0.563   3.715   8.779  2.6576  1.2687  2.0922
   70SLPC  H16Y 6093  -0.683   3.854   8.809 -0.9613 -1.4876 -1.4837
   70SLPC  C317 6094  -0.709   3.694   8.949  0.6131  0.3172  0.2090
   70SLPC  H17X 6095  -0.763   3.765   9.016  1.9388  0.8115  0.7764
   70SLPC  H17Y 6096  -0.641   3.644   9.021 -0.4548  1.1048  1.7897
   70SLPC  C318 6097  -0.801   3.588   8.884 -0.5096 -1.0414 -0.8447
   70SLPC  H18X 6098  -0.846   3.523   8.962 -0.3247 -1.9247 -1.4687
   70SLPC  H18Y 6099  -0.744   3.516   8.821 -1.4556 -2.6910  0.1470
   70SLPC  H18Z 6100  -0.874   3.641   8.819  0.3874  1.1906 -0.0950
   71SLPC     N 6101   0.049   2.009  10.988 -0.3965 -0.4074 -0.0521
   71SLPC   C13 6102   0.165   1.917  11.021 -0.1587  0.2926 -0.4102
   71SLPC  H13A 6103   0.252   1.978  11.042  0.6076 -0.2846 -1.8696
   71SLPC  H13B 6104   0.148   1.864  11.114  1.2372  3.2095  1.5963
   71SLPC  H13C 6105   0.190   1.845  10.945  0.1264 -0.7045  0.6072
   71SLPC   C14 6106   0.037   2.114  11.094  0.5573  0.1504  0.2017
   71SLPC  H14A 6107   0.056   2.074  11.193  1.1165 -0.3170 -0.0896
   71SLPC  H14B 6108   0.121   2.179  11.075  0.9750 -0.0791  1.2247
   71SLPC  H14C 6109  -0.057   2.165  11.084 -0.7584 -2.5571 -1.6595
   71SLPC   C15 6110  -0.069   1.928  10.987 -1.0908 -0.1353  0.8879
   71SLPC  H15A 6111  -0.108   1.898  11.083 -0.9046 -0.4226  0.8751
   71SLPC  H15B 6112  -0.157   1.969  10.939 -1.0876 -2.0019 -0.7698
   71SLPC  H15C 6113  -0.046   1.836  10.934 -1.4135  0.7440 -0.8410
   71SLPC   C12 6114   0.091   2.077  10.851 -0.5236  0.2524 -0.6422
   71SLPC  H12A 6115   0.122   1.999  10.784  0.9869  0.5080 -0.2533
   71SLPC  H12B 6116   0.181   2.136  10.859 -1.1666  1.2994 -1.0127
   71SLPC   C11 6117  -0.010   2.164  10.772 -0.1017  0.0040  0.0003
   71SLPC  H11A 6118  -0.103   2.105  10.761 -1.0294  1.3621  0.5403
   71SLPC  H11B 6119   0.042   2.175  10.674  1.7323  0.2434  0.9712
   71SLPC     P 6120   0.075   2.412  10.828 -0.3120 -0.0429  0.0076
   71SLPC   O13 6121   0.003   2.528  10.887 -0.2725 -0.9004 -0.2931
   71SLPC   O14 6122   0.205   2.366  10.889  0.5197 -0.2137  0.5882
   71SLPC   O12 6123  -0.029   2.290  10.842 -0.3675  0.5312  0.3191
   71SLPC   O11 6124   0.096   2.448  10.678 -0.0424  0.1848 -0.0267
   71SLPC    C1 6125  -0.000   2.529  10.606  0.2089 -0.3094  0.2429
   71SLPC    HA 6126  -0.023   2.617  10.671 -0.6245 -0.2352 -0.1371
   71SLPC    HB 6127   0.051   2.562  10.513  3.4295  0.6584  2.2848
   71SLPC    C2 6128  -0.136   2.458  10.574 -0.3636  0.1894  0.1677
   71SLPC    HS 6129  -0.192   2.445  10.669 -1.1755 -3.0645 -0.6881
   71SLPC   O21 6130  -0.106   2.329  10.517 -0.4770  0.0956 -0.0877
   71SLPC   C21 6131  -0.217   2.244  10.513  0.5120  0.4953 -0.0981
   71SLPC   O22 6132  -0.328   2.260  10.559 -0.5006  0.5830 -0.8576
   71SLPC   C22 6133  -0.166   2.119  10.453  0.0407  0.9261  0.3698
   71SLPC   H2R 6134  -0.126   2.144  10.352  0.3082  2.1775  0.7866
   71SLPC   H2S 6135  -0.097   2.072  10.526  0.2282  0.7205  0.0627
   71SLPC    C3 6136  -0.217   2.547  10.481  0.1144  0.4548  0.0680
   71SLPC    HX 6137  -0.180   2.648  10.506  1.0031  0.3194 -0.6526
   71SLPC    HY 6138  -0.326   2.541  10.501 -0.3795  1.3211 -2.2059
   71SLPC   O31 6139  -0.198   2.522  10.340  0.2020 -0.1344 -0.4284
   71SLPC   C31 6140  -0.268   2.594  10.256 -0.9901  0.7899 -0.1852
   71SLPC   O32 6141  -0.351   2.679  10.282 -0.5767 -0.0049 -0.3603
   71SLPC   C32 6142  -0.239   2.538  10.115  0.1859 -0.3758  1.0081
   71SLPC   H2X 6143  -0.254   2.428  10.111  2.0637 -0.5792 -1.7467
   71SLPC   H2Y 6144  -0.140   2.567  10.075 -1.1184  2.8630 -0.0189
   71SLPC   C23 6145  -0.283   2.013  10.418 -0.0521 -0.4419 -0.2930
   71SLPC   H3R 6146  -0.358   2.007  10.500  1.2395 -1.0369  0.8601
   71SLPC   H3S 6147  -0.227   1.917  10.416  0.2035 -0.3107  0.3825
   71SLPC   C24 6148  -0.343   2.024  10.276 -0.3720 -0.9593 -0.6443
   71SLPC   H4R 6149  -0.365   2.131  10.260  0.7602 -0.4790  0.8162
   71SLPC   H4S 6150  -0.434   1.962  10.263  0.6636 -1.7457 -4.6681
   71SLPC   C25 6151  -0.251   1.981  10.155 -0.1854  0.6061  0.4258
   71SLPC   H5R 6152  -0.245   1.871  10.137 -0.7684  0.7410 -0.6174
   71SLPC   H5S 6153  -0.147   2.012  10.179  0.1460  0.0872 -0.3361
   71SLPC   C26 6154  -0.294   2.056  10.020  0.2966 -0.9808 -0.1207
   71SLPC   H6R 6155  -0.291   2.165  10.043 -1.1998 -1.2959  1.6608
   71SLPC   H6S 6156  -0.396   2.028   9.987 -0.6162  1.3566  0.6464
   71SLPC   C27 6157  -0.198   2.033   9.904 -0.0191  0.4848 -0.0743
   71SLPC   H7R 6158  -0.185   1.926   9.876 -0.6300  0.9468 -2.1824
   71SLPC   H7S 6159  -0.104   2.079   9.941 -0.5678  2.2750 -0.8834
   71SLPC   C28 6160  -0.248   2.082   9.765 -0.3397  0.3252 -0.0033
   71SLPC   H8R 6161  -0.278   2.189   9.767 -0.6078  0.3737 -3.5108
   71SLPC   H8S 6162  -0.337   2.015   9.752  0.1086 -0.2639 -0.0494
   71SLPC   C29 6163  -0.154   2.069   9.642  0.0859  0.4879  0.6624
   71SLPC   H9R 6164  -0.054   2.038   9.675  0.9393  2.3418 -0.1079
   71SLPC  C210 6165  -0.181   2.099   9.512  0.1302  0.0487 -0.5509
   71SLPC  H10R 6166  -0.104   2.082   9.434 -0.7224  1.9316 -1.8443
   71SLPC  C211 6167  -0.308   2.159   9.452 -0.2306 -0.8828 -0.7747
   71SLPC  H11R 6168  -0.289   2.268   9.441 -1.2047 -0.4691  1.4986
   71SLPC  H11S 6169  -0.374   2.156   9.541 -1.0300  1.4213 -1.2523
   71SLPC  C212 6170  -0.366   2.097   9.325  0.1758 -0.3156  0.6324
   71SLPC  H12R 6171  -0.454   2.033   9.342  0.1009 -0.2256  0.5861
   71SLPC  C213 6172  -0.317   2.118   9.200 -0.2159  0.4442 -0.0283
   71SLPC  H13R 6173  -0.365   2.075   9.111  0.2248  0.1955 -0.1457
   71SLPC  C214 6174  -0.199   2.204   9.171  0.2430 -0.1168  0.1643
   71SLPC  H14R 6175  -0.164   2.257   9.262  2.7924 -1.7668  0.1714
   71SLPC  H14S 6176  -0.222   2.284   9.097 -0.0244  1.7834  2.2549
   71SLPC  C215 6177  -0.083   2.118   9.117 -0.2995 -0.1335 -0.0719
   71SLPC  H15R 6178  -0.063   2.040   9.193  2.5565 -0.7441 -1.3892
   71SLPC  H15S 6179   0.008   2.181   9.107 -2.8979  3.9606  1.0205
   71SLPC  C216 6180  -0.122   2.063   8.983  0.0120  0.1430 -0.5499
   71SLPC  H16R 6181  -0.208   1.995   8.999 -0.4103  1.2921  2.2986
   71SLPC  H16S 6182  -0.030   2.011   8.948  1.8624  2.2724  0.9865
   71SLPC  C217 6183  -0.154   2.166   8.877  0.2573  0.8276  0.3855
   71SLPC  H17R 6184  -0.073   2.242   8.875  1.3778 -0.3142  1.3896
   71SLPC  H17S 6185  -0.250   2.217   8.898  0.2367  0.8992  0.1263
   71SLPC  C218 6186  -0.153   2.113   8.733 -0.3539 -0.0253 -0.5380
   71SLPC  H18R 6187  -0.187   2.191   8.661  0.3479 -1.2167 -2.1823
   71SLPC  H18S 6188  -0.217   2.023   8.729 -0.1495 -0.2214  0.4558
   71SLPC  H18T 6189  -0.052   2.075   8.704  0.0834 -0.9893  2.1064
   71SLPC   C33 6190  -0.340   2.612  10.020 -0.6596  0.0599 -0.6329
   71SLPC   H3X 6191  -0.320   2.721  10.009 -0.6241  0.5043  3.1237
   71SLPC   H3Y 6192  -0.441   2.603  10.066  0.2543  0.6765  1.5834
   71SLPC   C34 6193  -0.363   2.540   9.885 -0.8365  0.6043  0.8532
   71SLPC   H4X 6194  -0.460   2.578   9.845  0.3659  2.3671 -0.4781
   71SLPC   H4Y 6195  -0.356   2.429   9.890 -3.0443  0.5269  4.5521
   71SLPC   C35 6196  -0.262   2.600   9.780 -0.6483  0.7415 -0.2253
   71SLPC   H5X 6197  -0.162   2.554   9.796 -0.9982  0.5983  1.6182
   71SLPC   H5Y 6198  -0.252   2.709   9.800  2.0250  0.3104  1.0398
   71SLPC   C36 6199  -0.312   2.586   9.631  0.9049 -0.3622  0.8408
   71SLPC   H6X 6200  -0.396   2.659   9.622  0.0641 -1.1090  2.5374
   71SLPC   H6Y 6201  -0.355   2.484   9.620  1.7190 -0.5941 -0.3137
   71SLPC   C37 6202  -0.211   2.612   9.525  0.5110  0.3187 -0.1785
   71SLPC   H7X 6203  -0.130   2.539   9.547 -0.4801 -1.5883 -2.5780
   71SLPC   H7Y 6204  -0.174   2.713   9.554  2.1337  0.1992 -1.7796
   71SLPC   C38 6205  -0.272   2.579   9.387 -0.6992  0.0623 -0.6816
   71SLPC   H8X 6206  -0.345   2.660   9.365  0.2117  0.5670 -1.9243
   71SLPC   H8Y 6207  -0.323   2.481   9.396  0.9933 -0.7724 -0.1510
   71SLPC   C39 6208  -0.164   2.568   9.279 -0.2733  0.4622  0.0204
   71SLPC   H9X 6209  -0.096   2.485   9.308 -1.2005 -1.0468 -2.0372
   71SLPC   H9Y 6210  -0.092   2.651   9.294  3.2271 -2.7342  1.9001
   71SLPC  C310 6211  -0.202   2.554   9.137  0.0522  0.4265  0.0820
   71SLPC  H10X 6212  -0.260   2.645   9.110  1.2282  0.9545 -0.6704
   71SLPC  H10Y 6213  -0.268   2.465   9.128  3.0931 -1.8220 -0.8539
   71SLPC  C311 6214  -0.088   2.530   9.033  0.4180 -0.3564  0.6686
   71SLPC  H11X 6215  -0.059   2.423   9.042 -0.0695 -0.4864  0.7098
   71SLPC  H11Y 6216  -0.001   2.595   9.055  0.6929 -0.5087  0.0322
   71SLPC  C312 6217  -0.135   2.553   8.889  0.5119 -0.2997  0.0379
   71SLPC  H12X 6218  -0.183   2.653   8.888 -0.2454 -0.6199  1.6978
   71SLPC  H12Y 6219  -0.209   2.479   8.852  0.5018  0.0326 -0.6108
   71SLPC  C313 6220  -0.035   2.548   8.779  0.6626 -0.7940 -0.9210
   71SLPC  H13X 6221  -0.013   2.440   8.769  0.8599 -1.1658  2.6325
   71SLPC  H13Y 6222   0.062   2.591   8.814 -1.0591  1.4457  1.2507
   71SLPC  C314 6223  -0.072   2.613   8.642 -0.4932 -0.1806 -0.7552
   71SLPC  H14X 6224  -0.058   2.723   8.653 -0.0262 -0.1826 -1.2994
   71SLPC  H14Y 6225  -0.177   2.583   8.622 -1.0156 -0.8115  2.5952
   71SLPC  C315 6226   0.033   2.589   8.534 -0.9033 -0.0450  0.5926
   71SLPC  H15X 6227   0.028   2.483   8.501  0.0925  0.1331 -0.1275
   71SLPC  H15Y 6228   0.134   2.605   8.576  0.9212 -3.2442 -2.3332
   71SLPC  C316 6229   0.022   2.682   8.414  0.4599 -0.1216 -0.7010
   71SLPC  H16X 6230   0.041   2.782   8.458 -1.2111 -1.3540  2.9753
   71SLPC  H16Y 6231  -0.085   2.686   8.384  0.2903  0.8781  0.0226
   71SLPC  C317 6232   0.130   2.651   8.306 -0.8234  0.2579 -0.2865
   71SLPC  H17X 6233   0.108   2.545   8.281 -0.9677  0.3357 -0.4906
   71SLPC  H17Y 6234   0.235   2.647   8.340 -1.7448 -0.6319  2.6345
   71SLPC  C318 6235   0.124   2.735   8.174  0.2053  0.0951  0.2604
   71SLPC  H18X 6236   0.192   2.699   8.094  0.5482 -0.8709  0.9786
   71SLPC  H18Y 6237   0.138   2.843   8.194 -1.5614  0.1689  1.1883
   71SLPC  H18Z 6238   0.016   2.732   8.145  0.1761 -0.0522  0.3864
   72SLPC     N 6239   0.516   1.080  10.684  0.2872 -0.3837 -0.5976
   72SLPC   C13 6240   0.507   0.972  10.785 -0.0262 -0.2208 -0.1741
   72SLPC  H13A 6241   0.409   0.962  10.828  0.3808 -2.4551  0.3094
   72SLPC  H13B 6242   0.527   0.879  10.732  2.0465 -0.0335  0.2242
   72SLPC  H13C 6243   0.579   0.976  10.865  0.0707 -0.5686 -0.2385
   72SLPC   C14 6244   0.491   1.204  10.761 -0.3335  0.2989  0.0088
   72SLPC  H14A 6245   0.404   1.200  10.824  0.0762 -1.8140  0.4720
   72SLPC  H14B 6246   0.577   1.232  10.821 -2.7742  1.6694  3.0442
   72SLPC  H14C 6247   0.485   1.280  10.685 -1.5365  0.0292 -0.1637
   72SLPC   C15 6248   0.404   1.069  10.583 -0.0975 -0.0188 -0.4570
   72SLPC  H15A 6249   0.423   0.986  10.517  2.9966  1.0173 -0.9820
   72SLPC  H15B 6250   0.308   1.057  10.631  1.2420  0.6771  2.4993
   72SLPC  H15C 6251   0.397   1.165  10.534  1.3216  0.3997  0.1113
   72SLPC   C12 6252   0.648   1.101  10.619 -0.9634 -0.5082 -0.0371
   72SLPC  H12A 6253   0.721   1.132  10.693 -0.6685  1.2882 -1.0697
   72SLPC  H12B 6254   0.647   1.189  10.557  0.3162 -0.2255  0.3264
   72SLPC   C11 6255   0.695   0.980  10.540 -0.2235  0.6104 -0.0373
   72SLPC  H11A 6256   0.801   0.993  10.509  0.0529 -2.9875 -0.8112
   72SLPC  H11B 6257   0.631   0.991  10.450  0.3898 -1.2608 -0.7194
   72SLPC     P 6258   0.796   0.791  10.703  0.0481  0.0034  0.0776
   72SLPC   O13 6259   0.856   0.897  10.788 -0.7323  0.1068 -0.6430
   72SLPC   O14 6260   0.766   0.658  10.769  0.3644 -0.0501  0.2603
   72SLPC   O12 6261   0.677   0.848  10.611 -0.3077 -0.5983 -0.4468
   72SLPC   O11 6262   0.909   0.772  10.598  0.2937 -0.1170 -0.3092
   72SLPC    C1 6263   0.931   0.644  10.530 -0.0316  0.1554 -0.2044
   72SLPC    HA 6264   1.038   0.620  10.549  0.5535  2.2948 -0.6881
   72SLPC    HB 6265   0.866   0.566  10.575  0.2752  1.8233  3.2948
   72SLPC    C2 6266   0.925   0.655  10.378  0.3899 -0.7623  0.2505
   72SLPC    HS 6267   1.001   0.730  10.346 -0.1992  0.2559  1.2140
   72SLPC   O21 6268   0.788   0.679  10.328 -0.7504 -0.7816  0.0815
   72SLPC   C21 6269   0.786   0.758  10.223 -0.0880 -0.0270 -0.4233
   72SLPC   O22 6270   0.877   0.809  10.167 -0.3987  0.2687 -0.1221
   72SLPC   C22 6271   0.633   0.769  10.180  0.3215  0.4130 -0.1426
   72SLPC   H2R 6272   0.582   0.672  10.193 -0.0710  0.6969  0.4482
   72SLPC   H2S 6273   0.600   0.849  10.249  0.7168 -0.8849  1.5896
   72SLPC    C3 6274   0.972   0.522  10.308 -0.6806  0.9804  0.2725
   72SLPC    HX 6275   0.911   0.441  10.353 -0.5931 -0.3064 -1.8526
   72SLPC    HY 6276   1.075   0.508  10.346 -1.7045  1.0760  3.1876
   72SLPC   O31 6277   0.966   0.520  10.166  0.7298  0.6729 -0.7696
   72SLPC   C31 6278   0.873   0.445  10.103 -0.8095 -0.0258  0.5274
   72SLPC   O32 6279   0.797   0.373  10.165  0.0319 -0.5870 -0.0257
   72SLPC   C32 6280   0.896   0.438   9.955 -0.5862  0.7226  0.4568
   72SLPC   H2X 6281   0.996   0.389   9.954 -1.0285 -0.2276 -1.5072
   72SLPC   H2Y 6282   0.916   0.536   9.906  2.7110  0.6261  1.5013
   72SLPC   C23 6283   0.612   0.827  10.038  0.4625 -0.1083 -0.3597
   72SLPC   H3R 6284   0.667   0.923  10.026  1.2110 -0.1690  2.1932
   72SLPC   H3S 6285   0.504   0.842  10.020  0.8686 -0.0939 -2.9579
   72SLPC   C24 6286   0.651   0.732   9.927  0.3847 -0.0526  0.2666
   72SLPC   H4R 6287   0.599   0.634   9.931 -1.5240  0.9727  1.6963
   72SLPC   H4S 6288   0.759   0.711   9.942  0.4281  1.0331  1.5949
   72SLPC   C25 6289   0.624   0.785   9.780 -0.5540  0.2154  0.2991
   72SLPC   H5R 6290   0.685   0.874   9.754 -0.1192 -0.6534 -1.7285
   72SLPC   H5S 6291   0.515   0.805   9.781 -0.5302  0.3566  0.0927
   72SLPC   C26 6292   0.647   0.685   9.666 -0.9005  0.6279  1.5200
   72SLPC   H6R 6293   0.606   0.584   9.687 -2.1186  0.7975  0.1009
   72SLPC   H6S 6294   0.755   0.660   9.664 -0.9989  0.1678 -2.1245
   72SLPC   C27 6295   0.588   0.744   9.533  0.4083  0.4210  0.9048
   72SLPC   H7R 6296   0.626   0.848   9.520 -0.6921  0.6192 -0.8520
   72SLPC   H7S 6297   0.478   0.753   9.546  0.0496 -1.2526 -0.8232
   72SLPC   C28 6298   0.621   0.650   9.410 -0.0807 -0.1589 -0.8180
   72SLPC   H8R 6299   0.592   0.548   9.442 -2.2104  1.0685  1.3432
   72SLPC   H8S 6300   0.728   0.651   9.380  0.2294  0.1914  0.2573
   72SLPC   C29 6301   0.519   0.683   9.310  0.5771 -0.1282 -0.1749
   72SLPC   H9R 6302   0.421   0.687   9.360  0.1142 -2.4997 -0.8380
   72SLPC  C210 6303   0.543   0.706   9.181  0.5512 -0.3844 -0.3311
   72SLPC  H10R 6304   0.460   0.727   9.112 -0.5227 -1.1841  0.7040
   72SLPC  C211 6305   0.676   0.711   9.107 -0.4214  0.2509  0.4789
   72SLPC  H11R 6306   0.764   0.674   9.164 -0.5641 -1.5800 -0.4619
   72SLPC  H11S 6307   0.701   0.812   9.068  1.0707  0.2044  1.3100
   72SLPC  C212 6308   0.675   0.619   8.991 -0.0485  0.3358 -0.9349
   72SLPC  H12R 6309   0.742   0.532   8.988  1.6857  1.6511 -1.0396
   72SLPC  C213 6310   0.605   0.645   8.876  0.9537 -0.7991  0.3501
   72SLPC  H13R 6311   0.619   0.586   8.784 -0.0144  0.1773 -0.4388
   72SLPC  C214 6312   0.513   0.763   8.846  0.9189 -0.3734  0.5490
   72SLPC  H14R 6313   0.545   0.816   8.753 -4.6123 -0.2091 -1.4910
   72SLPC  H14S 6314   0.516   0.839   8.926  1.0133  0.2935 -0.0849
   72SLPC  C215 6315   0.373   0.714   8.831 -0.7849  0.5038  0.3585
   72SLPC  H15R 6316   0.329   0.685   8.928 -2.2189  0.3107 -0.3301
   72SLPC  H15S 6317   0.371   0.622   8.769  0.6099  0.1482  0.8265
   72SLPC  C216 6318   0.284   0.812   8.749  0.6289 -0.2948 -0.1576
   72SLPC  H16R 6319   0.313   0.852   8.649 -0.3251  1.1096  0.1047
   72SLPC  H16S 6320   0.282   0.908   8.804  2.8443 -0.9798  1.1874
   72SLPC  C217 6321   0.133   0.766   8.751 -0.1318 -0.0060 -0.1469
   72SLPC  H17R 6322   0.076   0.861   8.747 -0.3864 -0.1755 -0.6060
   72SLPC  H17S 6323   0.111   0.722   8.851 -1.2126  0.0653 -0.3423
   72SLPC  C218 6324   0.107   0.666   8.638 -0.4270 -0.4260 -0.1901
   72SLPC  H18R 6325   0.173   0.577   8.646  2.6144  1.7070 -0.8360
   72SLPC  H18S 6326   0.122   0.703   8.535  2.8899  0.2556  0.4963
   72SLPC  H18T 6327   0.002   0.629   8.646 -0.0587 -1.7444 -1.3008
   72SLPC   C33 6328   0.790   0.365   9.870  0.0731  0.2341 -0.1682
   72SLPC   H3X 6329   0.693   0.414   9.888  0.1975 -0.0316  1.2832
   72SLPC   H3Y 6330   0.768   0.262   9.905  1.9479 -0.4531 -0.9113
   72SLPC   C34 6331   0.817   0.362   9.718  0.4507  0.1815 -0.5506
   72SLPC   H4X 6332   0.906   0.298   9.699  1.7971  1.7482  0.3659
   72SLPC   H4Y 6333   0.844   0.455   9.665  2.1083 -1.0636 -1.9783
   72SLPC   C35 6334   0.704   0.305   9.640  0.1515  0.5241 -0.2010
   72SLPC   H5X 6335   0.628   0.380   9.608 -1.7912 -0.5931  1.5903
   72SLPC   H5Y 6336   0.649   0.228   9.699  0.3908  0.8503  0.4605
   72SLPC   C36 6337   0.743   0.229   9.510  0.1988 -0.3252 -0.0662
   72SLPC   H6X 6338   0.652   0.202   9.453  1.4323 -1.3496 -1.6114
   72SLPC   H6Y 6339   0.803   0.139   9.537 -0.1364 -0.6014 -0.2439
   72SLPC   C37 6340   0.838   0.313   9.419 -0.4783  0.3718 -0.6002
   72SLPC   H7X 6341   0.926   0.348   9.477  0.1251 -2.1423  0.0446
   72SLPC   H7Y 6342   0.780   0.404   9.389  1.9477  1.6540 -1.5758
   72SLPC   C38 6343   0.878   0.242   9.285 -0.4083 -0.0112  0.0368
   72SLPC   H8X 6344   0.787   0.200   9.239 -0.4900  0.3856 -0.1698
   72SLPC   H8Y 6345   0.953   0.167   9.320  1.0509  2.1709  1.7843
   72SLPC   C39 6346   0.942   0.348   9.190 -0.5398 -0.3568 -0.4212
   72SLPC   H9X 6347   1.015   0.401   9.254  0.1270  0.4610 -1.8278
   72SLPC   H9Y 6348   0.864   0.418   9.155 -1.9548 -0.6960  1.9677
   72SLPC  C310 6349   1.009   0.294   9.066  0.0539  0.4236 -0.2630
   72SLPC  H10X 6350   0.938   0.268   8.984  1.1240 -2.1286 -0.4420
   72SLPC  H10Y 6351   1.071   0.202   9.080  1.4264  1.6166  1.7063
   72SLPC  C311 6352   1.109   0.400   9.015  0.4292 -0.4091  0.2334
   72SLPC  H11X 6353   1.154   0.458   9.099  0.2330 -0.1723  0.1746
   72SLPC  H11Y 6354   1.041   0.479   8.975  0.3316 -1.5248 -1.8606
   72SLPC  C312 6355   1.198   0.345   8.898  0.2404  0.7243  0.6447
   72SLPC  H12X 6356   1.131   0.277   8.840 -0.5308  1.6195  0.4714
   72SLPC  H12Y 6357   1.288   0.295   8.940  0.8219  1.9017  0.8299
   72SLPC  C313 6358   1.254   0.460   8.812  0.2876  0.0158  0.4317
   72SLPC  H13X 6359   1.303   0.535   8.877 -3.0121  2.2454  0.4637
   72SLPC  H13Y 6360   1.167   0.513   8.769 -1.1423 -0.1638  2.9843
   72SLPC  C314 6361   1.355   0.418   8.692  0.4072  0.1458 -0.3449
   72SLPC  H14X 6362   1.452   0.390   8.738  0.3187 -1.0929 -0.8740
   72SLPC  H14Y 6363   1.374   0.502   8.622  0.1447 -0.6700 -1.4086
   72SLPC  C315 6364   1.308   0.291   8.617  0.8051 -0.2050 -0.2706
   72SLPC  H15X 6365   1.202   0.276   8.587  0.5552 -2.2011  1.4871
   72SLPC  H15Y 6366   1.324   0.209   8.690 -0.0971 -1.7222 -1.7082
   72SLPC  C316 6367   1.398   0.270   8.491  0.2933 -0.4960 -0.2962
   72SLPC  H16X 6368   1.500   0.312   8.507  1.1271 -1.7006 -2.3188
   72SLPC  H16Y 6369   1.354   0.326   8.406  1.6570  0.7843 -0.1785
   72SLPC  C317 6370   1.410   0.118   8.447  0.1728 -0.3195  0.4184
   72SLPC  H17X 6371   1.321   0.065   8.410  1.4450 -1.1446 -1.5198
   72SLPC  H17Y 6372   1.447   0.062   8.536  0.4189  0.3793  0.7687
   72SLPC  C318 6373   1.521   0.100   8.337  0.0579  0.0633  0.0836
   72SLPC  H18X 6374   1.495   0.145   8.239 -0.2571 -1.2850 -0.4681
   72SLPC  H18Y 6375   1.546  -0.007   8.321  1.6434  0.5304 -0.6252
   72SLPC  H18Z 6376   1.615   0.149   8.369  0.5227  0.4519 -1.7924
   73SLPC     N 6377   0.874   5.560  10.967 -0.3201 -0.4810 -0.0897
   73SLPC   C13 6378   0.926   5.647  11.080 -0.3385 -0.7603  0.4680
   73SLPC  H13A 6379   1.013   5.705  11.052 -2.0534  3.1634  2.8421
   73SLPC  H13B 6380   0.855   5.722  11.114 -0.2315  0.0927 -1.1393
   73SLPC  H13C 6381   0.954   5.588  11.166  0.7215  1.0631  1.4245
   73SLPC   C14 6382   0.752   5.488  11.017  0.7684 -0.2537  0.2525
   73SLPC  H14A 6383   0.769   5.385  11.046 -0.4017 -0.7517 -0.8013
   73SLPC  H14B 6384   0.709   5.554  11.091 -3.2387 -0.4391 -1.7805
   73SLPC  H14C 6385   0.673   5.479  10.944  0.0334 -0.2078  1.0330
   73SLPC   C15 6386   0.977   5.453  10.924  0.5838 -0.0510  0.0975
   73SLPC  H15A 6387   0.992   5.378  11.001  2.2607 -0.4267 -0.5744
   73SLPC  H15B 6388   0.943   5.397  10.839 -1.6650 -1.7523  2.0393
   73SLPC  H15C 6389   1.066   5.512  10.912  0.5411 -0.1478 -0.6617
   73SLPC   C12 6390   0.836   5.647  10.844  0.3409 -0.5322 -0.5396
   73SLPC  H12A 6391   0.754   5.711  10.873 -1.5984 -1.8832 -2.8639
   73SLPC  H12B 6392   0.799   5.579  10.768  3.0822 -1.7090 -0.8989
   73SLPC   C11 6393   0.951   5.736  10.780  0.4375 -0.4563 -0.2577
   73SLPC  H11A 6394   0.899   5.786  10.695 -0.6907  0.2215  0.8092
   73SLPC  H11B 6395   1.021   5.666  10.732  2.1647  0.2845  1.1404
   73SLPC     P 6396   1.157   5.875  10.862 -0.3579  0.0793 -0.1240
   73SLPC   O13 6397   1.157   6.018  10.896 -0.1361 -0.7114 -0.0873
   73SLPC   O14 6398   1.235   5.790  10.946 -0.2936 -0.1227 -0.3817
   73SLPC   O12 6399   1.002   5.837  10.872  0.0115  0.2203  0.0387
   73SLPC   O11 6400   1.186   5.842  10.711  0.1010 -0.1618  0.1458
   73SLPC    C1 6401   1.208   5.937  10.609  0.4763  0.7738 -0.6124
   73SLPC    HA 6402   1.172   6.036  10.645 -0.4397 -0.7787  2.9652
   73SLPC    HB 6403   1.318   5.947  10.602  0.8422 -3.0645 -1.4807
   73SLPC    C2 6404   1.148   5.893  10.471  0.1590  0.5098 -0.2313
   73SLPC    HS 6405   1.204   5.954  10.397  0.1564  1.4058  0.4898
   73SLPC   O21 6406   1.004   5.903  10.467  0.7821  0.2766 -0.0250
   73SLPC   C21 6407   0.969   6.035  10.477  0.5431  0.1851 -0.0254
   73SLPC   O22 6408   1.044   6.126  10.445  0.4269  0.4099  0.2789
   73SLPC   C22 6409   0.821   6.054  10.527  0.3757 -0.0922 -0.5096
   73SLPC   H2R 6410   0.771   5.958  10.498  1.1359 -0.4028 -0.8105
   73SLPC   H2S 6411   0.821   6.057  10.638  0.3585  0.0803 -0.5143
   73SLPC    C3 6412   1.195   5.745  10.446 -0.4066 -0.2705 -0.2412
   73SLPC    HX 6413   1.164   5.679  10.530  0.9260 -0.9262 -0.2540
   73SLPC    HY 6414   1.306   5.750  10.453 -0.3547 -1.9091  0.4624
   73SLPC   O31 6415   1.158   5.689  10.315  0.3259 -0.5410 -0.1557
   73SLPC   C31 6416   1.065   5.599  10.317 -0.0895  0.6114 -0.8021
   73SLPC   O32 6417   1.016   5.549  10.418 -0.3569 -0.6427 -0.9493
   73SLPC   C32 6418   1.020   5.580  10.169 -0.2732  0.7842  0.5498
   73SLPC   H2X 6419   1.113   5.561  10.111  0.0188 -0.5252  1.4058
   73SLPC   H2Y 6420   0.973   5.674  10.135  1.3781  1.5594  0.3976
   73SLPC   C23 6421   0.744   6.175  10.465 -0.0578 -0.2700  0.4454
   73SLPC   H3R 6422   0.801   6.260  10.507  0.8131 -0.2576 -0.7492
   73SLPC   H3S 6423   0.641   6.199  10.499 -0.2537 -0.3958 -0.0520
   73SLPC   C24 6424   0.744   6.166  10.307  0.1964  0.4008 -0.1484
   73SLPC   H4R 6425   0.690   6.075  10.273  0.3919  0.5234 -0.7976
   73SLPC   H4S 6426   0.847   6.150  10.268 -0.1512 -1.6492 -0.2834
   73SLPC   C25 6427   0.688   6.287  10.229 -0.1779  0.0338 -0.5952
   73SLPC   H5R 6428   0.717   6.272  10.123  0.9031 -4.7366  0.2496
   73SLPC   H5S 6429   0.745   6.375  10.266  0.7617 -0.9914  0.4420
   73SLPC   C26 6430   0.537   6.328  10.240 -0.2105  0.2457  1.5978
   73SLPC   H6R 6431   0.526   6.432  10.201  1.2697 -0.1180  0.1377
   73SLPC   H6S 6432   0.502   6.322  10.345  0.5616  2.2144  1.9905
   73SLPC   C27 6433   0.446   6.236  10.157 -0.1967 -0.6120 -0.8583
   73SLPC   H7R 6434   0.489   6.134  10.163  0.9724 -0.1113 -0.5407
   73SLPC   H7S 6435   0.462   6.260  10.050  0.5549 -1.1968 -0.8838
   73SLPC   C28 6436   0.289   6.244  10.183  0.9102 -0.6128 -0.3834
   73SLPC   H8R 6437   0.253   6.347  10.165  1.3570 -0.3699  0.1098
   73SLPC   H8S 6438   0.275   6.219  10.290  2.2783 -0.6707 -0.2058
   73SLPC   C29 6439   0.214   6.137  10.106  0.4272  1.0505  0.5821
   73SLPC   H9R 6440   0.194   6.043  10.159 -0.7582  0.4664 -0.8420
   73SLPC  C210 6441   0.181   6.139   9.971  0.8297 -0.0563  0.3693
   73SLPC  H10R 6442   0.138   6.053   9.918 -1.1318  0.6218  0.7876
   73SLPC  C211 6443   0.202   6.261   9.879  0.5069  0.1954  0.1050
   73SLPC  H11R 6444   0.272   6.229   9.799  0.8994 -1.4807  1.0954
   73SLPC  H11S 6445   0.253   6.345   9.930 -1.4613  0.7379  1.2449
   73SLPC  C212 6446   0.065   6.304   9.812 -0.0360 -0.3671  0.3760
   73SLPC  H12R 6447  -0.006   6.345   9.885 -0.6528 -0.1156 -0.3716
   73SLPC  C213 6448   0.030   6.288   9.684  0.2809 -0.0024  0.1759
   73SLPC  H13R 6449  -0.074   6.315   9.661 -0.2869 -0.5518  2.0249
   73SLPC  C214 6450   0.107   6.229   9.574 -0.1353 -1.0047  0.1162
   73SLPC  H14R 6451   0.192   6.162   9.601 -0.7486 -2.3495 -1.2504
   73SLPC  H14S 6452   0.153   6.314   9.518  0.0972 -0.6869  0.7769
   73SLPC  C215 6453   0.021   6.147   9.483  0.6065 -0.5121 -0.3158
   73SLPC  H15R 6454   0.083   6.105   9.402  1.7489  0.4164  0.0641
   73SLPC  H15S 6455  -0.065   6.200   9.437  0.1509 -0.9941 -0.0347
   73SLPC  C216 6456  -0.040   6.019   9.547 -0.1923  0.1397  0.2283
   73SLPC  H16R 6457  -0.121   6.053   9.615 -2.1160 -1.9618 -0.9544
   73SLPC  H16S 6458   0.032   5.946   9.590  0.7457  0.5142 -0.6779
   73SLPC  C217 6459  -0.126   5.932   9.451  0.4358  0.0387  0.4604
   73SLPC  H17R 6460  -0.213   5.982   9.405 -0.7092 -0.7819  1.7132
   73SLPC  H17S 6461  -0.162   5.855   9.522  0.8553 -1.6601 -1.1204
   73SLPC  C218 6462  -0.049   5.853   9.347  0.3525  0.2725 -0.1197
   73SLPC  H18R 6463   0.002   5.918   9.273 -1.8046  0.1064 -1.7946
   73SLPC  H18S 6464  -0.126   5.790   9.298  1.3339 -0.6914 -0.4399
   73SLPC  H18T 6465   0.019   5.784   9.401  1.6355  1.2981 -0.3877
   73SLPC   C33 6466   0.917   5.468  10.156 -0.6347  0.4627 -0.3208
   73SLPC   H3X 6467   0.818   5.492  10.201 -0.5398 -1.2411  0.8480
   73SLPC   H3Y 6468   0.953   5.375  10.206  0.8987  0.0342 -2.1667
   73SLPC   C34 6469   0.882   5.434  10.006 -0.4008  0.4410 -0.4806
   73SLPC   H4X 6470   0.825   5.339  10.007  0.6962 -0.2240 -0.7931
   73SLPC   H4Y 6471   0.985   5.422   9.966  0.1365  2.4756  0.1940
   73SLPC   C35 6472   0.804   5.543   9.934  0.9851 -0.4357 -0.4227
   73SLPC   H5X 6473   0.869   5.631   9.949  0.9275 -0.0965 -2.1197
   73SLPC   H5Y 6474   0.705   5.553   9.985  1.3115 -0.6674  0.2713
   73SLPC   C36 6475   0.791   5.522   9.780 -0.0172 -0.2312 -0.0385
   73SLPC   H6X 6476   0.724   5.436   9.755 -1.3071  0.2127  1.7912
   73SLPC   H6Y 6477   0.894   5.504   9.742  0.6805  2.1274  0.7058
   73SLPC   C37 6478   0.729   5.650   9.710 -0.5761  0.3732 -0.0398
   73SLPC   H7X 6479   0.788   5.734   9.753 -1.4694  0.1857  1.6291
   73SLPC   H7Y 6480   0.620   5.656   9.735 -0.6105  0.6035 -0.2473
   73SLPC   C38 6481   0.728   5.652   9.560  0.3567  1.0980 -0.0370
   73SLPC   H8X 6482   0.834   5.622   9.546  1.0079  3.3782 -0.1304
   73SLPC   H8Y 6483   0.720   5.752   9.513  0.3290 -0.5739 -3.7030
   73SLPC   C39 6484   0.617   5.561   9.503  0.5354  0.5618 -0.0488
   73SLPC   H9X 6485   0.570   5.494   9.579 -0.9372  1.4910 -0.1132
   73SLPC   H9Y 6486   0.669   5.488   9.438 -0.9624 -1.0958  0.5614
   73SLPC  C310 6487   0.513   5.632   9.421  0.3299  0.2905 -0.3955
   73SLPC  H10X 6488   0.470   5.714   9.481 -2.7203 -0.3041 -1.6682
   73SLPC  H10Y 6489   0.436   5.554   9.404 -0.4124  0.9912 -0.2677
   73SLPC  C311 6490   0.554   5.687   9.288  0.4407 -0.2305  0.3465
   73SLPC  H11X 6491   0.601   5.616   9.217 -1.8511  1.4464 -2.9932
   73SLPC  H11Y 6492   0.642   5.754   9.300  0.6182 -0.2746 -0.6229
   73SLPC  C312 6493   0.451   5.751   9.188 -0.4826  0.0946  0.6385
   73SLPC  H12X 6494   0.512   5.805   9.112 -0.9619 -0.7590 -0.3815
   73SLPC  H12Y 6495   0.395   5.825   9.248 -4.2027 -1.4057 -0.8320
   73SLPC  C313 6496   0.356   5.647   9.123 -0.3946 -0.0473 -0.2394
   73SLPC  H13X 6497   0.332   5.564   9.193  0.7711  1.7847  2.4170
   73SLPC  H13Y 6498   0.404   5.595   9.037  2.0470  0.5559  0.7334
   73SLPC  C314 6499   0.224   5.707   9.065 -0.3588 -0.8742  0.0943
   73SLPC  H14X 6500   0.238   5.776   8.979 -0.8814  0.9339  1.4295
   73SLPC  H14Y 6501   0.180   5.766   9.148  1.9108 -0.4924  1.0390
   73SLPC  C315 6502   0.123   5.600   9.023 -0.1470 -0.1188 -0.1278
   73SLPC  H15X 6503   0.079   5.545   9.109 -3.2191  0.6515 -1.1194
   73SLPC  H15Y 6504   0.186   5.533   8.962  3.1171  1.3044  1.5503
   73SLPC  C316 6505   0.022   5.672   8.933  0.6007  0.1448 -0.2860
   73SLPC  H16X 6506  -0.040   5.593   8.887  1.4962 -0.7125 -0.0250
   73SLPC  H16Y 6507   0.082   5.729   8.858  1.1536  0.9226  0.7412
   73SLPC  C317 6508  -0.079   5.772   8.996  0.2188 -0.1596  0.2288
   73SLPC  H17X 6509  -0.031   5.868   9.025 -2.4737  1.2585  0.1613
   73SLPC  H17Y 6510  -0.122   5.721   9.085 -0.9834 -0.1110 -0.3151
   73SLPC  C318 6511  -0.200   5.798   8.904 -1.4643  0.7474 -0.4357
   73SLPC  H18X 6512  -0.163   5.822   8.801 -0.9230  1.0559 -0.1736
   73SLPC  H18Y 6513  -0.266   5.882   8.933  0.2201  2.4492 -1.3890
   73SLPC  H18Z 6514  -0.257   5.706   8.879  1.1594 -0.7980 -0.9913
   74SLPC     N 6515   1.678   1.181  10.576  1.3566  0.2897  0.5403
   74SLPC   C13 6516   1.791   1.275  10.549  0.3360 -0.2562  0.1732
   74SLPC  H13A 6517   1.878   1.215  10.525  1.0835  0.1684  1.7057
   74SLPC  H13B 6518   1.772   1.338  10.464  1.5642 -0.1734 -0.0476
   74SLPC  H13C 6519   1.809   1.335  10.637 -0.1995  1.3426 -0.7849
   74SLPC   C14 6520   1.548   1.254  10.597 -1.1119  0.7974  0.0988
   74SLPC  H14A 6521   1.537   1.328  10.519 -3.0583 -0.9371 -1.3030
   74SLPC  H14B 6522   1.468   1.182  10.602  0.3155 -0.8265 -0.0095
   74SLPC  H14C 6523   1.543   1.308  10.691 -0.4797 -0.5835  0.9583
   74SLPC   C15 6524   1.704   1.095  10.696  0.6356 -0.2842 -0.4995
   74SLPC  H15A 6525   1.615   1.042  10.728  0.3126  1.6375  1.8811
   74SLPC  H15B 6526   1.781   1.022  10.680  1.6091  0.3718  1.0779
   74SLPC  H15C 6527   1.739   1.145  10.785 -0.8269 -0.7828  0.3898
   74SLPC   C12 6528   1.660   1.095  10.454 -0.2934  0.3165  0.1817
   74SLPC  H12A 6529   1.608   1.148  10.376 -3.0187  0.8341  2.2741
   74SLPC  H12B 6530   1.601   1.008  10.478  0.4434  0.0778  1.1347
   74SLPC   C11 6531   1.775   1.026  10.389  0.3607 -0.7453  0.1950
   74SLPC  H11A 6532   1.842   1.108  10.355  0.4365 -0.7069  0.4397
   74SLPC  H11B 6533   1.751   0.969  10.297 -0.4065 -1.3293  0.7470
   74SLPC     P 6534   1.991   0.916  10.510  0.1784 -0.0094  0.0319
   74SLPC   O13 6535   2.058   1.035  10.574 -0.3565  0.1319  0.1949
   74SLPC   O14 6536   2.010   0.796  10.592  0.3786  0.4664 -0.0084
   74SLPC   O12 6537   1.836   0.941  10.487  0.2065 -0.6894 -0.5358
   74SLPC   O11 6538   2.038   0.883  10.369 -0.2883  0.0273 -0.7089
   74SLPC    C1 6539   1.970   0.787  10.284 -0.4446 -0.3951 -0.2410
   74SLPC    HA 6540   1.873   0.749  10.324 -1.3581  2.2033  0.1217
   74SLPC    HB 6541   1.952   0.844  10.191 -1.4793  2.2073  1.4877
   74SLPC    C2 6542   2.071   0.674  10.247 -0.5751 -0.3540 -0.3999
   74SLPC    HS 6543   2.120   0.641  10.341  1.0975 -1.7286 -1.7130
   74SLPC   O21 6544   2.176   0.735  10.164  0.1283 -0.5733  0.1031
   74SLPC   C21 6545   2.298   0.683  10.174 -0.2930 -0.6585  0.2454
   74SLPC   O22 6546   2.335   0.589  10.246  0.3632 -0.2164  0.2569
   74SLPC   C22 6547   2.402   0.762  10.097 -0.2250  0.4259 -0.5228
   74SLPC   H2R 6548   2.346   0.838  10.039 -0.3221  0.7204 -0.0519
   74SLPC   H2S 6549   2.474   0.807  10.169  2.1709 -0.7145 -2.1537
   74SLPC    C3 6550   2.003   0.557  10.163  0.2381 -0.2394 -0.0146
   74SLPC    HX 6551   1.938   0.489  10.223  1.9943  0.0812  2.3329
   74SLPC    HY 6552   2.086   0.490  10.131  0.0400 -1.3599  1.7000
   74SLPC   O31 6553   1.930   0.614  10.053 -0.0275 -0.5521 -0.4741
   74SLPC   C31 6554   1.942   0.556   9.937  0.0440 -0.1057 -0.2468
   74SLPC   O32 6555   2.019   0.466   9.909  0.1370  0.0872 -0.4975
   74SLPC   C32 6556   1.839   0.608   9.842  0.0386 -0.3975 -0.2766
   74SLPC   H2X 6557   1.853   0.718   9.838  2.6910 -0.7153 -0.4849
   74SLPC   H2Y 6558   1.741   0.583   9.889 -0.4693  0.2556 -0.9823
   74SLPC   C23 6559   2.461   0.669   9.995 -0.0307  0.8110  0.2771
   74SLPC   H3R 6560   2.489   0.574  10.047  0.2989  2.0475  2.3865
   74SLPC   H3S 6561   2.554   0.707   9.947  0.5139 -2.0642 -1.1082
   74SLPC   C24 6562   2.377   0.629   9.867 -0.0551  0.4356 -0.0173
   74SLPC   H4R 6563   2.277   0.596   9.904 -0.1585 -1.1124 -1.5743
   74SLPC   H4S 6564   2.430   0.546   9.815  0.6043  1.0778 -0.3796
   74SLPC   C25 6565   2.332   0.736   9.771 -0.4328  0.1433  0.5213
   74SLPC   H5R 6566   2.337   0.830   9.831 -0.5290 -0.9576  2.2976
   74SLPC   H5S 6567   2.225   0.724   9.741 -0.1274 -1.2934 -0.0163
   74SLPC   C26 6568   2.413   0.749   9.639 -0.2824 -0.0884  0.4384
   74SLPC   H6R 6569   2.423   0.641   9.614  1.0772 -0.1329  1.1475
   74SLPC   H6S 6570   2.508   0.796   9.674 -0.4488 -0.6624  1.6651
   74SLPC   C27 6571   2.332   0.810   9.518 -0.4340  0.5353  0.3398
   74SLPC   H7R 6572   2.322   0.920   9.536 -1.3193  0.2425  1.7484
   74SLPC   H7S 6573   2.234   0.758   9.519 -0.4508  0.4771 -1.7093
   74SLPC   C28 6574   2.410   0.774   9.388 -0.4264 -0.3344  0.3203
   74SLPC   H8R 6575   2.416   0.665   9.368  0.0311 -0.2723  0.1037
   74SLPC   H8S 6576   2.517   0.803   9.394 -0.5186  0.2162 -0.5998
   74SLPC   C29 6577   2.355   0.848   9.271  0.4431 -0.8035  0.4718
   74SLPC   H9R 6578   2.418   0.937   9.254 -0.6927 -0.2434 -0.8995
   74SLPC  C210 6579   2.255   0.824   9.188 -0.1230  0.1673 -0.5574
   74SLPC  H10R 6580   2.248   0.887   9.098  1.7044  1.7147  0.3477
   74SLPC  C211 6581   2.166   0.701   9.198 -0.9760  0.5729  0.3285
   74SLPC  H11R 6582   2.103   0.703   9.289  0.3419  2.1215  1.2330
   74SLPC  H11S 6583   2.230   0.610   9.196 -0.7418  0.7448 -0.1438
   74SLPC  C212 6584   2.058   0.699   9.096  0.6847  0.1982  0.6610
   74SLPC  H12R 6585   1.976   0.767   9.124  0.1828 -0.0659 -0.1497
   74SLPC  C213 6586   2.038   0.625   8.987 -0.0318  0.3438  0.6473
   74SLPC  H13R 6587   1.954   0.648   8.919  0.3556  3.1058  1.0243
   74SLPC  C214 6588   2.136   0.510   8.956  0.3805 -0.6213 -0.9645
   74SLPC  H14R 6589   2.180   0.461   9.046 -1.0547 -1.5383 -0.7453
   74SLPC  H14S 6590   2.216   0.548   8.889  0.9632 -0.3888 -0.1621
   74SLPC  C215 6591   2.066   0.398   8.874  0.1939 -0.8048 -0.0609
   74SLPC  H15R 6592   2.135   0.342   8.808 -0.9170 -0.1822 -1.7994
   74SLPC  H15S 6593   2.000   0.439   8.794 -1.1374 -0.8727  0.9820
   74SLPC  C216 6594   1.978   0.302   8.949 -0.2554 -0.0743  0.4755
   74SLPC  H16R 6595   1.906   0.351   9.017 -1.6757 -0.0665 -1.0005
   74SLPC  H16S 6596   2.033   0.234   9.018  4.6483  1.1012 -2.0327
   74SLPC  C217 6597   1.902   0.203   8.859  0.4566  0.2658  0.2715
   74SLPC  H17R 6598   1.851   0.124   8.918 -0.5201  1.2203  0.7236
   74SLPC  H17S 6599   1.972   0.155   8.787 -0.7465 -1.3477  0.1560
   74SLPC  C218 6600   1.782   0.268   8.782  0.3835 -0.2024  0.0022
   74SLPC  H18R 6601   1.719   0.190   8.734 -0.0551 -0.8854  1.6388
   74SLPC  H18S 6602   1.815   0.336   8.701 -2.5866 -0.7157 -1.7427
   74SLPC  H18T 6603   1.712   0.323   8.849 -0.1527 -0.0613 -0.6748
   74SLPC   C33 6604   1.856   0.549   9.704 -0.9044  0.4316  0.5377
   74SLPC   H3X 6605   1.835   0.440   9.716  0.9763  0.0978  1.1139
   74SLPC   H3Y 6606   1.959   0.563   9.665 -0.9920  1.3281  0.6240
   74SLPC   C34 6607   1.754   0.589   9.603 -0.1140 -0.0677  0.2359
   74SLPC   H4X 6608   1.745   0.698   9.589 -2.0445 -0.0853  1.1369
   74SLPC   H4Y 6609   1.661   0.531   9.621 -0.3962  0.6306  1.0455
   74SLPC   C35 6610   1.792   0.540   9.457  0.2413  0.9119 -0.6114
   74SLPC   H5X 6611   1.815   0.432   9.454 -2.3189  0.3089  0.2480
   74SLPC   H5Y 6612   1.883   0.591   9.418 -0.2095  1.4280 -1.0100
   74SLPC   C36 6613   1.678   0.553   9.352 -0.4694  0.2998 -0.4589
   74SLPC   H6X 6614   1.670   0.663   9.337  0.1240  0.4712  0.4604
   74SLPC   H6Y 6615   1.591   0.505   9.403 -1.3332  2.3676  0.0716
   74SLPC   C37 6616   1.712   0.482   9.219 -0.3370  0.2779  0.1305
   74SLPC   H7X 6617   1.728   0.376   9.245 -1.1839  0.1923  0.3113
   74SLPC   H7Y 6618   1.806   0.522   9.175  1.2410 -3.1937  0.1738
   74SLPC   C38 6619   1.602   0.486   9.114  0.3632 -0.3090 -0.2521
   74SLPC   H8X 6620   1.509   0.437   9.152  2.7774 -3.9986  1.2680
   74SLPC   H8Y 6621   1.638   0.416   9.036  3.5683  0.4138  0.5448
   74SLPC   C39 6622   1.558   0.618   9.052 -0.5034  0.1859 -0.0132
   74SLPC   H9X 6623   1.592   0.707   9.109 -0.7454  0.1309  0.2177
   74SLPC   H9Y 6624   1.448   0.609   9.039 -0.3832 -0.8817 -0.3688
   74SLPC  C310 6625   1.616   0.619   8.909  0.3298  0.0164 -0.1256
   74SLPC  H10X 6626   1.565   0.534   8.859 -0.1145  0.1734  0.0572
   74SLPC  H10Y 6627   1.727   0.609   8.904  0.1927 -0.6422 -1.9577
   74SLPC  C311 6628   1.568   0.746   8.839  0.3639  0.3847 -0.1070
   74SLPC  H11X 6629   1.562   0.829   8.912 -1.3855  0.6569 -0.5421
   74SLPC  H11Y 6630   1.461   0.735   8.814 -0.2893 -0.9294  2.9808
   74SLPC  C312 6631   1.639   0.783   8.708  0.0611 -0.3955  0.1362
   74SLPC  H12X 6632   1.737   0.816   8.748 -1.0812  1.9577  1.0446
   74SLPC  H12Y 6633   1.589   0.866   8.653 -0.1980 -0.8449 -0.3160
   74SLPC  C313 6634   1.662   0.664   8.620  0.0901 -0.5589 -0.2485
   74SLPC  H13X 6635   1.565   0.612   8.605 -0.8626  0.7449  1.2114
   74SLPC  H13Y 6636   1.732   0.589   8.662 -0.5836  0.3452  2.5654
   74SLPC  C314 6637   1.726   0.716   8.482 -0.2328  0.3221 -0.0206
   74SLPC  H14X 6638   1.644   0.765   8.425 -0.2167 -1.2055 -1.3734
   74SLPC  H14Y 6639   1.760   0.618   8.443  1.8167  0.5007  1.2212
   74SLPC  C315 6640   1.843   0.811   8.502  0.2222 -0.1566  0.4639
   74SLPC  H15X 6641   1.817   0.893   8.572 -0.0796 -1.0142  1.3681
   74SLPC  H15Y 6642   1.854   0.862   8.403 -2.5903  2.0781  1.2597
   74SLPC  C316 6643   1.972   0.743   8.536  0.6804 -0.6790  0.0114
   74SLPC  H16X 6644   1.978   0.659   8.464 -2.5851 -1.8522  1.0222
   74SLPC  H16Y 6645   1.971   0.696   8.637  0.8563  0.7343  0.6955
   74SLPC  C317 6646   2.090   0.842   8.522  0.7393  0.9354 -0.3350
   74SLPC  H17X 6647   2.083   0.889   8.421  0.6517  3.0792  0.6484
   74SLPC  H17Y 6648   2.181   0.778   8.525 -1.0074 -1.6096  0.3954
   74SLPC  C318 6649   2.094   0.959   8.631 -0.3655  0.6200  0.4693
   74SLPC  H18X 6650   2.063   0.921   8.731 -0.2595  3.2138  1.5067
   74SLPC  H18Y 6651   2.015   1.030   8.598  0.5228  0.8271 -1.2790
   74SLPC  H18Z 6652   2.194   1.007   8.629 -1.0828  2.2530  2.2046
   75SLPC     N 6653   6.212   5.118   6.260  0.0229  0.0569  0.4631
   75SLPC   C13 6654   6.174   5.230   6.173 -0.0475 -0.3051 -0.7719
   75SLPC  H13A 6655   6.136   5.316   6.228  1.5815  1.0033 -1.6643
   75SLPC  H13B 6656   6.259   5.267   6.119  0.8998  0.0506  0.9225
   75SLPC  H13C 6657   6.086   5.202   6.117 -0.4792 -0.5587  0.0276
   75SLPC   C14 6658   6.350   5.131   6.309 -0.2919 -0.0731 -0.5243
   75SLPC  H14A 6659   6.363   5.222   6.366  0.9784  0.4530 -1.6211
   75SLPC  H14B 6660   6.373   5.048   6.374 -0.4804 -0.1220 -0.5205
   75SLPC  H14C 6661   6.423   5.144   6.230 -0.6589  0.7704 -0.7384
   75SLPC   C15 6662   6.214   4.995   6.177  0.3297  0.7248 -0.5714
   75SLPC  H15A 6663   6.221   4.907   6.238 -1.4432  1.3000  0.4810
   75SLPC  H15B 6664   6.123   4.978   6.121 -0.5757 -1.0899  1.3999
   75SLPC  H15C 6665   6.296   4.989   6.106  1.7371 -0.1649  1.1031
   75SLPC   C12 6666   6.117   5.112   6.382 -0.7478  0.6866 -0.6745
   75SLPC  H12A 6667   6.012   5.101   6.359 -0.3270 -1.4828 -1.7873
   75SLPC  H12B 6668   6.139   5.203   6.436 -0.3101  1.1191 -1.5716
   75SLPC   C11 6669   6.145   5.001   6.482  0.4506  0.2841 -0.0776
   75SLPC  H11A 6670   6.123   5.042   6.583  0.4075 -1.9991  0.8492
   75SLPC  H11B 6671   6.252   4.972   6.488  0.5876  0.8795  0.4367
   75SLPC     P 6672   6.022   4.790   6.556  0.0151 -0.1822 -0.1540
   75SLPC   O13 6673   5.955   4.854   6.670  0.9025 -0.1957  0.3260
   75SLPC   O14 6674   5.957   4.676   6.485  0.8360 -0.7080 -0.6411
   75SLPC   O12 6675   6.057   4.895   6.448 -0.0168  0.3078  0.0948
   75SLPC   O11 6676   6.169   4.744   6.604  0.2354  0.6317  0.0246
   75SLPC    C1 6677   6.243   4.641   6.524  0.1600  0.0755 -0.1759
   75SLPC    HA 6678   6.214   4.650   6.417  0.7190  0.2169 -0.3177
   75SLPC    HB 6679   6.352   4.662   6.535  0.2162  0.6114 -1.6861
   75SLPC    C2 6680   6.225   4.499   6.581  0.7312  0.4319 -0.1149
   75SLPC    HS 6681   6.118   4.467   6.580  1.1458 -0.9859 -0.4037
   75SLPC   O21 6682   6.267   4.501   6.717  0.1911 -0.3129  0.5452
   75SLPC   C21 6683   6.177   4.528   6.805 -0.3433  0.3024  0.4605
   75SLPC   O22 6684   6.057   4.531   6.793 -0.0915  0.1969 -0.2097
   75SLPC   C22 6685   6.246   4.562   6.942  0.9208 -0.2538  0.6508
   75SLPC   H2R 6686   6.324   4.485   6.957 -0.1727 -1.4910  0.1423
   75SLPC   H2S 6687   6.301   4.658   6.938  2.1924 -0.7981  3.5697
   75SLPC    C3 6688   6.318   4.398   6.505  0.5278  0.2485 -0.0111
   75SLPC    HX 6689   6.424   4.430   6.513 -0.3144  3.1583 -0.0550
   75SLPC    HY 6690   6.291   4.404   6.398 -2.3332  1.1384  0.6992
   75SLPC   O31 6691   6.311   4.256   6.551  0.1180 -0.3196 -0.4552
   75SLPC   C31 6692   6.198   4.199   6.511  0.9164  0.9999 -0.2759
   75SLPC   O32 6693   6.101   4.252   6.463 -0.2555 -0.1535 -0.1255
   75SLPC   C32 6694   6.194   4.053   6.560 -0.0855  0.2071  0.2465
   75SLPC   H2X 6695   6.292   4.004   6.542  0.6216  1.5257  0.5109
   75SLPC   H2Y 6696   6.111   3.997   6.511  0.4891  0.7067 -1.3344
   75SLPC   C23 6697   6.140   4.549   7.063  0.2423  0.4899  0.0087
   75SLPC   H3R 6698   6.040   4.596   7.053 -0.5729 -1.0464  0.8014
   75SLPC   H3S 6699   6.193   4.597   7.149 -0.3846  2.0150 -0.4359
   75SLPC   C24 6700   6.116   4.396   7.102  0.8781 -0.0394 -0.4115
   75SLPC   H4R 6701   6.203   4.336   7.067 -0.2050 -2.0423  0.2402
   75SLPC   H4S 6702   6.024   4.357   7.055  0.5112  1.3732 -0.8774
   75SLPC   C25 6703   6.083   4.380   7.253  0.4686 -0.0690 -0.3356
   75SLPC   H5R 6704   6.039   4.278   7.261 -0.1871  0.3248  1.1900
   75SLPC   H5S 6705   6.007   4.453   7.288 -1.0707 -0.9106 -1.8739
   75SLPC   C26 6706   6.209   4.380   7.335 -0.3363 -0.0109 -0.4932
   75SLPC   H6R 6707   6.218   4.487   7.365 -0.4171  0.1396 -1.0014
   75SLPC   H6S 6708   6.292   4.357   7.266 -0.8383  0.2230 -1.1772
   75SLPC   C27 6709   6.206   4.280   7.452  0.6346  0.6224  0.1686
   75SLPC   H7R 6710   6.208   4.186   7.393 -2.9274  0.7108 -0.1821
   75SLPC   H7S 6711   6.110   4.278   7.508  0.4410  0.9396 -0.1508
   75SLPC   C28 6712   6.318   4.292   7.554  0.4249 -0.2060  0.0946
   75SLPC   H8R 6713   6.306   4.387   7.611  2.4001  0.6959 -0.9265
   75SLPC   H8S 6714   6.413   4.310   7.499  0.3535 -2.1917 -0.7144
   75SLPC   C29 6715   6.318   4.169   7.647 -0.0223  0.0231 -0.3653
   75SLPC   H9R 6716   6.352   4.071   7.611  0.9828  0.0335  0.5071
   75SLPC  C210 6717   6.256   4.167   7.770  0.4709  0.1672  0.4638
   75SLPC  H10R 6718   6.255   4.066   7.814  0.7398 -0.7788 -1.6562
   75SLPC  C211 6719   6.198   4.286   7.839  0.0833 -0.0082  0.0644
   75SLPC  H11R 6720   6.133   4.340   7.767 -0.7437 -0.6329  0.3288
   75SLPC  H11S 6721   6.281   4.354   7.868  0.5609 -0.7545  0.4677
   75SLPC  C212 6722   6.108   4.257   7.953 -0.0553 -0.3603 -0.5361
   75SLPC  H12R 6723   6.007   4.224   7.925 -0.6658 -0.1342  1.3112
   75SLPC  C213 6724   6.149   4.268   8.085  0.0131  0.4091  0.4884
   75SLPC  H13R 6725   6.067   4.240   8.152  1.0371 -0.9546  1.1900
   75SLPC  C214 6726   6.279   4.303   8.147  0.4625 -1.2496  0.4603
   75SLPC  H14R 6727   6.359   4.342   8.080 -0.7038 -0.4049 -0.4647
   75SLPC  H14S 6728   6.325   4.208   8.181  1.4668 -1.6537 -1.9953
   75SLPC  C215 6729   6.257   4.399   8.264 -0.5229  0.1058  0.1483
   75SLPC  H15R 6730   6.349   4.389   8.325  0.7242  0.9231 -1.5589
   75SLPC  H15S 6731   6.169   4.377   8.328  0.5590  0.6959  1.8542
   75SLPC  C216 6732   6.252   4.547   8.236  0.4528 -0.3937  0.1409
   75SLPC  H16R 6733   6.144   4.559   8.213  1.1150  2.8740 -1.6538
   75SLPC  H16S 6734   6.319   4.574   8.152 -0.2657 -1.6132 -0.8390
   75SLPC  C217 6735   6.283   4.640   8.350  0.4207  1.0904  0.6639
   75SLPC  H17R 6736   6.392   4.644   8.373  0.5284  1.0274  0.1668
   75SLPC  H17S 6737   6.234   4.605   8.443 -1.2739 -0.8040 -0.8866
   75SLPC  C218 6738   6.232   4.784   8.333 -0.3619  0.3917  0.2889
   75SLPC  H18R 6739   6.292   4.849   8.400  1.6793 -1.4123  0.2523
   75SLPC  H18S 6740   6.122   4.797   8.345 -0.5448 -0.4057 -0.4557
   75SLPC  H18T 6741   6.260   4.824   8.233 -2.5904 -4.4938 -2.4336
   75SLPC   C33 6742   6.162   4.029   6.707  0.8479  0.1240 -0.0915
   75SLPC   H3X 6743   6.069   4.081   6.741  0.2855 -0.8636 -0.0977
   75SLPC   H3Y 6744   6.123   3.926   6.716  0.4554  0.3891  1.5063
   75SLPC   C34 6745   6.276   4.052   6.812 -0.0521  0.3571 -0.0490
   75SLPC   H4X 6746   6.313   4.154   6.791 -1.2654  0.7996 -0.0755
   75SLPC   H4Y 6747   6.359   3.979   6.798 -0.1804 -0.0554  1.2554
   75SLPC   C35 6748   6.216   4.036   6.952 -0.3130 -0.1694 -0.6640
   75SLPC   H5X 6749   6.128   3.969   6.943 -0.1264 -0.4166 -0.6604
   75SLPC   H5Y 6750   6.184   4.136   6.991  0.3811  0.0330 -0.5984
   75SLPC   C36 6751   6.316   3.975   7.053  0.2531  0.2977  0.0201
   75SLPC   H6X 6752   6.408   4.038   7.057 -0.2880  1.0176  1.7942
   75SLPC   H6Y 6753   6.343   3.875   7.012 -1.6902  0.5673 -1.9891
   75SLPC   C37 6754   6.252   3.955   7.184 -0.0283  0.6602 -0.7020
   75SLPC   H7X 6755   6.150   3.911   7.173  0.1648 -0.2852  0.9979
   75SLPC   H7Y 6756   6.239   4.052   7.236  2.3450  0.5747  0.1232
   75SLPC   C38 6757   6.353   3.872   7.265 -0.4307  0.6965  0.1762
   75SLPC   H8X 6758   6.434   3.943   7.294  0.1769  0.1336 -0.1204
   75SLPC   H8Y 6759   6.394   3.796   7.196 -1.6494  0.1188  0.0765
   75SLPC   C39 6760   6.285   3.810   7.383 -0.4333  0.7410 -0.3447
   75SLPC   H9X 6761   6.204   3.743   7.345 -0.8285  0.6990  0.5657
   75SLPC   H9Y 6762   6.237   3.887   7.446  0.2438 -0.5631  1.8106
   75SLPC  C310 6763   6.377   3.730   7.473 -1.0544  0.6107 -0.4840
   75SLPC  H10X 6764   6.461   3.685   7.416 -0.6548 -1.6528  1.8019
   75SLPC  H10Y 6765   6.324   3.635   7.496  2.3671 -1.2059  0.2949
   75SLPC  C311 6766   6.433   3.792   7.597 -0.1933 -0.0656 -0.2890
   75SLPC  H11X 6767   6.464   3.893   7.564  2.2646 -0.8217 -0.3652
   75SLPC  H11Y 6768   6.528   3.739   7.620 -0.6008  0.8317  3.7620
   75SLPC  C312 6769   6.345   3.782   7.723 -0.1828  0.2341  0.2958
   75SLPC  H12X 6770   6.308   3.678   7.732 -0.8596  0.3307 -1.1966
   75SLPC  H12Y 6771   6.264   3.857   7.713 -0.2474  0.0278 -0.7788
   75SLPC  C313 6772   6.435   3.810   7.845 -0.3471  0.2440  0.5367
   75SLPC  H13X 6773   6.493   3.904   7.831 -0.8243  0.4416 -0.1872
   75SLPC  H13Y 6774   6.501   3.721   7.847  0.2436  0.6638 -0.0709
   75SLPC  C314 6775   6.363   3.811   7.979  0.5503 -0.5753  0.3042
   75SLPC  H14X 6776   6.288   3.730   7.994  0.9398 -0.6474  1.9758
   75SLPC  H14Y 6777   6.311   3.908   7.998  1.4291  0.0163 -0.2716
   75SLPC  C315 6778   6.454   3.790   8.107  0.3201 -0.0827 -0.2869
   75SLPC  H15X 6779   6.535   3.866   8.099  2.0108 -2.0953 -3.6937
   75SLPC  H15Y 6780   6.505   3.692   8.093 -1.0764 -0.9482  0.5886
   75SLPC  C316 6781   6.385   3.809   8.242 -0.1304  0.3933 -0.1215
   75SLPC  H16X 6782   6.338   3.712   8.270  0.3849 -0.3570 -1.8573
   75SLPC  H16Y 6783   6.301   3.878   8.217  1.2903  0.6808 -4.4959
   75SLPC  C317 6784   6.478   3.863   8.358  0.6330  0.0992 -0.0932
   75SLPC  H17X 6785   6.489   3.970   8.331 -0.2324  0.3113  0.3852
   75SLPC  H17Y 6786   6.580   3.820   8.367  0.0688 -0.8152  2.2850
   75SLPC  C318 6787   6.419   3.848   8.496 -0.0800 -0.2274 -0.3187
   75SLPC  H18X 6788   6.385   3.743   8.511  0.6944 -0.1457  2.2918
   75SLPC  H18Y 6789   6.330   3.914   8.507  0.9247  1.1428 -0.4079
   75SLPC  H18Z 6790   6.495   3.863   8.576  0.9694  0.2416 -1.4007
   76SLPC     N 6791   1.326   3.307   6.102 -0.5652 -0.3235 -0.0080
   76SLPC   C13 6792   1.213   3.233   6.168  0.3108  0.2541  0.1461
   76SLPC  H13A 6793   1.135   3.192   6.106 -0.6669  2.2223  0.0498
   76SLPC  H13B 6794   1.248   3.146   6.221 -0.9534 -1.6209 -2.0056
   76SLPC  H13C 6795   1.161   3.301   6.234  1.1020  0.5118  0.5060
   76SLPC   C14 6796   1.277   3.417   6.016  0.0562  0.2393  0.6551
   76SLPC  H14A 6797   1.214   3.480   6.077  0.7821  0.0343  1.6173
   76SLPC  H14B 6798   1.359   3.480   5.983 -0.2796  0.9863  1.2386
   76SLPC  H14C 6799   1.225   3.371   5.934  0.4127 -0.4295  0.7989
   76SLPC   C15 6800   1.396   3.210   6.021  0.1751  0.5583 -0.0085
   76SLPC  H15A 6801   1.416   3.121   6.080  1.5488 -0.5237 -2.0317
   76SLPC  H15B 6802   1.343   3.176   5.934  0.1017 -0.9050  0.5751
   76SLPC  H15C 6803   1.494   3.246   5.995  1.4465 -3.3199 -0.9623
   76SLPC   C12 6804   1.413   3.359   6.209 -0.0715  0.3989  0.3427
   76SLPC  H12A 6805   1.453   3.282   6.274  0.2534 -0.0242 -0.3587
   76SLPC  H12B 6806   1.354   3.419   6.277  0.2683 -1.5494  2.4235
   76SLPC   C11 6807   1.537   3.430   6.157 -0.3571  0.2364 -0.4857
   76SLPC  H11A 6808   1.571   3.501   6.235 -2.4689 -0.6336  1.2732
   76SLPC  H11B 6809   1.524   3.497   6.069  1.4245 -0.3840 -1.2584
   76SLPC     P 6810   1.714   3.251   6.249  0.3804  0.2478 -0.0585
   76SLPC   O13 6811   1.607   3.168   6.309  0.6739  0.4006  0.1534
   76SLPC   O14 6812   1.819   3.175   6.175 -0.5318  0.0833  0.4222
   76SLPC   O12 6813   1.647   3.344   6.137  0.3101 -0.3636 -0.4487
   76SLPC   O11 6814   1.776   3.350   6.354  0.6077 -0.3793 -0.7783
   76SLPC    C1 6815   1.910   3.328   6.411  0.1361  0.5283  0.4583
   76SLPC    HA 6816   1.981   3.272   6.346 -1.3230 -1.4642  0.5172
   76SLPC    HB 6817   1.957   3.423   6.443 -0.1939 -0.2374  3.3983
   76SLPC    C2 6818   1.903   3.230   6.533  0.4699 -0.6240 -0.2501
   76SLPC    HS 6819   1.879   3.133   6.485 -2.4125 -0.1227  0.1125
   76SLPC   O21 6820   1.796   3.273   6.623 -0.2581 -0.6337  0.4807
   76SLPC   C21 6821   1.729   3.176   6.686  0.1390  0.2723  0.5720
   76SLPC   O22 6822   1.754   3.059   6.657 -0.3165 -0.0884 -0.3473
   76SLPC   C22 6823   1.624   3.230   6.780  0.5847  0.4245  0.9231
   76SLPC   H2R 6824   1.666   3.322   6.826 -1.4816  2.2123 -0.6318
   76SLPC   H2S 6825   1.538   3.264   6.717  2.4434  1.6791 -1.0082
   76SLPC    C3 6826   2.040   3.209   6.605  0.4206 -0.0946  0.4006
   76SLPC    HX 6827   2.078   3.293   6.667 -1.0676  1.8886 -1.2925
   76SLPC    HY 6828   2.114   3.196   6.522 -0.9766  0.3320 -0.9436
   76SLPC   O31 6829   2.035   3.094   6.693 -0.4413  0.6145  0.2706
   76SLPC   C31 6830   2.064   2.975   6.643 -0.0000  0.3518 -0.2801
   76SLPC   O32 6831   2.115   2.946   6.533 -0.2696 -0.4029 -0.0841
   76SLPC   C32 6832   2.023   2.869   6.747  0.7199  0.4968 -0.9398
   76SLPC   H2X 6833   1.912   2.855   6.744  0.8719 -0.6277 -1.4385
   76SLPC   H2Y 6834   2.023   2.921   6.846  0.2974 -1.2843  0.0189
   76SLPC   C23 6835   1.578   3.123   6.879 -0.5540  0.2772 -0.0138
   76SLPC   H3R 6836   1.539   3.033   6.827  1.1554 -0.0783 -0.6986
   76SLPC   H3S 6837   1.499   3.158   6.948 -1.0021  1.8286 -1.2944
   76SLPC   C24 6838   1.687   3.090   6.983  0.2859  0.0025  0.1815
   76SLPC   H4R 6839   1.744   3.184   7.001 -0.3381  0.8548 -2.1183
   76SLPC   H4S 6840   1.763   3.025   6.936  0.2887  1.5559 -2.0347
   76SLPC   C25 6841   1.630   3.034   7.116 -0.2980  0.3269 -0.8371
   76SLPC   H5R 6842   1.580   2.936   7.100  1.1285 -0.1642 -2.4029
   76SLPC   H5S 6843   1.559   3.109   7.156  0.5617  0.8055 -0.1828
   76SLPC   C26 6844   1.744   3.021   7.219  0.0268 -0.7285 -0.3659
   76SLPC   H6R 6845   1.781   3.124   7.239  2.5214 -1.3561 -1.5118
   76SLPC   H6S 6846   1.824   2.956   7.178  0.2821  0.0390 -1.1142
   76SLPC   C27 6847   1.685   2.943   7.335 -0.2117 -0.0637 -0.1805
   76SLPC   H7R 6848   1.647   2.843   7.309  0.8468 -0.2929 -0.8558
   76SLPC   H7S 6849   1.603   3.006   7.377 -0.0386  0.1238 -0.1184
   76SLPC   C28 6850   1.769   2.910   7.458 -0.1671  0.2386  0.6644
   76SLPC   H8R 6851   1.698   2.862   7.529 -1.8917 -1.2824 -2.0121
   76SLPC   H8S 6852   1.839   2.826   7.441  0.8012  1.2971 -0.7212
   76SLPC   C29 6853   1.842   3.027   7.513 -0.2759 -0.0406  0.3079
   76SLPC   H9R 6854   1.917   3.061   7.440 -0.4258  1.3507  0.7804
   76SLPC  C210 6855   1.840   3.089   7.635  0.4366  0.1876  0.1873
   76SLPC  H10R 6856   1.908   3.175   7.652  1.1999  0.0500 -1.9942
   76SLPC  C211 6857   1.746   3.045   7.745  0.4226  0.2528  0.7330
   76SLPC  H11R 6858   1.657   3.008   7.691 -0.0429  2.0198  0.2582
   76SLPC  H11S 6859   1.714   3.134   7.804  0.9368  1.3026 -0.5358
   76SLPC  C212 6860   1.823   2.942   7.837 -0.2231 -0.1563 -0.5969
   76SLPC  H12R 6861   1.897   2.873   7.793  0.7065 -1.0794  2.3399
   76SLPC  C213 6862   1.809   2.932   7.970  0.1707 -0.0391  0.4644
   76SLPC  H13R 6863   1.868   2.861   8.029 -2.0450 -1.1328  1.4438
   76SLPC  C214 6864   1.712   3.022   8.049  0.0456  0.0878  0.1355
   76SLPC  H14R 6865   1.617   3.034   7.992  0.5799 -0.1290 -0.8159
   76SLPC  H14S 6866   1.749   3.127   8.057 -1.0723  0.4500  0.6511
   76SLPC  C215 6867   1.690   2.967   8.187  0.3870  0.6551 -0.7075
   76SLPC  H15R 6868   1.655   2.862   8.182 -1.0029  1.1240 -1.1836
   76SLPC  H15S 6869   1.618   3.025   8.249 -0.3647 -0.6059 -0.3740
   76SLPC  C216 6870   1.814   2.962   8.276 -0.4893  0.0880 -0.3818
   76SLPC  H16R 6871   1.872   3.056   8.273  2.0704 -1.4730 -1.8552
   76SLPC  H16S 6872   1.882   2.881   8.242  0.0998 -0.6254  2.3674
   76SLPC  C217 6873   1.767   2.932   8.413 -0.5998  0.0469  0.8119
   76SLPC  H17R 6874   1.713   2.835   8.411 -0.2053 -0.1743  0.7330
   76SLPC  H17S 6875   1.699   3.014   8.445 -1.4283  0.0113 -0.8389
   76SLPC  C218 6876   1.884   2.924   8.519  0.7566 -0.7261 -0.0875
   76SLPC  H18R 6877   1.967   2.860   8.483  1.1831 -1.1659  1.6492
   76SLPC  H18S 6878   1.854   2.879   8.615 -2.3722 -0.4552 -0.8794
   76SLPC  H18T 6879   1.922   3.023   8.551  0.1693 -0.2535 -0.8076
   76SLPC   C33 6880   2.098   2.732   6.747  0.3354  0.0652  0.4717
   76SLPC   H3X 6881   2.085   2.686   6.647  1.2615  3.1230 -1.1171
   76SLPC   H3Y 6882   2.057   2.663   6.824 -3.1423 -0.3266 -1.6222
   76SLPC   C34 6883   2.248   2.751   6.761 -0.0400 -0.0660  0.0794
   76SLPC   H4X 6884   2.297   2.813   6.683  0.1744 -0.5034 -0.1386
   76SLPC   H4Y 6885   2.288   2.648   6.771  0.3887 -0.0944 -1.7562
   76SLPC   C35 6886   2.277   2.818   6.897 -0.7117  0.6411 -0.4757
   76SLPC   H5X 6887   2.220   2.776   6.983  0.7692  3.9090  2.2212
   76SLPC   H5Y 6888   2.252   2.925   6.887  0.6137  0.7655 -2.6105
   76SLPC   C36 6889   2.425   2.808   6.937 -0.2876  0.9508 -0.0689
   76SLPC   H6X 6890   2.500   2.836   6.860  1.1983 -0.1185  0.9542
   76SLPC   H6Y 6891   2.457   2.704   6.958  0.1735  0.9479 -0.7907
   76SLPC   C37 6892   2.464   2.891   7.062 -0.3853  0.0856  0.1304
   76SLPC   H7X 6893   2.430   2.996   7.050 -1.5779 -0.3243 -0.1106
   76SLPC   H7Y 6894   2.575   2.884   7.069 -0.3547  0.7924  0.3365
   76SLPC   C38 6895   2.400   2.833   7.188  0.6668  0.2521 -0.3638
   76SLPC   H8X 6896   2.400   2.724   7.208  0.4296  0.5948  1.6578
   76SLPC   H8Y 6897   2.290   2.851   7.187  0.5982 -0.1080 -3.1849
   76SLPC   C39 6898   2.447   2.904   7.319  0.0322 -0.8934  1.0341
   76SLPC   H9X 6899   2.419   3.011   7.313 -1.3363 -1.3478 -1.1540
   76SLPC   H9Y 6900   2.556   2.893   7.334 -0.2420 -2.5890  1.9450
   76SLPC  C310 6901   2.380   2.852   7.441 -0.3173 -0.5805  0.7023
   76SLPC  H10X 6902   2.409   2.745   7.449 -2.2933 -1.2950 -1.2699
   76SLPC  H10Y 6903   2.269   2.853   7.433 -0.4155  0.0217  1.9241
   76SLPC  C311 6904   2.421   2.937   7.560 -0.2239 -0.0814  0.1257
   76SLPC  H11X 6905   2.385   3.041   7.544  2.4031  1.0736  1.3366
   76SLPC  H11Y 6906   2.531   2.949   7.575 -0.1202  1.7371 -1.8350
   76SLPC  C312 6907   2.358   2.891   7.696  0.0399  0.7406  0.9548
   76SLPC  H12X 6908   2.396   2.794   7.732 -2.7698 -0.5176  0.6728
   76SLPC  H12Y 6909   2.251   2.876   7.671 -0.0622 -1.0851  2.4357
   76SLPC  C313 6910   2.358   2.985   7.808  0.6797  0.1568 -0.3172
   76SLPC  H13X 6911   2.307   3.075   7.769  3.0082  1.4243 -0.5441
   76SLPC  H13Y 6912   2.458   3.027   7.834  0.6005 -0.4635  1.0685
   76SLPC  C314 6913   2.282   2.937   7.931 -0.5727 -0.7125 -0.1432
   76SLPC  H14X 6914   2.188   2.886   7.900  0.0814 -3.8622  2.7337
   76SLPC  H14Y 6915   2.251   3.024   7.992  0.3140 -0.3601 -0.1839
   76SLPC  C315 6916   2.360   2.825   8.009 -0.4782 -0.3976 -0.7050
   76SLPC  H15X 6917   2.462   2.859   8.036 -2.1395  2.3322  2.5417
   76SLPC  H15Y 6918   2.367   2.736   7.943  3.1942  0.3318 -1.3892
   76SLPC  C316 6919   2.289   2.795   8.148 -0.0665 -0.3366 -0.2272
   76SLPC  H16X 6920   2.272   2.890   8.203  3.8002 -0.3020  1.0798
   76SLPC  H16Y 6921   2.367   2.748   8.212  2.4484  1.0363 -2.1930
   76SLPC  C317 6922   2.166   2.705   8.143 -0.3983 -0.3896  0.0770
   76SLPC  H17X 6923   2.190   2.623   8.072  0.7492 -0.0826  0.0965
   76SLPC  H17Y 6924   2.079   2.758   8.100  1.1232  1.2005 -1.0861
   76SLPC  C318 6925   2.116   2.657   8.280  0.1751 -0.5008 -0.3277
   76SLPC  H18X 6926   2.187   2.581   8.321  1.7227  0.0346 -1.9410
   76SLPC  H18Y 6927   2.016   2.612   8.267  0.0699 -0.3309 -0.1025
   76SLPC  H18Z 6928   2.108   2.741   8.352  1.2771  0.4435 -1.2863
   77SLPC     N 6929   4.945   3.035   6.625 -0.2471 -0.3878 -0.0051
   77SLPC   C13 6930   4.834   2.936   6.632  0.1534 -0.3464  0.0052
   77SLPC  H13A 6931   4.742   2.982   6.664 -0.0955 -0.8531  0.0214
   77SLPC  H13B 6932   4.825   2.888   6.536  1.1501  0.4846 -0.5221
   77SLPC  H13C 6933   4.855   2.851   6.695 -1.5676  0.1515  1.2829
   77SLPC   C14 6934   4.974   3.083   6.764  0.9024 -0.0247  0.0838
   77SLPC  H14A 6935   4.977   2.994   6.826 -0.8895 -0.2234 -0.0732
   77SLPC  H14B 6936   5.076   3.117   6.759  1.0524 -0.5759 -0.9918
   77SLPC  H14C 6937   4.896   3.145   6.804  2.2573  1.4065  0.5323
   77SLPC   C15 6938   4.904   3.153   6.540 -0.2157  0.3064 -0.1486
   77SLPC  H15A 6939   4.836   3.213   6.598 -0.7050  0.7153 -1.1284
   77SLPC  H15B 6940   4.990   3.216   6.519  0.7510 -0.6708  0.8008
   77SLPC  H15C 6941   4.854   3.121   6.450 -0.3468 -0.3427  0.1577
   77SLPC   C12 6942   5.069   2.978   6.569 -0.4449  0.3459  0.4468
   77SLPC  H12A 6943   5.109   2.912   6.645  0.0907 -1.2336 -1.1794
   77SLPC  H12B 6944   5.145   3.055   6.568 -0.2905  0.1911  0.3147
   77SLPC   C11 6945   5.066   2.926   6.423 -0.0542 -0.0218  0.5460
   77SLPC  H11A 6946   5.172   2.905   6.397  0.2343 -0.7203  2.2109
   77SLPC  H11B 6947   5.022   3.008   6.361  0.9483  0.5498  0.5910
   77SLPC     P 6948   5.023   2.668   6.446  0.3123 -0.4276 -0.2423
   77SLPC   O13 6949   5.019   2.581   6.333  0.0587  0.0991 -0.0302
   77SLPC   O14 6950   5.144   2.676   6.529 -0.4778  0.2892  0.3154
   77SLPC   O12 6951   4.987   2.817   6.400  0.5509  0.2259  0.2731
   77SLPC   O11 6952   4.908   2.627   6.538 -0.7587 -0.3894  0.2562
   77SLPC    C1 6953   4.787   2.582   6.474  0.5144 -0.2549 -0.0548
   77SLPC    HA 6954   4.750   2.636   6.384 -0.5024  0.9259  1.0416
   77SLPC    HB 6955   4.801   2.475   6.449  2.0008 -0.1765  0.4215
   77SLPC    C2 6956   4.662   2.585   6.567  0.0789 -0.2927 -0.3973
   77SLPC    HS 6957   4.611   2.684   6.573  4.4790  2.0166  0.5144
   77SLPC   O21 6958   4.701   2.554   6.703 -0.5740  0.0373 -0.2300
   77SLPC   C21 6959   4.650   2.612   6.809 -0.1124 -0.0239  0.2972
   77SLPC   O22 6960   4.600   2.722   6.803  0.7271 -0.5962  0.3949
   77SLPC   C22 6961   4.697   2.546   6.937  0.4912 -0.2159  0.3138
   77SLPC   H2R 6962   4.764   2.461   6.912  1.8141  0.8106  0.3229
   77SLPC   H2S 6963   4.770   2.617   6.982  1.4651 -1.5483  0.8644
   77SLPC    C3 6964   4.555   2.478   6.522 -0.8672 -0.2944 -0.2055
   77SLPC    HX 6965   4.607   2.381   6.538  3.6190  1.8151 -1.2773
   77SLPC    HY 6966   4.525   2.471   6.415  1.6314 -0.7895 -0.9104
   77SLPC   O31 6967   4.436   2.480   6.610 -0.1699 -1.0358  0.0288
   77SLPC   C31 6968   4.354   2.581   6.591 -0.7115 -0.2320 -0.8857
   77SLPC   O32 6969   4.359   2.661   6.492 -0.2409  0.0255 -0.1758
   77SLPC   C32 6970   4.256   2.600   6.705  0.6516 -0.4579  0.3285
   77SLPC   H2X 6971   4.159   2.634   6.665  0.3452 -0.2023  1.2811
   77SLPC   H2Y 6972   4.292   2.685   6.766 -0.4778 -1.7328  2.8323
   77SLPC   C23 6973   4.591   2.504   7.039 -0.5709 -0.5639  0.2916
   77SLPC   H3R 6974   4.526   2.432   6.985 -0.8702 -0.5030  0.5648
   77SLPC   H3S 6975   4.530   2.594   7.065  0.0608 -0.7278  2.4209
   77SLPC   C24 6976   4.642   2.446   7.178 -0.2256 -0.6574  0.2816
   77SLPC   H4R 6977   4.719   2.514   7.220  0.8171 -1.4496 -0.3311
   77SLPC   H4S 6978   4.700   2.352   7.169 -0.7104 -0.8228 -1.4718
   77SLPC   C25 6979   4.534   2.434   7.280  0.1324  0.5712 -0.0196
   77SLPC   H5R 6980   4.437   2.396   7.241 -1.0756  2.5759  0.9426
   77SLPC   H5S 6981   4.515   2.534   7.323 -2.3162  0.0107  0.2711
   77SLPC   C26 6982   4.572   2.336   7.392  0.3383 -0.6521 -0.3804
   77SLPC   H6R 6983   4.673   2.368   7.424 -0.5590  0.8117  1.0752
   77SLPC   H6S 6984   4.565   2.231   7.355 -1.1155 -0.0025 -1.9709
   77SLPC   C27 6985   4.480   2.354   7.518  0.2052  0.7486 -0.2348
   77SLPC   H7R 6986   4.376   2.345   7.480  0.7418  0.2736 -1.5933
   77SLPC   H7S 6987   4.505   2.456   7.552 -1.1646  1.7440 -2.1616
   77SLPC   C28 6988   4.515   2.261   7.647 -0.5560  0.6452 -0.2781
   77SLPC   H8R 6989   4.496   2.159   7.605 -1.9998  0.0446  1.7910
   77SLPC   H8S 6990   4.442   2.275   7.730 -1.4679  1.0379 -1.1328
   77SLPC   C29 6991   4.663   2.280   7.683 -0.4771  0.4739 -0.5059
   77SLPC   H9R 6992   4.699   2.383   7.679 -0.6358  0.5129 -0.9790
   77SLPC  C210 6993   4.750   2.177   7.712  0.2036  0.5428  0.0531
   77SLPC  H10R 6994   4.858   2.198   7.718  0.4794 -0.1876 -1.9454
   77SLPC  C211 6995   4.717   2.031   7.700  0.0282  0.0657  0.4651
   77SLPC  H11R 6996   4.663   2.005   7.606 -0.3994  0.5647  0.5744
   77SLPC  H11S 6997   4.645   2.004   7.780 -2.1137  2.2585 -0.6668
   77SLPC  C212 6998   4.849   1.954   7.705 -0.4133  0.5244 -0.1813
   77SLPC  H12R 6999   4.897   1.928   7.609 -0.3648  0.9392 -0.2717
   77SLPC  C213 7000   4.917   1.938   7.818  0.6775 -0.3061  0.2146
   77SLPC  H13R 7001   5.025   1.913   7.816  1.0157  1.2324 -1.9605
   77SLPC  C214 7002   4.875   1.980   7.954 -0.1251 -0.6100  0.5712
   77SLPC  H14R 7003   4.769   2.013   7.957 -0.5991 -2.0355  0.0233
   77SLPC  H14S 7004   4.941   2.063   7.986 -0.9422  0.3188 -0.1187
   77SLPC  C215 7005   4.912   1.869   8.057 -0.0149 -0.3547 -0.1894
   77SLPC  H15R 7006   5.018   1.837   8.042  0.9691  1.9585  1.5310
   77SLPC  H15S 7007   4.846   1.780   8.049 -1.3538  0.7992 -2.2310
   77SLPC  C216 7008   4.912   1.916   8.203  0.9166  0.0229  0.4819
   77SLPC  H16R 7009   4.994   1.990   8.215  1.5326 -0.7678  1.3045
   77SLPC  H16S 7010   4.941   1.829   8.267 -2.5222 -0.7848  1.0428
   77SLPC  C217 7011   4.786   1.971   8.267  0.2292  0.0813  0.3546
   77SLPC  H17R 7012   4.702   1.898   8.276  2.0130 -2.0863 -0.1708
   77SLPC  H17S 7013   4.766   2.060   8.203 -0.2960 -1.9051 -2.3333
   77SLPC  C218 7014   4.803   2.038   8.401 -0.2675 -0.2737 -0.3585
   77SLPC  H18R 7015   4.899   2.092   8.391  0.2495 -1.0921  0.1270
   77SLPC  H18S 7016   4.833   1.964   8.478 -1.3364 -0.4814 -0.1324
   77SLPC  H18T 7017   4.724   2.098   8.450  0.4951 -1.9792  3.0713
   77SLPC   C33 7018   4.247   2.483   6.802  0.1403  0.1184  0.2426
   77SLPC   H3X 7019   4.347   2.488   6.851  0.3116 -0.6071 -0.0218
   77SLPC   H3Y 7020   4.230   2.390   6.743 -0.9432  0.6871 -0.3578
   77SLPC   C34 7021   4.138   2.505   6.907  0.5331 -1.2242 -0.7324
   77SLPC   H4X 7022   4.055   2.440   6.875 -0.0344 -1.2216  0.6974
   77SLPC   H4Y 7023   4.111   2.612   6.916  2.7121 -0.7928  1.3869
   77SLPC   C35 7024   4.179   2.448   7.044  0.0213  0.6333  0.1573
   77SLPC   H5X 7025   4.276   2.489   7.079  2.3892 -1.4644 -3.5361
   77SLPC   H5Y 7026   4.197   2.339   7.034  1.4464  0.7925  0.7821
   77SLPC   C36 7027   4.078   2.472   7.155  0.8081 -0.5549  0.0363
   77SLPC   H6X 7028   3.987   2.425   7.112  2.2342 -1.7045 -1.8259
   77SLPC   H6Y 7029   4.062   2.581   7.167  2.2138 -0.5350  1.9070
   77SLPC   C37 7030   4.112   2.412   7.291  0.7786 -0.0171  0.2146
   77SLPC   H7X 7031   4.200   2.466   7.333  0.7627  2.6252 -2.9441
   77SLPC   H7Y 7032   4.123   2.302   7.280  0.3945 -0.0726  0.3979
   77SLPC   C38 7033   4.006   2.437   7.400  0.7282  0.5881 -0.5547
   77SLPC   H8X 7034   3.909   2.388   7.374  0.7756  0.4304 -0.4343
   77SLPC   H8Y 7035   3.997   2.546   7.415 -1.2013  0.5192 -1.0873
   77SLPC   C39 7036   4.037   2.388   7.541 -0.2632  0.6799  0.2151
   77SLPC   H9X 7037   3.955   2.428   7.604  2.4630  2.3220  2.8640
   77SLPC   H9Y 7038   4.137   2.435   7.559 -0.2978  0.3663  1.2579
   77SLPC  C310 7039   4.055   2.230   7.549 -0.0355  0.2413  0.2896
   77SLPC  H10X 7040   4.120   2.195   7.466  0.5432  1.5920  0.1602
   77SLPC  H10Y 7041   3.955   2.181   7.542 -0.2822  0.5399  1.5613
   77SLPC  C311 7042   4.125   2.184   7.684  0.5311 -0.4781  0.0097
   77SLPC  H11X 7043   4.052   2.175   7.768  0.3839  1.7332  0.1367
   77SLPC  H11Y 7044   4.192   2.270   7.706 -0.8315  0.8312 -0.8202
   77SLPC  C312 7045   4.187   2.046   7.656  0.9978  1.0049 -0.2450
   77SLPC  H12X 7046   4.270   2.056   7.583  1.5895  4.4934  0.8147
   77SLPC  H12Y 7047   4.116   1.974   7.612  0.6641  2.0006 -1.3522
   77SLPC  C313 7048   4.230   1.985   7.787  0.6349  1.0313  0.0781
   77SLPC  H13X 7049   4.154   2.003   7.866 -0.6968  1.3434 -1.2557
   77SLPC  H13Y 7050   4.319   2.035   7.829  2.0180 -1.8291  0.6912
   77SLPC  C314 7051   4.274   1.838   7.767 -0.1676 -0.4487 -0.0596
   77SLPC  H14X 7052   4.333   1.831   7.672  2.6604  0.5771  1.5484
   77SLPC  H14Y 7053   4.186   1.774   7.748 -1.6001  1.2279  0.8364
   77SLPC  C315 7054   4.354   1.794   7.886  0.2434  0.3426  0.2618
   77SLPC  H15X 7055   4.279   1.783   7.967 -0.1271  0.4719 -0.0607
   77SLPC  H15Y 7056   4.419   1.879   7.914  1.7458 -0.3926 -0.9510
   77SLPC  C316 7057   4.428   1.662   7.862  0.2741 -0.7758 -0.2815
   77SLPC  H16X 7058   4.482   1.666   7.766  1.2254  1.0978  0.3228
   77SLPC  H16Y 7059   4.355   1.579   7.846  0.0677 -0.7013  0.2663
   77SLPC  C317 7060   4.531   1.620   7.956  0.1937 -0.8030  0.4754
   77SLPC  H17X 7061   4.613   1.695   7.949 -0.5291  0.0907  1.4239
   77SLPC  H17Y 7062   4.569   1.527   7.909  1.9257  0.0000  0.2643
   77SLPC  C318 7063   4.494   1.592   8.102 -0.2273  0.6188  0.5617
   77SLPC  H18X 7064   4.580   1.540   8.151  1.1496  1.1302 -1.2273
   77SLPC  H18Y 7065   4.397   1.540   8.114  0.0418  0.2680  1.3087
   77SLPC  H18Z 7066   4.474   1.687   8.155 -0.9576  0.1005  1.2210
   78SLPC     N 7067   6.724   3.509   6.468 -0.0748  0.1023  0.2717
   78SLPC   C13 7068   6.690   3.506   6.615  0.0355  0.5503 -0.3327
   78SLPC  H13A 7069   6.600   3.561   6.640  0.8187  1.5984  0.2492
   78SLPC  H13B 7070   6.685   3.403   6.645 -0.8052 -0.2364 -3.0531
   78SLPC  H13C 7071   6.773   3.548   6.671  0.7832 -0.9787 -0.2574
   78SLPC   C14 7072   6.864   3.454   6.449 -0.0029 -0.1977 -0.8026
   78SLPC  H14A 7073   6.884   3.356   6.488  1.4948  0.4783  0.1849
   78SLPC  H14B 7074   6.900   3.474   6.350  1.5699 -4.4463 -1.1894
   78SLPC  H14C 7075   6.928   3.510   6.516 -0.4150  0.7349 -1.1826
   78SLPC   C15 7076   6.718   3.646   6.419  0.6835 -0.3248 -0.6579
   78SLPC  H15A 7077   6.720   3.655   6.311 -0.2696  4.4801 -0.4017
   78SLPC  H15B 7078   6.620   3.691   6.426 -0.4134 -2.2388 -2.8440
   78SLPC  H15C 7079   6.800   3.713   6.440  0.2551 -0.0292  0.0950
   78SLPC   C12 7080   6.599   3.445   6.404 -0.0876 -0.6783  0.8775
   78SLPC  H12A 7081   6.617   3.443   6.298  3.4482  1.0320  1.3538
   78SLPC  H12B 7082   6.510   3.502   6.423 -0.0121 -0.8143  1.6831
   78SLPC   C11 7083   6.566   3.296   6.443 -0.0989  0.4278 -0.1258
   78SLPC  H11A 7084   6.495   3.252   6.370  2.4022 -0.6343 -1.9833
   78SLPC  H11B 7085   6.527   3.301   6.547 -0.6906  0.5251 -0.3535
   78SLPC     P 7086   6.737   3.126   6.325  0.1967 -0.0878 -0.1334
   78SLPC   O13 7087   6.694   3.189   6.196  0.0929 -0.6693 -0.0783
   78SLPC   O14 7088   6.877   3.085   6.338  0.5688  0.1384  0.0115
   78SLPC   O12 7089   6.687   3.224   6.440  0.4770  0.2706  0.1279
   78SLPC   O11 7090   6.638   3.000   6.340  0.1062 -0.1918 -0.3322
   78SLPC    C1 7091   6.678   2.897   6.440 -0.9857 -0.2347 -0.4048
   78SLPC    HA 7092   6.614   2.808   6.422  0.9574 -1.7672  0.1143
   78SLPC    HB 7093   6.783   2.864   6.430 -0.5954  1.0292 -0.4920
   78SLPC    C2 7094   6.652   2.940   6.586 -0.5660 -0.1904  0.2074
   78SLPC    HS 7095   6.562   3.003   6.573  0.7344  1.2160 -2.3322
   78SLPC   O21 7096   6.776   3.006   6.640  0.0023  0.8468 -0.2570
   78SLPC   C21 7097   6.751   3.107   6.711 -0.9047  0.2255 -0.0510
   78SLPC   O22 7098   6.645   3.157   6.739 -0.0648 -0.2622 -0.3972
   78SLPC   C22 7099   6.884   3.174   6.753 -0.3499  0.4553  0.3542
   78SLPC   H2R 7100   6.961   3.103   6.715 -2.3868 -0.5441 -2.0929
   78SLPC   H2S 7101   6.883   3.274   6.706 -0.2643  0.4782  0.4011
   78SLPC    C3 7102   6.617   2.816   6.671  0.0719  0.3663 -0.2140
   78SLPC    HX 7103   6.712   2.758   6.662 -0.5447 -0.7732  0.4696
   78SLPC    HY 7104   6.531   2.766   6.621  0.6984 -1.2272  0.2686
   78SLPC   O31 7105   6.606   2.840   6.812  0.2207 -0.1507 -0.3163
   78SLPC   C31 7106   6.493   2.843   6.872  0.7105  0.0326 -0.7578
   78SLPC   O32 7107   6.387   2.810   6.826  0.2387 -0.1266  0.3289
   78SLPC   C32 7108   6.512   2.900   7.016  0.3594  0.5640 -0.3099
   78SLPC   H2X 7109   6.572   2.992   6.999 -0.0638  1.0343  0.6707
   78SLPC   H2Y 7110   6.579   2.834   7.076 -0.6701 -0.6968 -0.5264
   78SLPC   C23 7111   6.906   3.182   6.904 -0.2700  0.2423 -0.5936
   78SLPC   H3R 7112   6.898   3.083   6.955  1.0557  0.4674  0.0836
   78SLPC   H3S 7113   6.834   3.254   6.948  0.3280  1.0291 -0.8870
   78SLPC   C24 7114   7.045   3.247   6.930 -0.1633 -0.5167 -0.0232
   78SLPC   H4R 7115   7.052   3.341   6.871  2.4460 -0.1274  0.8396
   78SLPC   H4S 7116   7.120   3.169   6.905 -1.4950 -1.3690 -1.4493
   78SLPC   C25 7117   7.057   3.280   7.080 -0.1539  0.2851 -1.2192
   78SLPC   H5R 7118   6.974   3.345   7.112 -1.7999 -2.3883  0.1271
   78SLPC   H5S 7119   7.155   3.328   7.101 -0.5763 -0.2172  2.0987
   78SLPC   C26 7120   7.058   3.149   7.166 -0.6085  0.6038 -0.3343
   78SLPC   H6R 7121   7.128   3.086   7.107 -1.6605  1.3270 -2.4212
   78SLPC   H6S 7122   6.957   3.103   7.172 -0.5085  0.5827  1.3837
   78SLPC   C27 7123   7.130   3.177   7.303  0.3889  0.9688  0.1043
   78SLPC   H7R 7124   7.232   3.219   7.284  0.5221 -0.1952 -1.8091
   78SLPC   H7S 7125   7.141   3.079   7.353 -1.7737  0.3486 -0.6101
   78SLPC   C28 7126   7.056   3.277   7.400  0.2491 -0.9472  0.6381
   78SLPC   H8R 7127   7.063   3.375   7.347  1.4920 -0.0726  2.3740
   78SLPC   H8S 7128   7.118   3.280   7.492 -2.0000  1.2814  2.1734
   78SLPC   C29 7129   6.911   3.236   7.424 -0.2750 -0.4049 -0.8741
   78SLPC   H9R 7130   6.844   3.241   7.337 -3.4752 -0.6388  1.4910
   78SLPC  C210 7131   6.871   3.217   7.547 -0.2105  0.2067  0.1382
   78SLPC  H10R 7132   6.762   3.213   7.559 -0.1957  1.7200  0.9274
   78SLPC  C211 7133   6.946   3.207   7.677  0.1100 -0.7106 -0.2861
   78SLPC  H11R 7134   6.924   3.295   7.741 -0.2188  0.4746 -2.0070
   78SLPC  H11S 7135   7.056   3.199   7.663  0.1678  0.0019 -0.2573
   78SLPC  C212 7136   6.911   3.078   7.749 -0.1973 -0.4805 -0.6803
   78SLPC  H12R 7137   6.905   2.977   7.707  0.6412 -1.2730  1.0656
   78SLPC  C213 7138   6.887   3.078   7.880 -0.7046 -0.1811 -1.1965
   78SLPC  H13R 7139   6.872   2.982   7.930  0.7768  0.1883 -0.0093
   78SLPC  C214 7140   6.891   3.201   7.970  0.1731  0.2786  0.2039
   78SLPC  H14R 7141   6.788   3.243   7.962  0.1790  0.2915  0.1984
   78SLPC  H14S 7142   6.974   3.271   7.947  0.5820 -0.6085 -1.0946
   78SLPC  C215 7143   6.902   3.163   8.125 -0.0717  0.8112 -0.1423
   78SLPC  H15R 7144   6.998   3.113   8.147 -0.8562 -0.8527 -0.3523
   78SLPC  H15S 7145   6.817   3.094   8.147  0.4850  0.2305  0.1827
   78SLPC  C216 7146   6.890   3.289   8.210 -0.5353  0.0028 -0.5172
   78SLPC  H16R 7147   6.840   3.371   8.153  0.8732  0.7885 -0.6430
   78SLPC  H16S 7148   6.992   3.332   8.219 -1.0112  0.6588  1.9051
   78SLPC  C217 7149   6.840   3.258   8.347 -0.2537 -0.6359 -0.2743
   78SLPC  H17R 7150   6.731   3.279   8.349  0.2436  2.0434  0.4480
   78SLPC  H17S 7151   6.885   3.341   8.407  1.0503 -0.6920 -1.1543
   78SLPC  C218 7152   6.895   3.131   8.416 -1.0089 -0.0683 -0.6321
   78SLPC  H18R 7153   7.005   3.139   8.427 -1.1491  2.4517 -0.6567
   78SLPC  H18S 7154   6.871   3.037   8.363  1.6384  0.1913 -2.4003
   78SLPC  H18T 7155   6.864   3.128   8.522 -0.9109 -1.1148 -0.6353
   78SLPC   C33 7156   6.382   2.925   7.096  0.4900  0.6887  0.0793
   78SLPC   H3X 7157   6.306   2.970   7.028  0.3292  1.9819  1.0869
   78SLPC   H3Y 7158   6.397   2.991   7.184 -1.0083  0.0222  0.8564
   78SLPC   C34 7159   6.323   2.789   7.145 -0.7542  0.1578  0.3326
   78SLPC   H4X 7160   6.407   2.723   7.175 -0.2024  0.7604  0.1340
   78SLPC   H4Y 7161   6.260   2.748   7.062  0.0808  0.5026 -0.4823
   78SLPC   C35 7162   6.228   2.811   7.262 -0.1941 -0.1200  0.3124
   78SLPC   H5X 7163   6.158   2.726   7.246  0.0304 -0.1766 -0.4136
   78SLPC   H5Y 7164   6.182   2.911   7.247 -0.0431 -0.2531 -1.0873
   78SLPC   C36 7165   6.296   2.810   7.399 -0.1501 -0.4535  0.2168
   78SLPC   H6X 7166   6.376   2.886   7.390  2.0638 -2.8372 -1.0042
   78SLPC   H6Y 7167   6.355   2.716   7.411  1.0088  0.4439  1.6233
   78SLPC   C37 7168   6.194   2.823   7.515  0.4540 -0.3843 -0.2720
   78SLPC   H7X 7169   6.130   2.734   7.497  0.3183 -0.8814  2.3996
   78SLPC   H7Y 7170   6.128   2.912   7.504  1.8260  0.6002 -0.5823
   78SLPC   C38 7171   6.249   2.821   7.658  0.0329 -0.8785 -0.5765
   78SLPC   H8X 7172   6.337   2.888   7.669 -0.6343  0.0581 -0.8125
   78SLPC   H8Y 7173   6.291   2.721   7.681 -0.3394 -0.4153  2.3465
   78SLPC   C39 7174   6.139   2.856   7.757  0.3937  0.1784 -0.7258
   78SLPC   H9X 7175   6.050   2.791   7.747  0.1247  0.3252  0.6724
   78SLPC   H9Y 7176   6.108   2.962   7.746  0.5130  0.2195 -0.6758
   78SLPC  C310 7177   6.192   2.847   7.906 -0.2746 -0.4366 -0.1633
   78SLPC  H10X 7178   6.295   2.889   7.898  0.7358 -2.8201 -0.2015
   78SLPC  H10Y 7179   6.198   2.738   7.926 -0.5183 -0.6393 -1.1400
   78SLPC  C311 7180   6.099   2.925   7.993  0.3015 -0.1780  0.6986
   78SLPC  H11X 7181   6.011   2.860   8.009  0.6051 -0.9854 -0.7904
   78SLPC  H11Y 7182   6.063   3.019   7.945 -0.3389 -0.5043  0.5387
   78SLPC  C312 7183   6.149   2.957   8.127  0.2076 -0.0771  0.1281
   78SLPC  H12X 7184   6.232   3.029   8.113  0.7121 -0.9262 -1.4016
   78SLPC  H12Y 7185   6.193   2.867   8.174  2.0215  0.3106 -0.7735
   78SLPC  C313 7186   6.053   3.021   8.225 -0.2049 -0.0879 -0.6240
   78SLPC  H13X 7187   5.988   2.932   8.239 -2.5895  1.6936  0.0290
   78SLPC  H13Y 7188   5.993   3.101   8.176  1.2912 -0.3160 -2.9067
   78SLPC  C314 7189   6.111   3.068   8.353  0.2160  0.2154  0.0959
   78SLPC  H14X 7190   6.188   3.143   8.322  1.9740 -1.4709  0.3011
   78SLPC  H14Y 7191   6.154   2.981   8.406 -0.4161  0.0976  0.4084
   78SLPC  C315 7192   6.003   3.135   8.445  0.4906  0.2198 -0.7948
   78SLPC  H15X 7193   5.908   3.078   8.444  1.5602 -1.6400  0.6676
   78SLPC  H15Y 7194   5.974   3.238   8.417 -1.3572 -0.1404 -0.2687
   78SLPC  C316 7195   6.049   3.142   8.592 -0.1337  0.2500  1.3538
   78SLPC  H16X 7196   6.150   3.188   8.588 -0.7266  1.4586 -0.5977
   78SLPC  H16Y 7197   6.054   3.045   8.646  0.3696  0.3494  1.4833
   78SLPC  C317 7198   5.966   3.239   8.678 -0.5146  0.0342 -0.1621
   78SLPC  H17X 7199   5.863   3.199   8.688 -0.1987 -1.0259 -0.9899
   78SLPC  H17Y 7200   5.959   3.340   8.632 -0.4189  0.1132 -0.0052
   78SLPC  C318 7201   6.020   3.241   8.825  0.5689  0.1758  0.0668
   78SLPC  H18X 7202   6.090   3.326   8.840  1.4914 -0.3325 -1.2596
   78SLPC  H18Y 7203   6.076   3.151   8.858 -0.0699  0.5871  2.4214
   78SLPC  H18Z 7204   5.932   3.246   8.893  0.4763  0.0733 -0.0456
   79SLPC     N 7205   4.071   4.973   6.315 -0.2833  0.3026  0.4789
   79SLPC   C13 7206   4.216   5.002   6.352 -0.1572 -0.2667 -0.4430
   79SLPC  H13A 7207   4.217   5.109   6.347  2.1933 -0.2229  0.3968
   79SLPC  H13B 7208   4.244   4.964   6.450 -0.0190  1.9390  0.3849
   79SLPC  H13C 7209   4.285   4.973   6.274  0.8034  2.8801 -0.8170
   79SLPC   C14 7210   4.049   4.823   6.317 -0.2087 -0.2871  0.1213
   79SLPC  H14A 7211   4.103   4.771   6.240 -1.9793 -3.8153  1.1408
   79SLPC  H14B 7212   4.082   4.782   6.412  0.0573  1.7494  0.9354
   79SLPC  H14C 7213   3.944   4.799   6.302 -0.4162 -1.0516  2.5612
   79SLPC   C15 7214   4.046   5.029   6.178 -0.4269  0.0603  0.2317
   79SLPC  H15A 7215   4.040   5.136   6.166 -3.0883 -0.1289 -0.5533
   79SLPC  H15B 7216   4.124   4.989   6.116 -0.3562 -0.2730  0.5288
   79SLPC  H15C 7217   3.951   4.995   6.138 -1.0718  0.8945  1.0099
   79SLPC   C12 7218   3.978   5.037   6.415  0.2703 -0.3248  0.0027
   79SLPC  H12A 7219   3.974   4.975   6.503 -0.8259  1.0368  0.9330
   79SLPC  H12B 7220   3.879   5.033   6.372  0.0917  0.2235  0.3572
   79SLPC   C11 7221   4.004   5.181   6.466  0.5423 -0.2012 -0.0935
   79SLPC  H11A 7222   4.086   5.175   6.541 -2.2678  0.0584  3.1517
   79SLPC  H11B 7223   3.919   5.221   6.525  0.9656  2.5356 -1.2642
   79SLPC     P 7224   3.957   5.391   6.317 -0.2055  0.2280 -0.1667
   79SLPC   O13 7225   4.036   5.503   6.274  0.2345  0.6330  0.2443
   79SLPC   O14 7226   3.855   5.338   6.223  0.2931  0.0290 -0.0536
   79SLPC   O12 7227   4.044   5.274   6.364  0.5189 -0.4287 -0.3556
   79SLPC   O11 7228   3.887   5.443   6.448 -0.7304 -0.5424 -0.4664
   79SLPC    C1 7229   3.959   5.512   6.554  0.0331 -0.0454 -0.3407
   79SLPC    HA 7230   3.986   5.447   6.640 -2.1450  1.3306  1.4324
   79SLPC    HB 7231   4.051   5.565   6.521  0.6459  1.3604  3.4406
   79SLPC    C2 7232   3.861   5.618   6.617 -0.8441 -0.2385  0.0452
   79SLPC    HS 7233   3.829   5.681   6.532  0.5327  0.3226 -0.0739
   79SLPC   O21 7234   3.936   5.688   6.713 -0.3468  0.1637  0.3429
   79SLPC   C21 7235   3.937   5.822   6.708 -0.0373 -0.2660  0.5487
   79SLPC   O22 7236   3.878   5.895   6.634 -0.4978  0.7606 -0.3115
   79SLPC   C22 7237   4.013   5.879   6.834  0.6494 -0.3004 -0.1212
   79SLPC   H2R 7238   4.113   5.832   6.823  1.0174  1.0723 -3.1209
   79SLPC   H2S 7239   4.037   5.985   6.812 -2.1915  0.0223 -1.8530
   79SLPC    C3 7240   3.736   5.544   6.680 -0.5255 -0.4157 -0.6940
   79SLPC    HX 7241   3.673   5.510   6.595 -2.6359  0.5595  0.4472
   79SLPC    HY 7242   3.678   5.610   6.748  1.8528  0.3974  0.5888
   79SLPC   O31 7243   3.787   5.441   6.773 -0.1520 -0.3014  0.2187
   79SLPC   C31 7244   3.739   5.323   6.759  0.2710  0.1723  0.2085
   79SLPC   O32 7245   3.651   5.290   6.679 -0.1083 -0.3127  0.0923
   79SLPC   C32 7246   3.824   5.228   6.841  0.2251  0.1368 -0.4739
   79SLPC   H2X 7247   3.872   5.290   6.921 -2.4223  0.9438  0.5376
   79SLPC   H2Y 7248   3.900   5.184   6.774 -0.6441 -0.5462 -1.0174
   79SLPC   C23 7249   3.936   5.859   6.966 -0.2136  0.1107  0.1554
   79SLPC   H3R 7250   3.876   5.766   6.953 -0.8458  0.0956  2.9892
   79SLPC   H3S 7251   3.859   5.935   6.988  0.7324  0.8900  0.7744
   79SLPC   C24 7252   4.025   5.844   7.094 -0.0780 -0.7682 -0.2073
   79SLPC   H4R 7253   4.112   5.911   7.106 -0.1339 -0.3384 -1.9932
   79SLPC   H4S 7254   4.077   5.747   7.084 -1.4004 -1.4022 -1.1987
   79SLPC   C25 7255   3.931   5.864   7.222 -0.6263 -0.3971  1.0447
   79SLPC   H5R 7256   3.856   5.783   7.211 -0.4469 -0.3611 -0.5855
   79SLPC   H5S 7257   3.874   5.958   7.229  0.2218  0.2765 -0.7701
   79SLPC   C26 7258   4.013   5.861   7.348  0.8757  0.2656  0.2890
   79SLPC   H6R 7259   4.087   5.943   7.353 -0.9777  1.9569  0.5884
   79SLPC   H6S 7260   4.052   5.757   7.360  0.2236 -0.0677 -0.4512
   79SLPC   C27 7261   3.923   5.882   7.468 -0.4557 -0.0185 -0.7030
   79SLPC   H7R 7262   3.861   5.791   7.482  0.9800 -0.7554  0.9741
   79SLPC   H7S 7263   3.854   5.969   7.457 -0.2256  0.6890  2.7471
   79SLPC   C28 7264   4.009   5.916   7.594 -0.1361  0.5129 -0.0871
   79SLPC   H8R 7265   4.049   6.020   7.587  0.5269  0.3819  1.6713
   79SLPC   H8S 7266   4.092   5.843   7.599 -0.2108  0.4952  0.9116
   79SLPC   C29 7267   3.926   5.928   7.720 -0.2744 -0.5213  1.0283
   79SLPC   H9R 7268   3.842   5.999   7.717 -1.8357 -2.2408  2.6201
   79SLPC  C210 7269   3.934   5.858   7.831 -0.3180  0.1525  0.0949
   79SLPC  H10R 7270   3.856   5.884   7.905  1.2959 -0.7819  2.1675
   79SLPC  C211 7271   4.035   5.754   7.863 -0.5387 -0.0922 -0.0629
   79SLPC  H11R 7272   4.057   5.770   7.971  0.1607  3.1169 -0.6156
   79SLPC  H11S 7273   4.132   5.749   7.809 -0.6690  0.0249 -0.3096
   79SLPC  C212 7274   3.971   5.622   7.840 -0.5565  0.0355 -0.1392
   79SLPC  H12R 7275   3.939   5.599   7.737 -0.1088  2.8947 -0.9689
   79SLPC  C213 7276   3.939   5.524   7.926  0.0621 -0.0853 -0.3835
   79SLPC  H13R 7277   3.900   5.431   7.883  1.2644 -1.0719  0.6205
   79SLPC  C214 7278   3.957   5.526   8.072 -0.3961  0.1947 -0.1168
   79SLPC  H14R 7279   4.027   5.608   8.099 -0.3361 -0.6817  2.4848
   79SLPC  H14S 7280   4.016   5.438   8.103  2.6702  2.4439  0.6696
   79SLPC  C215 7281   3.837   5.536   8.172 -0.5183 -0.0962  0.0113
   79SLPC  H15R 7282   3.789   5.635   8.161  2.2940  1.5190  1.4826
   79SLPC  H15S 7283   3.879   5.537   8.276 -2.7927 -0.3673  0.9518
   79SLPC  C216 7284   3.735   5.420   8.155  0.5334  0.7039  1.0694
   79SLPC  H16R 7285   3.792   5.325   8.152 -0.6934  0.0145 -3.1966
   79SLPC  H16S 7286   3.689   5.440   8.056 -0.8039  4.2782  2.3500
   79SLPC  C217 7287   3.621   5.418   8.255 -0.7395 -0.0894 -0.3442
   79SLPC  H17R 7288   3.596   5.525   8.273 -1.9087 -0.2500 -1.0028
   79SLPC  H17S 7289   3.658   5.396   8.358 -0.5692  0.4477 -0.2873
   79SLPC  C218 7290   3.509   5.330   8.223  0.0801  0.5788  0.4981
   79SLPC  H18R 7291   3.429   5.332   8.300 -0.8012  1.9257 -0.4312
   79SLPC  H18S 7292   3.540   5.227   8.198 -0.5532  0.5378 -0.1268
   79SLPC  H18T 7293   3.462   5.364   8.128 -2.4712  0.5661  1.7425
   79SLPC   C33 7294   3.734   5.124   6.917 -0.4332  0.2242 -0.7479
   79SLPC   H3X 7295   3.688   5.068   6.833  2.3630 -1.3119 -1.3477
   79SLPC   H3Y 7296   3.661   5.169   6.987  0.6597 -0.8979  1.1748
   79SLPC   C34 7297   3.810   5.023   7.004 -0.2211 -0.0155 -0.0635
   79SLPC   H4X 7298   3.907   4.994   6.958 -0.2737  1.3886 -1.0758
   79SLPC   H4Y 7299   3.757   4.928   7.026 -0.1210  0.0292  0.3897
   79SLPC   C35 7300   3.862   5.095   7.130 -0.4429  0.8825 -0.3719
   79SLPC   H5X 7301   3.777   5.117   7.198 -2.0123 -4.2473 -0.4559
   79SLPC   H5Y 7302   3.926   5.180   7.098 -0.4554  1.7604  1.8843
   79SLPC   C36 7303   3.965   5.009   7.213  0.2237 -0.4862  0.0710
   79SLPC   H6X 7304   4.036   4.965   7.140 -0.4316 -1.3923 -0.0208
   79SLPC   H6Y 7305   3.916   4.923   7.264  0.2952 -0.6626 -0.1633
   79SLPC   C37 7306   4.043   5.081   7.326  0.3187  0.3985 -0.2342
   79SLPC   H7X 7307   3.965   5.133   7.387 -0.5862  1.4385 -2.2232
   79SLPC   H7Y 7308   4.122   5.151   7.292  0.7827  0.2542  0.5308
   79SLPC   C38 7309   4.105   4.972   7.420 -0.5743 -0.0299 -0.8516
   79SLPC   H8X 7310   4.209   4.946   7.391 -0.3268 -1.0986  0.9026
   79SLPC   H8Y 7311   4.049   4.877   7.411 -3.5115  1.4300  1.0737
   79SLPC   C39 7312   4.111   5.021   7.567 -0.6005  1.2252 -0.5750
   79SLPC   H9X 7313   4.006   5.007   7.599 -0.2453  0.4696  0.2820
   79SLPC   H9Y 7314   4.146   5.126   7.559  2.1905  0.2510 -2.0008
   79SLPC  C310 7315   4.190   4.950   7.669 -0.1697  0.0255 -0.6732
   79SLPC  H10X 7316   4.300   4.957   7.653 -0.1470  2.4823  0.3974
   79SLPC  H10Y 7317   4.171   4.841   7.658 -0.0352 -0.3732  2.6066
   79SLPC  C311 7318   4.171   5.000   7.819 -0.3746 -0.1813  0.5268
   79SLPC  H11X 7319   4.231   4.937   7.889 -0.3089  0.9067  1.4642
   79SLPC  H11Y 7320   4.065   4.979   7.846 -0.2008 -1.4557  0.2465
   79SLPC  C312 7321   4.203   5.144   7.846 -0.0505 -0.4561 -0.3070
   79SLPC  H12X 7322   4.159   5.213   7.771  0.8593 -0.0058 -0.4271
   79SLPC  H12Y 7323   4.313   5.148   7.839 -0.0198  0.7377  0.8356
   79SLPC  C313 7324   4.154   5.189   7.981  0.2403 -0.2337  0.9546
   79SLPC  H13X 7325   4.044   5.178   7.991  0.0757  0.5836  0.1153
   79SLPC  H13Y 7326   4.172   5.297   8.000  0.3170 -0.0996  0.1235
   79SLPC  C314 7327   4.220   5.116   8.093 -0.7664  0.2195 -0.4158
   79SLPC  H14X 7328   4.330   5.118   8.078 -0.9160 -1.2179 -1.7794
   79SLPC  H14Y 7329   4.200   5.007   8.091 -2.1628  0.4162  1.1483
   79SLPC  C315 7330   4.190   5.171   8.233 -0.4432  0.0574 -0.8811
   79SLPC  H15X 7331   4.089   5.136   8.262 -1.6897  2.2578 -2.4484
   79SLPC  H15Y 7332   4.188   5.283   8.232 -2.2855  0.0777  0.7749
   79SLPC  C316 7333   4.296   5.125   8.336 -0.3440  0.1883 -0.2855
   79SLPC  H16X 7334   4.299   5.014   8.343  0.7442  0.2623  0.4559
   79SLPC  H16Y 7335   4.267   5.171   8.433  0.5572  1.6346 -0.6972
   79SLPC  C317 7336   4.442   5.156   8.304  0.6525  0.2136  0.3327
   79SLPC  H17X 7337   4.444   5.251   8.246  0.9772  0.2711  0.4383
   79SLPC  H17Y 7338   4.468   5.082   8.225 -2.0192  0.0476 -0.4309
   79SLPC  C318 7339   4.538   5.148   8.423 -0.0873  0.5747 -0.1247
   79SLPC  H18X 7340   4.494   5.210   8.503  0.3490 -0.5204  0.9783
   79SLPC  H18Y 7341   4.638   5.190   8.396  0.6166  0.3517  2.0694
   79SLPC  H18Z 7342   4.554   5.041   8.448  1.6367  1.2179  1.6820
   80SLPC     N 7343   5.518   2.955   6.398  0.2727 -0.1086 -0.0773
   80SLPC   C13 7344   5.533   3.040   6.514 -0.1251 -0.7769  0.7397
   80SLPC  H13A 7345   5.438   3.089   6.529  0.7554  1.2979 -0.3005
   80SLPC  H13B 7346   5.560   2.994   6.608  1.7002  2.9690  2.1242
   80SLPC  H13C 7347   5.601   3.119   6.487 -0.4833 -0.3681  1.0325
   80SLPC   C14 7348   5.454   3.030   6.279 -0.3844 -0.1544  0.1914
   80SLPC  H14A 7349   5.347   3.041   6.290 -0.7293  1.0352 -3.6080
   80SLPC  H14B 7350   5.503   3.125   6.265  0.4070 -0.3443  1.5988
   80SLPC  H14C 7351   5.471   2.984   6.183 -0.8999 -2.0969  0.9877
   80SLPC   C15 7352   5.434   2.836   6.427 -0.2726  0.6699 -0.3606
   80SLPC  H15A 7353   5.393   2.796   6.336  2.6960 -0.1818 -1.3764
   80SLPC  H15B 7354   5.505   2.759   6.454 -0.5060 -0.2094 -2.2171
   80SLPC  H15C 7355   5.363   2.854   6.507  2.2323  0.1109  2.0973
   80SLPC   C12 7356   5.661   2.906   6.365 -0.0537 -0.3751  0.0817
   80SLPC  H12A 7357   5.664   2.826   6.292 -1.5623 -0.4469  0.0809
   80SLPC  H12B 7358   5.689   2.862   6.459 -0.3671  1.5156  1.0799
   80SLPC   C11 7359   5.765   3.009   6.319 -0.6939 -0.0755 -0.6022
   80SLPC  H11A 7360   5.725   3.041   6.220  2.1143  3.4414 -0.7055
   80SLPC  H11B 7361   5.857   2.949   6.302  0.8512  1.4871  1.9866
   80SLPC     P 7362   5.893   3.228   6.370  0.0485  0.0383  0.1707
   80SLPC   O13 7363   6.030   3.167   6.388  1.0032  0.2965 -0.1077
   80SLPC   O14 7364   5.855   3.301   6.248  0.6937  0.3032  0.7324
   80SLPC   O12 7365   5.785   3.122   6.404  0.2810  0.2235 -0.3012
   80SLPC   O11 7366   5.872   3.326   6.496  0.3852 -0.1001  0.0454
   80SLPC    C1 7367   5.886   3.276   6.632  0.7597 -0.8223  0.0560
   80SLPC    HA 7368   5.904   3.167   6.637  2.4922 -0.5833 -0.5823
   80SLPC    HB 7369   5.974   3.325   6.679  0.7489  0.0006 -0.7726
   80SLPC    C2 7370   5.766   3.304   6.729 -0.5059  0.5728 -1.1909
   80SLPC    HS 7371   5.696   3.229   6.687  0.7169 -1.2466  0.0050
   80SLPC   O21 7372   5.730   3.440   6.717 -0.7764 -0.2754 -0.0759
   80SLPC   C21 7373   5.600   3.470   6.708  0.1493 -0.1660 -0.5287
   80SLPC   O22 7374   5.509   3.387   6.700 -0.2494 -0.4882  0.4437
   80SLPC   C22 7375   5.581   3.623   6.714  0.0977  0.9176  0.1573
   80SLPC   H2R 7376   5.681   3.671   6.712  0.6850 -0.3490 -1.1037
   80SLPC   H2S 7377   5.524   3.652   6.623  0.3111 -2.5411 -1.1131
   80SLPC    C3 7378   5.783   3.269   6.887 -0.0277 -0.0513  0.1031
   80SLPC    HX 7379   5.864   3.338   6.921 -0.5046  0.7082 -0.2975
   80SLPC    HY 7380   5.806   3.161   6.888 -3.4655 -0.8474 -0.2034
   80SLPC   O31 7381   5.664   3.299   6.959  0.6050 -0.7642  0.4250
   80SLPC   C31 7382   5.568   3.203   6.944 -0.7285 -0.3605 -0.3361
   80SLPC   O32 7383   5.570   3.115   6.863  0.1543 -0.3878  0.1431
   80SLPC   C32 7384   5.456   3.244   7.029 -0.3298  0.1343  0.3236
   80SLPC   H2X 7385   5.402   3.327   6.979 -1.8727  0.5694  2.6804
   80SLPC   H2Y 7386   5.500   3.285   7.122 -1.7744 -0.1059  1.1190
   80SLPC   C23 7387   5.501   3.657   6.835 -0.4764  0.1500 -0.3382
   80SLPC   H3R 7388   5.406   3.602   6.821  1.0411 -2.7443  0.2150
   80SLPC   H3S 7389   5.476   3.765   6.844  2.7211  0.9179  0.2598
   80SLPC   C24 7390   5.562   3.620   6.972 -0.7823 -0.0358 -0.2604
   80SLPC   H4R 7391   5.647   3.690   6.986 -1.1250  0.7134 -1.8472
   80SLPC   H4S 7392   5.614   3.522   6.970 -0.6319 -0.0083  1.4869
   80SLPC   C25 7393   5.460   3.629   7.087  0.2714  0.1460  0.4021
   80SLPC   H5R 7394   5.365   3.578   7.061  0.8273 -1.7383  1.9566
   80SLPC   H5S 7395   5.425   3.733   7.108 -2.0514 -1.2383  3.8121
   80SLPC   C26 7396   5.523   3.576   7.220  0.9138 -0.2243  0.3383
   80SLPC   H6R 7397   5.604   3.648   7.247  2.1961 -2.0464  1.4332
   80SLPC   H6S 7398   5.567   3.474   7.217 -2.1086 -1.5631  0.6272
   80SLPC   C27 7399   5.437   3.573   7.346  0.1117  0.0816  0.0598
   80SLPC   H7R 7400   5.349   3.514   7.312  1.2044 -0.0008 -2.7713
   80SLPC   H7S 7401   5.402   3.677   7.359  1.5218  0.7567 -1.3669
   80SLPC   C28 7402   5.488   3.513   7.480  0.0422  0.2561 -0.4449
   80SLPC   H8R 7403   5.562   3.587   7.518  0.5176  0.1831 -1.2275
   80SLPC   H8S 7404   5.539   3.422   7.443 -1.6147 -0.7094 -0.4257
   80SLPC   C29 7405   5.378   3.504   7.578 -0.2596  0.9752 -0.6775
   80SLPC   H9R 7406   5.282   3.475   7.533  0.2019  0.9204 -1.6401
   80SLPC  C210 7407   5.397   3.505   7.710 -0.2382  0.3632  0.1193
   80SLPC  H10R 7408   5.311   3.497   7.778  0.1818  0.9271  0.7219
   80SLPC  C211 7409   5.533   3.526   7.786  0.6148  0.2146 -0.0743
   80SLPC  H11R 7410   5.620   3.525   7.716  0.4588  0.0647 -0.2661
   80SLPC  H11S 7411   5.541   3.442   7.857 -1.7573  0.0792  0.0731
   80SLPC  C212 7412   5.523   3.652   7.864  0.0655 -0.9358 -0.0625
   80SLPC  H12R 7413   5.524   3.748   7.809  2.4656 -1.3933 -0.9022
   80SLPC  C213 7414   5.551   3.658   7.991  0.3202  0.4217 -0.6402
   80SLPC  H13R 7415   5.554   3.754   8.045 -3.5110 -1.3224  2.9241
   80SLPC  C214 7416   5.586   3.541   8.085  0.6532 -0.2570 -0.5141
   80SLPC  H14R 7417   5.652   3.584   8.163  0.1449  0.8935 -0.6927
   80SLPC  H14S 7418   5.644   3.461   8.034  2.4809  0.9285 -0.3302
   80SLPC  C215 7419   5.460   3.503   8.156  0.0419 -0.0707 -0.0609
   80SLPC  H15R 7420   5.381   3.452   8.096 -0.2917  0.7620 -0.3376
   80SLPC  H15S 7421   5.402   3.589   8.196 -1.5529 -0.8545 -0.6108
   80SLPC  C216 7422   5.480   3.433   8.291 -0.0840  0.0427  0.0834
   80SLPC  H16R 7423   5.525   3.333   8.275 -0.3615 -0.1143  0.2641
   80SLPC  H16S 7424   5.385   3.418   8.348 -0.1054  0.0063  0.0368
   80SLPC  C217 7425   5.571   3.513   8.391 -0.9249 -0.2704 -0.2547
   80SLPC  H17R 7426   5.551   3.622   8.383  2.9216  0.5865  0.9091
   80SLPC  H17S 7427   5.676   3.493   8.363 -0.8928 -0.5315  0.0422
   80SLPC  C218 7428   5.543   3.462   8.532 -0.7507 -0.4698  0.5282
   80SLPC  H18R 7429   5.622   3.500   8.601 -1.2123 -2.6878  2.3311
   80SLPC  H18S 7430   5.559   3.352   8.534  2.8945  0.0001  1.1027
   80SLPC  H18T 7431   5.449   3.496   8.580 -0.2650  0.4510  0.8418
   80SLPC   C33 7432   5.351   3.133   7.064 -0.0901 -0.4411 -0.3372
   80SLPC   H3X 7433   5.403   3.045   7.107  0.4342  1.1274  2.3844
   80SLPC   H3Y 7434   5.306   3.108   6.966  0.9650 -1.6570 -0.5231
   80SLPC   C34 7435   5.249   3.193   7.169  0.3488  0.0879  0.3713
   80SLPC   H4X 7436   5.168   3.117   7.168 -0.0937  0.5655 -0.9772
   80SLPC   H4Y 7437   5.214   3.292   7.133  0.5002  0.0177  0.0248
   80SLPC   C35 7438   5.298   3.185   7.316 -0.3398  0.0408 -0.4134
   80SLPC   H5X 7439   5.372   3.268   7.322  0.4921 -0.6671 -0.5978
   80SLPC   H5Y 7440   5.352   3.089   7.331 -1.0355 -0.2966 -0.0468
   80SLPC   C36 7441   5.189   3.210   7.420  0.1761 -0.2323  0.1135
   80SLPC   H6X 7442   5.101   3.147   7.394 -0.6100  0.4782  1.0213
   80SLPC   H6Y 7443   5.161   3.318   7.415 -0.1677 -0.3698 -1.1281
   80SLPC   C37 7444   5.241   3.168   7.556 -1.2007  0.0868  0.0933
   80SLPC   H7X 7445   5.334   3.221   7.585 -1.5115 -0.1987  1.6533
   80SLPC   H7Y 7446   5.270   3.061   7.551 -0.3863  0.2297  1.5285
   80SLPC   C38 7447   5.140   3.171   7.663 -0.7806 -1.0592  0.0168
   80SLPC   H8X 7448   5.044   3.132   7.622 -1.1751 -0.5703  0.4782
   80SLPC   H8Y 7449   5.120   3.278   7.683 -0.9672 -1.1400  0.2458
   80SLPC   C39 7450   5.184   3.084   7.783 -0.2577 -0.4453  0.0929
   80SLPC   H9X 7451   5.251   3.144   7.847  0.2604 -0.8131 -0.0973
   80SLPC   H9Y 7452   5.232   2.986   7.761  0.9955  0.1153  0.3476
   80SLPC  C310 7453   5.061   3.048   7.877  0.3898  0.5725  0.3033
   80SLPC  H10X 7454   4.996   2.980   7.818 -3.1769  2.6406  1.6902
   80SLPC  H10Y 7455   5.020   3.149   7.897 -1.8943 -0.7217  2.3211
   80SLPC  C311 7456   5.109   2.974   7.995  0.5695 -0.1269 -0.0281
   80SLPC  H11X 7457   5.138   3.047   8.073 -1.8407 -0.9629  1.6915
   80SLPC  H11Y 7458   5.196   2.908   7.974 -0.9744 -1.5378 -2.1952
   80SLPC  C312 7459   4.993   2.903   8.055  0.1645 -0.5467 -1.0806
   80SLPC  H12X 7460   5.020   2.853   8.151 -0.7162  1.6748  0.3724
   80SLPC  H12Y 7461   4.962   2.836   7.972  1.6831 -1.1541 -1.1615
   80SLPC  C313 7462   4.880   3.002   8.078  0.2525 -0.2404 -1.1480
   80SLPC  H13X 7463   4.827   3.025   7.983 -0.7838  1.0956 -0.2591
   80SLPC  H13Y 7464   4.919   3.092   8.131  1.5078 -1.9852  0.9455
   80SLPC  C314 7465   4.775   2.936   8.178 -0.5142 -0.0882 -0.0711
   80SLPC  H14X 7466   4.831   2.918   8.273  1.7932 -0.9801 -1.5713
   80SLPC  H14Y 7467   4.769   2.834   8.134  0.6853 -1.2837  2.4135
   80SLPC  C315 7468   4.646   3.008   8.196 -0.1925 -0.3595 -0.0347
   80SLPC  H15X 7469   4.565   2.944   8.238  0.8687 -2.9594 -1.8013
   80SLPC  H15Y 7470   4.617   3.038   8.093 -1.8135  2.9692  1.3161
   80SLPC  C316 7471   4.661   3.142   8.279  0.5043  0.0439 -0.5213
   80SLPC  H16X 7472   4.565   3.196   8.271  0.0769 -0.8579 -1.7323
   80SLPC  H16Y 7473   4.738   3.203   8.227  0.7908  0.0069 -0.1438
   80SLPC  C317 7474   4.713   3.125   8.424 -0.0645  0.0682  0.3503
   80SLPC  H17X 7475   4.814   3.080   8.433 -1.2786 -2.8320 -0.1626
   80SLPC  H17Y 7476   4.630   3.075   8.478 -1.2165  1.7989  0.2427
   80SLPC  C318 7477   4.708   3.263   8.499  0.0871 -0.0207 -0.0590
   80SLPC  H18X 7478   4.783   3.338   8.465 -0.1577 -0.8732 -2.6048
   80SLPC  H18Y 7479   4.730   3.239   8.605  0.6675  1.7440  0.2356
   80SLPC  H18Z 7480   4.608   3.307   8.482  0.8595  0.9253 -2.3828
   81SAPS     N 7481   5.486   4.475  11.058 -0.4892 -0.6739  0.5768
   81SAPS   HN1 7482   5.414   4.406  11.088 -0.6644 -0.9583 -0.4762
   81SAPS   HN2 7483   5.444   4.570  11.062  0.0673 -0.4517  1.1627
   81SAPS   HN3 7484   5.524   4.453  10.963  2.7455  2.0010  1.1615
   81SAPS   C12 7485   5.584   4.468  11.171  0.1250 -0.2510 -0.1764
   81SAPS  H12A 7486   5.667   4.530  11.141 -0.1754 -0.7375 -2.0734
   81SAPS   C13 7487   5.527   4.533  11.298 -0.6664  0.0820  0.0992
   81SAPS  O13A 7488   5.399   4.559  11.304  0.3225  0.4025 -0.7092
   81SAPS  O13B 7489   5.597   4.533  11.401  0.0433 -0.3561 -0.4372
   81SAPS   C11 7490   5.627   4.315  11.194 -0.6583  0.0949 -0.5536
   81SAPS  H11A 7491   5.544   4.258  11.240 -1.0604 -0.5469 -2.0400
   81SAPS  H11B 7492   5.712   4.303  11.266 -0.9174  0.3264 -0.2099
   81SAPS     P 7493   5.817   4.201  11.048  0.5195  0.2764 -0.3307
   81SAPS   O13 7494   5.918   4.299  11.086 -0.3699  0.2295  0.2390
   81SAPS   O14 7495   5.822   4.075  11.122 -0.0340  0.7058 -0.0733
   81SAPS   O12 7496   5.669   4.266  11.073  0.4192  0.7795  0.2316
   81SAPS   O11 7497   5.821   4.178  10.891  0.2241 -0.0542  0.8099
   81SAPS    C1 7498   5.830   4.298  10.804 -0.2452  0.0134  0.3887
   81SAPS    HA 7499   5.753   4.376  10.824  0.4423  0.4393  1.3952
   81SAPS    HB 7500   5.929   4.347  10.815 -1.1690  2.3282 -1.2768
   81SAPS    C2 7501   5.825   4.255  10.655 -0.0112  0.0240  0.0397
   81SAPS    HS 7502   5.735   4.190  10.652 -1.5657  2.1054 -0.1423
   81SAPS   O21 7503   5.946   4.188  10.613  0.6886 -0.0561  0.0147
   81SAPS   C21 7504   5.938   4.103  10.511  0.0352  0.0902  0.1067
   81SAPS   O22 7505   5.836   4.065  10.454  0.2582 -0.1624 -0.1794
   81SAPS   C22 7506   6.085   4.052  10.485  0.2370  0.4872  0.4506
   81SAPS   H2R 7507   6.160   4.134  10.484  0.9280 -0.1478 -1.3277
   81SAPS   H2S 7508   6.108   3.991  10.575 -0.7984 -0.6350 -0.0260
   81SAPS    C3 7509   5.802   4.381  10.572  0.2743  0.0741 -0.0793
   81SAPS    HX 7510   5.888   4.447  10.593  0.7875 -1.2773  2.1692
   81SAPS    HY 7511   5.711   4.437  10.602 -0.9068 -1.4896 -0.6727
   81SAPS   O31 7512   5.794   4.355  10.434  0.0486  0.0082  0.5485
   81SAPS   C31 7513   5.682   4.318  10.382  0.2034  0.9639 -0.0648
   81SAPS   O32 7514   5.574   4.296  10.436 -0.1593 -0.3568 -0.2293
   81SAPS   C32 7515   5.705   4.294  10.235  0.0186 -0.0629  0.0679
   81SAPS   H2X 7516   5.607   4.288  10.184  0.1951 -0.9467 -0.1757
   81SAPS   H2Y 7517   5.752   4.195  10.216 -0.4853 -0.0954 -1.0158
   81SAPS   C23 7518   6.108   3.987  10.342  0.1493  0.3487 -0.4269
   81SAPS   H3R 7519   6.032   3.906  10.328  0.3287 -0.3170  2.0788
   81SAPS   H3S 7520   6.211   3.948  10.349 -0.5609 -1.4967  0.2576
   81SAPS   C24 7521   6.094   4.086  10.225  0.4119 -0.0694  0.3000
   81SAPS   H4R 7522   6.180   4.156  10.225 -1.3714  2.1969  1.6229
   81SAPS   H4S 7523   6.008   4.153  10.248 -0.6705 -1.1712 -0.4424
   81SAPS   C25 7524   6.088   4.020  10.090  0.4294 -0.2449 -0.4032
   81SAPS   H5R 7525   6.176   4.027  10.025  1.4861 -0.1613  1.0187
   81SAPS   C26 7526   5.979   3.954  10.044 -0.1191  0.3441 -0.0315
   81SAPS   H6R 7527   5.983   3.917   9.941 -2.6450  0.6660 -0.2649
   81SAPS   C27 7528   5.846   3.940  10.108 -0.2429  0.4195  0.1027
   81SAPS   H7R 7529   5.774   4.011  10.064  0.2284  0.0820 -1.2388
   81SAPS   H7S 7530   5.837   3.968  10.216  0.0517 -1.1951  0.5622
   81SAPS   C28 7531   5.793   3.800  10.105 -0.0412 -0.3739 -0.2523
   81SAPS   H8R 7532   5.806   3.741  10.197 -0.2322 -1.4449 -0.9113
   81SAPS   C29 7533   5.717   3.745  10.011 -1.0265  0.0928  0.1078
   81SAPS   H9R 7534   5.678   3.647  10.042 -0.9435 -0.2168 -0.7385
   81SAPS  C210 7535   5.678   3.803   9.878 -0.1488 -0.0194  0.6774
   81SAPS  H10R 7536   5.712   3.725   9.806 -0.1658  0.9686 -0.4266
   81SAPS  H10S 7537   5.738   3.892   9.847 -0.5664  0.4281  1.1461
   81SAPS  C211 7538   5.532   3.837   9.868 -0.3434  0.1410  0.1069
   81SAPS  H11R 7539   5.485   3.840   9.967  1.2593 -2.4044  1.0056
   81SAPS  C212 7540   5.457   3.852   9.762  0.2094  0.2236 -0.1577
   81SAPS  H12R 7541   5.350   3.872   9.776 -0.4358 -2.3752 -0.9959
   81SAPS  C213 7542   5.482   3.827   9.616 -0.0169  0.0213  0.3940
   81SAPS  H13R 7543   5.582   3.779   9.608 -0.6976 -1.5565  1.0993
   81SAPS  H13S 7544   5.489   3.919   9.554 -0.9336  1.1436  1.9023
   81SAPS  C214 7545   5.376   3.729   9.568  0.6097 -0.3742  0.5316
   81SAPS  H14R 7546   5.354   3.643   9.632 -0.4114  0.4142  1.2529
   81SAPS  C215 7547   5.327   3.729   9.442 -0.2001 -1.1153 -0.3631
   81SAPS  H15R 7548   5.261   3.646   9.414 -0.6802 -1.1972  0.9356
   81SAPS  C216 7549   5.354   3.816   9.324  0.6892  0.1801 -0.4080
   81SAPS  H16R 7550   5.457   3.857   9.336  1.2565 -1.5801  1.1086
   81SAPS  H16S 7551   5.277   3.895   9.320  1.4442  1.0144  1.1989
   81SAPS  C217 7552   5.354   3.733   9.196 -0.3347  0.3894 -0.4522
   81SAPS  H17R 7553   5.257   3.679   9.183  1.0730 -1.7345 -2.4373
   81SAPS  H17S 7554   5.435   3.658   9.186 -1.4077 -0.6788 -1.3108
   81SAPS  C218 7555   5.373   3.826   9.074 -0.4084  0.1703  0.6081
   81SAPS  H18R 7556   5.468   3.882   9.087  0.6593 -1.2589 -0.8786
   81SAPS  H18S 7557   5.290   3.899   9.071 -0.7775 -0.0588  3.4844
   81SAPS  C219 7558   5.380   3.739   8.949 -0.1110  0.3830  1.0155
   81SAPS  H19R 7559   5.356   3.788   8.852  0.7973  1.6749  1.4250
   81SAPS  H19S 7560   5.307   3.656   8.954  1.4773 -1.1052  0.1082
   81SAPS  C220 7561   5.523   3.686   8.915 -0.4486  0.6036 -0.5148
   81SAPS  H20R 7562   5.552   3.625   9.003  2.3712  0.1983 -1.6812
   81SAPS  H20S 7563   5.600   3.764   8.901  1.0755 -1.0508 -1.6230
   81SAPS  H20T 7564   5.513   3.633   8.818  1.2251  1.3583 -1.1066
   81SAPS   C33 7565   5.772   4.414  10.162 -0.0371 -0.6985 -0.2330
   81SAPS   H3X 7566   5.875   4.422  10.203 -0.2750  0.1914  0.1970
   81SAPS   H3Y 7567   5.717   4.505  10.194  0.7352 -0.1731 -0.3744
   81SAPS   C34 7568   5.767   4.385  10.013  0.4338 -0.0520 -1.0429
   81SAPS   H4X 7569   5.670   4.335   9.992  0.0340 -0.7599  2.1837
   81SAPS   H4Y 7570   5.839   4.303   9.989  0.4027 -0.2088 -0.6065
   81SAPS   C35 7571   5.779   4.503   9.918  0.4639  0.2950  0.2719
   81SAPS   H5X 7572   5.862   4.571   9.947  0.6995 -0.3397  1.1148
   81SAPS   H5Y 7573   5.678   4.549   9.928  0.0090 -0.1190 -2.1353
   81SAPS   C36 7574   5.810   4.466   9.768  0.3817  0.1890 -0.2498
   81SAPS   H6X 7575   5.912   4.425   9.754 -0.1632 -2.0763  2.0395
   81SAPS   H6Y 7576   5.791   4.551   9.699  0.2432 -0.0797 -0.5472
   81SAPS   C37 7577   5.726   4.352   9.719  0.1472 -0.1225 -0.0852
   81SAPS   H7X 7578   5.624   4.376   9.755  0.2657 -0.0370  0.1929
   81SAPS   H7Y 7579   5.759   4.258   9.767  1.3710  1.3625  2.0978
   81SAPS   C38 7580   5.708   4.335   9.564  0.2187  0.0126  0.2894
   81SAPS   H8X 7581   5.806   4.312   9.515  0.5424  1.9268  0.0027
   81SAPS   H8Y 7582   5.664   4.429   9.525 -0.4335 -1.0491 -1.6594
   81SAPS   C39 7583   5.603   4.228   9.538  0.3593  0.0869  0.8822
   81SAPS   H9X 7584   5.506   4.255   9.585  0.5320  0.9580  0.7533
   81SAPS   H9Y 7585   5.638   4.137   9.591  0.7967 -0.9017 -1.0847
   81SAPS  C310 7586   5.580   4.198   9.393  0.8443  0.3635 -0.5777
   81SAPS  H10X 7587   5.486   4.247   9.362 -0.3104  0.8308  3.4245
   81SAPS  H10Y 7588   5.548   4.092   9.383 -1.4967  1.2504 -3.0053
   81SAPS  C311 7589   5.681   4.233   9.284 -0.4551  0.1853  0.5629
   81SAPS  H11X 7590   5.767   4.165   9.301 -0.0238  0.5790 -0.0185
   81SAPS  H11Y 7591   5.714   4.338   9.303 -0.2495 -0.0960  1.8196
   81SAPS  C312 7592   5.628   4.218   9.144  0.7169  0.7109  0.8252
   81SAPS  H12X 7593   5.593   4.317   9.108  1.6264  0.5858 -0.4315
   81SAPS  H12Y 7594   5.536   4.156   9.145  0.0179  1.7307 -0.1575
   81SAPS  C313 7595   5.738   4.140   9.075 -0.7858 -1.0024 -0.0371
   81SAPS  H13X 7596   5.752   4.038   9.116 -2.0423 -1.5221 -0.8868
   81SAPS  H13Y 7597   5.836   4.192   9.066 -0.8206 -1.0050 -0.4090
   81SAPS  C314 7598   5.719   4.131   8.919 -0.0457  0.1964  0.4885
   81SAPS  H14X 7599   5.719   4.238   8.888  0.8931 -0.1645 -0.8101
   81SAPS  H14Y 7600   5.612   4.103   8.911 -0.9066  2.6645  2.3963
   81SAPS  C315 7601   5.828   4.052   8.845 -0.5615  0.4945  0.2146
   81SAPS  H15X 7602   5.820   3.943   8.868  0.3385  0.0315 -1.5535
   81SAPS  H15Y 7603   5.923   4.095   8.883 -1.2537  1.0936  1.2713
   81SAPS  C316 7604   5.817   4.069   8.694 -0.4189 -0.5054 -0.3153
   81SAPS  H16X 7605   5.902   4.031   8.634  0.6101  1.7707 -0.3283
   81SAPS  H16Y 7606   5.807   4.177   8.672  0.2674 -0.0292  1.6485
   81SAPS  C317 7607   5.693   3.997   8.628  0.6916 -0.2979 -0.5887
   81SAPS  H17X 7608   5.677   4.064   8.540 -0.6756  0.4672  0.2231
   81SAPS  H17Y 7609   5.606   3.992   8.697  1.4110  2.4416  0.6247
   81SAPS  C318 7610   5.730   3.852   8.585 -0.0081 -0.2874 -0.3513
   81SAPS  H18X 7611   5.774   3.786   8.662  2.2222  0.8839 -0.5690
   81SAPS  H18Y 7612   5.792   3.850   8.492  0.4716  0.7948 -0.0574
   81SAPS  H18Z 7613   5.629   3.812   8.566  0.3148 -1.2951  0.0157
   82SAPS     N 7614   4.304   2.905  10.900  0.1756 -0.2415  0.0600
   82SAPS   HN1 7615   4.203   2.878  10.893  0.4608 -2.1136  2.4666
   82SAPS   HN2 7616   4.334   2.954  10.814  1.0381  0.1309  0.5718
   82SAPS   HN3 7617   4.357   2.815  10.899  2.2610  0.9710 -1.6382
   82SAPS   C12 7618   4.340   2.982  11.015  0.4588  0.1114 -0.3121
   82SAPS  H12A 7619   4.295   2.933  11.100 -0.3829 -1.2378 -1.5057
   82SAPS   C13 7620   4.491   2.969  11.056  0.7105 -0.5358 -0.5780
   82SAPS  O13A 7621   4.556   2.868  11.019  0.4272  0.3665 -0.1188
   82SAPS  O13B 7622   4.528   3.047  11.149 -0.5696 -0.0432  0.1545
   82SAPS   C11 7623   4.291   3.131  10.993  0.5506 -0.1076 -0.3544
   82SAPS  H11A 7624   4.320   3.191  11.082 -1.9479 -0.8703  1.0258
   82SAPS  H11B 7625   4.180   3.136  10.997  0.5455 -0.3176 -0.2289
   82SAPS     P 7626   4.353   3.346  10.862 -0.5002  0.4973 -0.0340
   82SAPS   O13 7627   4.235   3.397  10.792 -0.4262  0.1601  0.1929
   82SAPS   O14 7628   4.374   3.408  10.995  0.1142  0.4859  0.0666
   82SAPS   O12 7629   4.346   3.182  10.870 -0.7862  0.1726  0.9094
   82SAPS   O11 7630   4.475   3.368  10.773 -0.4705  0.1240 -0.2332
   82SAPS    C1 7631   4.541   3.496  10.748  0.4621 -0.1145 -0.2046
   82SAPS    HA 7632   4.467   3.577  10.763 -0.4020 -0.8726 -0.3512
   82SAPS    HB 7633   4.630   3.506  10.814 -0.9337 -3.3763  2.2960
   82SAPS    C2 7634   4.598   3.503  10.598  0.9089 -0.9014  0.5527
   82SAPS    HS 7635   4.641   3.605  10.587  0.6157 -0.7643  0.6626
   82SAPS   O21 7636   4.479   3.485  10.514 -0.0307 -0.2414  0.5008
   82SAPS   C21 7637   4.413   3.598  10.485 -0.4721 -1.3885 -0.1122
   82SAPS   O22 7638   4.455   3.706  10.516 -0.2296 -0.2787  0.6902
   82SAPS   C22 7639   4.288   3.569  10.413  0.5220  0.3634  0.7647
   82SAPS   H2R 7640   4.251   3.470  10.449  0.5861 -0.2028 -0.7178
   82SAPS   H2S 7641   4.206   3.641  10.434 -0.9287 -0.6133 -1.3987
   82SAPS    C3 7642   4.706   3.393  10.558  0.2946 -0.7108 -0.2577
   82SAPS    HX 7643   4.663   3.291  10.560  0.0769 -0.6127  1.8096
   82SAPS    HY 7644   4.789   3.388  10.632  0.9425  3.5432 -0.5711
   82SAPS   O31 7645   4.766   3.416  10.431 -0.1696 -0.0552  0.4457
   82SAPS   C31 7646   4.848   3.513  10.417  0.2780 -0.8500  1.2194
   82SAPS   O32 7647   4.883   3.596  10.504  0.0956  0.7598  0.0050
   82SAPS   C32 7648   4.894   3.517  10.274 -0.1285 -0.3891  0.2880
   82SAPS   H2X 7649   4.837   3.447  10.209  0.2097 -0.9652  0.6085
   82SAPS   H2Y 7650   5.002   3.493  10.279  0.0552  0.5207  0.9110
   82SAPS   C23 7651   4.308   3.549  10.266 -0.0052  0.3931  1.0462
   82SAPS   H3R 7652   4.391   3.479  10.244  0.1485  0.5778  1.0403
   82SAPS   H3S 7653   4.327   3.645  10.213 -2.4215  0.5690  0.4245
   82SAPS   C24 7654   4.184   3.515  10.181 -0.0999  0.5999  0.2934
   82SAPS   H4R 7655   4.197   3.539  10.074 -2.4430  2.9908  0.4783
   82SAPS   H4S 7656   4.107   3.588  10.214 -0.7714 -0.3883  0.9306
   82SAPS   C25 7657   4.132   3.371  10.197 -0.1272 -0.2128 -1.1395
   82SAPS   H5R 7658   4.105   3.342  10.300  2.6562  0.6364 -0.1204
   82SAPS   C26 7659   4.147   3.273  10.106 -0.3325  0.1479  0.2757
   82SAPS   H6R 7660   4.092   3.180  10.124 -1.0987  0.7474  1.1148
   82SAPS   C27 7661   4.211   3.305   9.966  0.5579 -0.3657  0.6119
   82SAPS   H7R 7662   4.298   3.373   9.976  1.8955 -1.3791 -3.1749
   82SAPS   H7S 7663   4.134   3.355   9.903  0.7949  0.6332  1.0949
   82SAPS   C28 7664   4.258   3.172   9.911  0.4535 -0.4147 -0.3676
   82SAPS   H8R 7665   4.347   3.133   9.962  0.2581 -3.2626 -2.0928
   82SAPS   C29 7666   4.201   3.103   9.808  0.2526 -0.5099  0.3036
   82SAPS   H9R 7667   4.250   3.011   9.774  0.7087 -0.0225 -0.3722
   82SAPS  C210 7668   4.082   3.157   9.730  0.2066  0.9443 -0.2266
   82SAPS  H10R 7669   4.116   3.254   9.687  1.3179  0.6236 -0.0683
   82SAPS  H10S 7670   4.002   3.174   9.805  0.9011 -0.5887  0.8876
   82SAPS  C211 7671   4.017   3.066   9.621  0.6841  0.0771  0.6595
   82SAPS  H11R 7672   3.926   3.012   9.650  0.8602 -0.7984 -0.4056
   82SAPS  C212 7673   4.057   3.055   9.489 -0.1366  0.6043 -0.2292
   82SAPS  H12R 7674   3.998   2.987   9.426  1.7879 -1.9715  0.6965
   82SAPS  C213 7675   4.179   3.121   9.428  0.1406  0.7650 -0.6617
   82SAPS  H13R 7676   4.257   3.149   9.502 -0.0085  1.3402 -0.7267
   82SAPS  H13S 7677   4.152   3.209   9.367  1.0658  1.2062 -0.4375
   82SAPS  C214 7678   4.249   3.014   9.344  0.3718 -0.4872 -0.1019
   82SAPS  H14R 7679   4.293   2.921   9.384  0.1129 -0.7454 -0.4108
   82SAPS  C215 7680   4.259   3.014   9.209 -0.0577 -0.2167  0.1328
   82SAPS  H15R 7681   4.304   2.929   9.157 -0.8124  0.3735 -1.5245
   82SAPS  C216 7682   4.209   3.123   9.114 -0.0093 -0.4081  0.4292
   82SAPS  H16R 7683   4.291   3.195   9.097  0.8476 -0.9995  1.9656
   82SAPS  H16S 7684   4.121   3.168   9.164 -0.5102  0.2976 -1.0628
   82SAPS  C217 7685   4.148   3.091   8.973  0.3089 -0.4826  0.1983
   82SAPS  H17R 7686   4.070   3.012   8.981 -0.1151  0.0048  0.9295
   82SAPS  H17S 7687   4.233   3.060   8.908  1.3247  0.0980  1.2246
   82SAPS  C218 7688   4.094   3.217   8.903 -0.2255 -0.0834 -0.0248
   82SAPS  H18R 7689   4.181   3.287   8.895  1.0738 -1.8191 -1.4104
   82SAPS  H18S 7690   4.029   3.270   8.975  0.1672 -1.6092  1.4895
   82SAPS  C219 7691   4.019   3.204   8.772  0.6781  1.0853  0.4296
   82SAPS  H19R 7692   4.087   3.148   8.704  0.8692 -1.0140  2.2982
   82SAPS  H19S 7693   3.998   3.311   8.750  1.2774  0.8355 -1.4653
   82SAPS  C220 7694   3.890   3.121   8.782  0.2251  0.3322  0.5677
   82SAPS  H20R 7695   3.893   3.029   8.844 -2.7585 -0.5952 -0.5731
   82SAPS  H20S 7696   3.848   3.098   8.681  0.3040 -2.0007  1.0517
   82SAPS  H20T 7697   3.818   3.193   8.827 -0.4735 -0.2954  0.4838
   82SAPS   C33 7698   4.886   3.652  10.198  0.3270  0.8684 -0.5275
   82SAPS   H3X 7699   4.916   3.637  10.092 -1.8790 -2.1735 -0.7980
   82SAPS   H3Y 7700   4.953   3.722  10.253 -1.5132  0.6822  2.0843
   82SAPS   C34 7701   4.744   3.713  10.191 -0.1286  0.1164  0.4046
   82SAPS   H4X 7702   4.747   3.812  10.141 -2.8407  0.7162  1.2879
   82SAPS   H4Y 7703   4.705   3.735  10.293 -0.9629 -0.1863  0.1595
   82SAPS   C35 7704   4.635   3.616  10.124  0.1960 -0.5803 -0.2074
   82SAPS   H5X 7705   4.533   3.660  10.125  0.1721 -0.4677 -2.9521
   82SAPS   H5Y 7706   4.620   3.523  10.182  2.5777  0.0484  1.4955
   82SAPS   C36 7707   4.660   3.568   9.985 -0.4996 -0.6952  0.2221
   82SAPS   H6X 7708   4.744   3.496   9.995  1.0559  1.1026  0.3374
   82SAPS   H6Y 7709   4.686   3.656   9.922 -0.3774 -1.9153 -1.4590
   82SAPS   C37 7710   4.537   3.508   9.906 -0.1675 -1.1363  0.2494
   82SAPS   H7X 7711   4.453   3.580   9.897 -0.4000 -1.3309  0.8212
   82SAPS   H7Y 7712   4.493   3.423   9.962 -1.4931  0.6855  2.0322
   82SAPS   C38 7713   4.574   3.461   9.760 -0.4356 -0.3729  0.3659
   82SAPS   H8X 7714   4.652   3.382   9.760 -2.7712 -2.7863  1.3538
   82SAPS   H8Y 7715   4.607   3.550   9.702 -1.3446  1.1785  2.1889
   82SAPS   C39 7716   4.446   3.410   9.693 -0.0049  0.4300  0.6598
   82SAPS   H9X 7717   4.359   3.478   9.701 -0.4464 -0.0920  0.2951
   82SAPS   H9Y 7718   4.422   3.314   9.744 -0.0070  0.2694  0.3615
   82SAPS  C310 7719   4.469   3.383   9.536 -0.0988 -0.0627  0.1555
   82SAPS  H10X 7720   4.371   3.350   9.495 -1.4394  3.8800 -0.0355
   82SAPS  H10Y 7721   4.533   3.293   9.542 -0.3378 -0.1612  1.2052
   82SAPS  C311 7722   4.520   3.502   9.454 -1.0418  0.0206 -0.5787
   82SAPS  H11X 7723   4.629   3.519   9.468 -1.5149 -0.5475  4.6723
   82SAPS  H11Y 7724   4.464   3.594   9.480  0.1822 -0.1816  3.0127
   82SAPS  C312 7725   4.483   3.484   9.303 -0.2761 -0.3966  0.4425
   82SAPS  H12X 7726   4.522   3.571   9.245 -1.6017 -0.8287 -1.1154
   82SAPS  H12Y 7727   4.372   3.488   9.294 -0.4491  1.2105  2.8367
   82SAPS  C313 7728   4.541   3.362   9.231  0.0274  0.3557  0.6032
   82SAPS  H13X 7729   4.499   3.269   9.275 -2.4637  0.8760 -0.5865
   82SAPS  H13Y 7730   4.650   3.366   9.252 -0.1118  1.0288  1.1877
   82SAPS  C314 7731   4.505   3.359   9.078  0.5845 -0.0281  0.1441
   82SAPS  H14X 7732   4.398   3.378   9.061  0.8801  2.1703  0.6357
   82SAPS  H14Y 7733   4.518   3.257   9.037 -0.7842 -0.6842  1.2895
   82SAPS  C315 7734   4.574   3.463   8.989 -0.3130  0.0427 -0.4889
   82SAPS  H15X 7735   4.679   3.467   9.026  0.0427 -1.8907 -1.2023
   82SAPS  H15Y 7736   4.518   3.558   9.000  0.4638  0.6121 -1.3637
   82SAPS  C316 7737   4.577   3.432   8.835 -0.5691 -0.4989 -0.4184
   82SAPS  H16X 7738   4.628   3.334   8.829  1.3208  0.4345 -0.0107
   82SAPS  H16Y 7739   4.633   3.515   8.787 -2.7921  0.4309 -1.4780
   82SAPS  C317 7740   4.430   3.426   8.795  0.0701 -0.5648  0.8561
   82SAPS  H17X 7741   4.383   3.509   8.852  1.1015  0.2036  0.5819
   82SAPS  H17Y 7742   4.409   3.322   8.829  0.8624 -0.9558  0.1621
   82SAPS  C318 7743   4.400   3.438   8.645 -0.1747 -0.3274 -0.0079
   82SAPS  H18X 7744   4.437   3.347   8.593 -0.3304  0.5600 -1.7273
   82SAPS  H18Y 7745   4.442   3.525   8.588 -0.9508 -1.5951 -2.5978
   82SAPS  H18Z 7746   4.289   3.441   8.640 -0.1473 -0.7081 -1.0523
   83SAPS     N 7747   6.325   4.784  11.337 -0.8678  0.6883 -0.6898
   83SAPS   HN1 7748   6.330   4.697  11.280  0.0097  2.0158 -2.7030
   83SAPS   HN2 7749   6.373   4.780  11.430 -0.7917  2.1439 -0.6608
   83SAPS   HN3 7750   6.223   4.798  11.345 -0.7192  0.3922  2.5095
   83SAPS   C12 7751   6.397   4.896  11.259 -0.0498 -0.4018  0.4548
   83SAPS  H12A 7752   6.389   4.996  11.298  0.3934  0.0309 -0.5627
   83SAPS   C13 7753   6.549   4.875  11.236  0.0355  0.0607 -0.0758
   83SAPS  O13A 7754   6.596   4.759  11.249 -0.1248 -0.3122 -0.3442
   83SAPS  O13B 7755   6.620   4.967  11.200  0.0589 -0.3175  0.6805
   83SAPS   C11 7756   6.328   4.897  11.119  0.4186 -0.4671 -0.5187
   83SAPS  H11A 7757   6.358   4.806  11.063 -0.4843  0.2446 -2.2216
   83SAPS  H11B 7758   6.363   4.985  11.060 -1.7358 -0.3724 -1.6901
   83SAPS     P 7759   6.097   5.020  11.140  0.0920  0.0192  0.0231
   83SAPS   O13 7760   5.959   4.974  11.175  0.6355 -0.0551 -0.1192
   83SAPS   O14 7761   6.158   5.121  11.223  0.3768  0.2521  0.0618
   83SAPS   O12 7762   6.185   4.890  11.129 -0.9441 -0.7212 -0.9203
   83SAPS   O11 7763   6.099   5.069  10.991  0.7700 -0.1638  0.3993
   83SAPS    C1 7764   6.108   4.972  10.881  0.5351  0.2735  1.2040
   83SAPS    HA 7765   6.186   4.893  10.891  0.4603 -0.2137 -1.6312
   83SAPS    HB 7766   6.010   4.922  10.867  0.3857  1.2303 -1.5143
   83SAPS    C2 7767   6.134   5.041  10.745  0.9945 -0.6965 -0.0863
   83SAPS    HS 7768   6.233   5.090  10.749  0.6122  0.1356 -0.5857
   83SAPS   O21 7769   6.029   5.142  10.724 -0.1405 -0.4779 -0.4094
   83SAPS   C21 7770   6.067   5.255  10.659 -0.0445  0.7652 -0.1219
   83SAPS   O22 7771   6.179   5.272  10.610  0.6702 -0.8753 -0.1068
   83SAPS   C22 7772   5.951   5.351  10.642 -0.3071 -0.0361  0.7210
   83SAPS   H2R 7773   5.873   5.323  10.716  0.4504 -0.1171  1.4950
   83SAPS   H2S 7774   5.978   5.454  10.675 -1.5745  0.9317 -1.1515
   83SAPS    C3 7775   6.129   4.938  10.629  0.3343 -0.4232 -0.6996
   83SAPS    HX 7776   6.025   4.902  10.617 -0.9227  3.0623 -0.6204
   83SAPS    HY 7777   6.197   4.850  10.641 -0.4188 -0.9233 -0.0377
   83SAPS   O31 7778   6.154   5.010  10.498 -0.3064  0.4724 -0.1338
   83SAPS   C31 7779   6.276   4.984  10.461 -0.0583 -0.0778  0.0528
   83SAPS   O32 7780   6.361   4.917  10.517 -0.6217  0.4456 -0.1582
   83SAPS   C32 7781   6.291   5.039  10.320  0.1964  0.0437  0.7212
   83SAPS   H2X 7782   6.268   5.147  10.334  0.6878  0.4024 -1.1309
   83SAPS   H2Y 7783   6.209   4.995  10.261 -0.0642  0.2648  0.9211
   83SAPS   C23 7784   5.913   5.366  10.496  0.1871 -0.2689 -0.5781
   83SAPS   H3R 7785   6.003   5.415  10.452  0.8701 -1.0595 -0.0839
   83SAPS   H3S 7786   5.837   5.445  10.478 -0.7716 -1.7196 -3.1427
   83SAPS   C24 7787   5.870   5.234  10.425 -0.1721  0.8808 -0.6037
   83SAPS   H4R 7788   5.962   5.173  10.419  0.6955  1.9442  1.5589
   83SAPS   H4S 7789   5.839   5.257  10.321 -1.5559 -2.4012 -0.9947
   83SAPS   C25 7790   5.753   5.156  10.487 -0.6138  0.2559  0.3957
   83SAPS   H5R 7791   5.691   5.223  10.548 -0.8175  0.4491 -0.0183
   83SAPS   C26 7792   5.725   5.023  10.470  0.0195  0.4282  0.3561
   83SAPS   H6R 7793   5.638   4.978  10.520 -1.4558  1.7980 -0.9024
   83SAPS   C27 7794   5.813   4.933  10.383  0.1334  0.1631  0.2958
   83SAPS   H7R 7795   5.831   4.854  10.459 -1.2167  0.2639  0.7360
   83SAPS   H7S 7796   5.914   4.971  10.357  0.6178 -0.2628  1.5200
   83SAPS   C28 7797   5.738   4.862  10.270  0.7815 -0.3141 -0.1909
   83SAPS   H8R 7798   5.668   4.783  10.302 -1.2057  0.7809 -1.7180
   83SAPS   C29 7799   5.764   4.866  10.140 -0.6050  0.1161  0.2327
   83SAPS   H9R 7800   5.698   4.810  10.072 -0.7806  1.1026 -0.4202
   83SAPS  C210 7801   5.870   4.948  10.069  0.0854  0.4425 -0.0618
   83SAPS  H10R 7802   5.960   4.972  10.130 -0.5426  2.3943  0.1179
   83SAPS  H10S 7803   5.819   5.044  10.046  0.2888  1.0327  1.8629
   83SAPS  C211 7804   5.917   4.885   9.934 -0.9159  0.1655 -0.4545
   83SAPS  H11R 7805   6.022   4.853   9.927 -0.5261  1.2032  0.4614
   83SAPS  C212 7806   5.842   4.861   9.830  0.1677 -1.1171  0.1762
   83SAPS  H12R 7807   5.885   4.803   9.748 -0.1392 -1.5438  0.3134
   83SAPS  C213 7808   5.698   4.899   9.804  1.2441 -0.1437  0.4289
   83SAPS  H13R 7809   5.690   4.968   9.717 -0.3127 -3.7351 -2.4028
   83SAPS  H13S 7810   5.655   4.949   9.894  1.8867 -0.0569  0.6892
   83SAPS  C214 7811   5.610   4.783   9.773 -0.0937 -0.1394 -0.6973
   83SAPS  H14R 7812   5.591   4.722   9.863  3.3303 -1.1464 -0.5963
   83SAPS  C215 7813   5.575   4.735   9.654  0.4605 -0.1293 -0.8595
   83SAPS  H15R 7814   5.516   4.643   9.639 -1.2104  0.8156 -0.2092
   83SAPS  C216 7815   5.621   4.793   9.521 -0.0595 -0.1779 -0.6885
   83SAPS  H16R 7816   5.649   4.900   9.520  0.9740 -0.4365 -2.4132
   83SAPS  H16S 7817   5.541   4.791   9.444 -0.9044 -1.2031  0.2119
   83SAPS  C217 7818   5.745   4.714   9.467  0.6336  0.2282 -1.6016
   83SAPS  H17R 7819   5.718   4.613   9.430 -0.0254 -0.9293  1.8379
   83SAPS  H17S 7820   5.812   4.705   9.555 -0.0946  2.0125 -0.8413
   83SAPS  C218 7821   5.819   4.785   9.355 -0.7781  0.1020 -0.3571
   83SAPS  H18R 7822   5.848   4.886   9.391 -0.9757 -0.0490  0.2355
   83SAPS  H18S 7823   5.747   4.805   9.273 -0.5304 -0.3255 -0.6737
   83SAPS  C219 7824   5.941   4.730   9.275 -0.5323 -0.3574  0.3418
   83SAPS  H19R 7825   6.015   4.705   9.354  0.0983  0.3234 -0.0293
   83SAPS  H19S 7826   5.977   4.809   9.206 -1.1833  0.5305  1.0100
   83SAPS  C220 7827   5.912   4.602   9.199  0.2278 -0.3571 -0.3531
   83SAPS  H20R 7828   5.856   4.531   9.264 -0.9145  1.7542  1.0043
   83SAPS  H20S 7829   6.003   4.561   9.150 -0.5752  0.1099 -2.2885
   83SAPS  H20T 7830   5.842   4.628   9.117 -0.4396 -1.9110 -0.3125
   83SAPS   C33 7831   6.420   5.025  10.251  0.3198 -0.2535 -0.3917
   83SAPS   H3X 7832   6.436   4.920  10.220  1.8304  0.5285 -2.4026
   83SAPS   H3Y 7833   6.506   5.041  10.320 -0.0604 -2.5852  0.6568
   83SAPS   C34 7834   6.429   5.119  10.128  0.5480  0.2830 -0.2170
   83SAPS   H4X 7835   6.525   5.108  10.072 -0.3250  1.2531 -1.9529
   83SAPS   H4Y 7836   6.418   5.222  10.170  0.3719  0.5089 -0.8082
   83SAPS   C35 7837   6.321   5.110  10.018  0.2202  0.1838  0.6834
   83SAPS   H5X 7838   6.215   5.136  10.039 -0.2504 -2.0132  1.1594
   83SAPS   H5Y 7839   6.316   5.000  10.005  0.7110  0.1706  0.5715
   83SAPS   C36 7840   6.351   5.173   9.880 -0.1775  0.0497 -0.6421
   83SAPS   H6X 7841   6.452   5.137   9.851 -0.2804  0.2322 -1.2203
   83SAPS   H6Y 7842   6.355   5.284   9.884 -2.8435  0.3017 -3.2640
   83SAPS   C37 7843   6.258   5.126   9.766  0.0706  0.6522  0.3790
   83SAPS   H7X 7844   6.152   5.126   9.799 -0.5721  0.0029 -1.6131
   83SAPS   H7Y 7845   6.276   5.018   9.749  2.8857  1.3774 -1.5694
   83SAPS   C38 7846   6.286   5.187   9.631  0.2871 -0.4305  0.1470
   83SAPS   H8X 7847   6.395   5.191   9.608  0.0399 -0.5712 -1.1157
   83SAPS   H8Y 7848   6.247   5.290   9.641 -1.6105 -1.4492  4.1679
   83SAPS   C39 7849   6.215   5.115   9.516  0.2161  0.1039 -0.7137
   83SAPS   H9X 7850   6.109   5.090   9.539  1.0140 -2.2457  0.5029
   83SAPS   H9Y 7851   6.280   5.026   9.509  2.0642  1.4692 -1.4140
   83SAPS  C310 7852   6.234   5.189   9.388 -0.1566  0.1502  0.2256
   83SAPS  H10X 7853   6.342   5.214   9.378 -0.1181 -0.4690 -0.9672
   83SAPS  H10Y 7854   6.183   5.286   9.404  1.3639  0.8647  0.8093
   83SAPS  C311 7855   6.191   5.102   9.268 -0.4591  0.2440 -0.6274
   83SAPS  H11X 7856   6.084   5.087   9.293 -0.1517  1.9844  1.8770
   83SAPS  H11Y 7857   6.238   5.002   9.259 -3.7290 -1.3285 -0.8102
   83SAPS  C312 7858   6.207   5.189   9.149  0.0646 -0.3144  0.0959
   83SAPS  H12X 7859   6.311   5.225   9.137 -0.0949  0.9434  2.3332
   83SAPS  H12Y 7860   6.139   5.276   9.148  0.6953  0.2111 -2.6233
   83SAPS  C313 7861   6.174   5.117   9.018 -0.3940 -1.0757 -0.1916
   83SAPS  H13X 7862   6.066   5.091   9.009  0.0277 -2.1683 -2.4192
   83SAPS  H13Y 7863   6.243   5.031   9.009  2.1890  1.0341 -1.3544
   83SAPS  C314 7864   6.201   5.202   8.895  0.4416  0.2411  0.3616
   83SAPS  H14X 7865   6.306   5.238   8.887  0.6900 -0.7404 -0.9798
   83SAPS  H14Y 7866   6.136   5.291   8.910 -0.0227 -0.2034  1.0198
   83SAPS  C315 7867   6.156   5.138   8.759 -0.4192  0.3465 -0.2135
   83SAPS  H15X 7868   6.208   5.040   8.753 -0.2440  0.4310 -0.0628
   83SAPS  H15Y 7869   6.211   5.204   8.688  0.9631  1.0764  1.5116
   83SAPS  C316 7870   6.007   5.132   8.755  1.1945  0.2490  0.0109
   83SAPS  H16X 7871   5.957   5.230   8.770  2.3112  0.8727 -0.2116
   83SAPS  H16Y 7872   5.967   5.072   8.839  0.2481 -2.1613 -2.1062
   83SAPS  C317 7873   5.952   5.067   8.621 -0.4022 -0.0216  0.2226
   83SAPS  H17X 7874   6.002   5.105   8.530 -1.2659  1.4553  0.3666
   83SAPS  H17Y 7875   5.845   5.090   8.608  0.1772  0.6790 -3.8133
   83SAPS  C318 7876   5.978   4.910   8.638  0.3893  0.1644 -0.3568
   83SAPS  H18X 7877   5.935   4.861   8.548 -0.1070  0.9081 -0.5309
   83SAPS  H18Y 7878   5.908   4.870   8.715 -0.9012  1.8447 -0.6377
   83SAPS  H18Z 7879   6.083   4.880   8.660  0.0241 -0.7748  0.1437
   84SAPS     N 7880   1.178   4.681  11.326 -0.4049 -0.7765 -0.5336
   84SAPS   HN1 7881   1.160   4.604  11.258 -0.2670 -2.1272  0.9276
   84SAPS   HN2 7882   1.253   4.744  11.291  1.3535 -2.9673 -0.7858
   84SAPS   HN3 7883   1.208   4.649  11.420 -0.8926  0.4344  0.0528
   84SAPS   C12 7884   1.061   4.766  11.331 -0.5111 -0.3004  0.4838
   84SAPS  H12A 7885   0.976   4.721  11.381 -0.2990 -0.3769  0.7735
   84SAPS   C13 7886   1.079   4.907  11.413  0.0568  0.3871  0.6335
   84SAPS  O13A 7887   1.189   4.939  11.465  0.8212  0.0844 -0.2389
   84SAPS  O13B 7888   0.969   4.956  11.440  0.2328 -0.0785 -0.3482
   84SAPS   C11 7889   1.010   4.786  11.193  0.4088 -1.1157  0.2140
   84SAPS  H11A 7890   1.094   4.824  11.130 -0.4509 -1.3539 -1.1046
   84SAPS  H11B 7891   0.945   4.876  11.183  0.8916 -0.6911  0.8194
   84SAPS     P 7892   1.018   4.590  11.031  0.0910 -0.2382 -0.1022
   84SAPS   O13 7893   1.134   4.527  11.107 -0.4165  0.3804  0.0088
   84SAPS   O14 7894   0.919   4.493  10.969 -0.1821 -0.0051 -0.0044
   84SAPS   O12 7895   0.938   4.673  11.134  0.4414 -0.3362  0.0986
   84SAPS   O11 7896   1.063   4.697  10.920 -0.2696  0.5406 -0.0502
   84SAPS    C1 7897   0.970   4.781  10.853 -0.2653  0.5978  0.6359
   84SAPS    HA 7898   0.878   4.809  10.909 -0.8696 -1.4790  0.7133
   84SAPS    HB 7899   1.023   4.876  10.834  0.0453  0.3115  0.0569
   84SAPS    C2 7900   0.931   4.721  10.715 -0.1949 -0.0152  0.0342
   84SAPS    HS 7901   0.872   4.629  10.736  1.5108 -1.1915 -0.2518
   84SAPS   O21 7902   1.051   4.687  10.651  0.1687 -0.2645 -0.2623
   84SAPS   C21 7903   1.076   4.566  10.615 -0.3079 -0.1572  0.0818
   84SAPS   O22 7904   1.013   4.469  10.653 -0.1341  0.2292 -1.0766
   84SAPS   C22 7905   1.194   4.569  10.520 -0.0513  0.8402  0.3767
   84SAPS   H2R 7906   1.220   4.674  10.494 -0.7766  0.1869 -3.2515
   84SAPS   H2S 7907   1.274   4.522  10.581 -0.2379  0.7248  0.5335
   84SAPS    C3 7908   0.845   4.833  10.635  0.6495 -0.4315  0.3964
   84SAPS    HX 7909   0.918   4.917  10.642 -0.7498  1.0088 -1.9333
   84SAPS    HY 7910   0.748   4.841  10.688 -1.5489 -1.4773 -3.2957
   84SAPS   O31 7911   0.839   4.794  10.496 -0.2141  0.0185  0.7297
   84SAPS   C31 7912   0.764   4.691  10.483  0.0346  0.3443 -0.6243
   84SAPS   O32 7913   0.687   4.646  10.571 -0.1145  0.4298  0.3568
   84SAPS   C32 7914   0.786   4.628  10.348  0.5373 -0.5120 -0.4765
   84SAPS   H2X 7915   0.892   4.637  10.318  1.3105 -2.1310  1.6031
   84SAPS   H2Y 7916   0.722   4.698  10.290 -0.1340 -1.3086 -0.7130
   84SAPS   C23 7917   1.161   4.485  10.394  0.3505  0.1463  0.0761
   84SAPS   H3R 7918   1.100   4.550  10.329  0.3908 -0.9560 -1.0709
   84SAPS   H3S 7919   1.105   4.392  10.418  1.0809 -0.1242  0.7768
   84SAPS   C24 7920   1.290   4.450  10.322 -0.0062  0.0324  0.0382
   84SAPS   H4R 7921   1.272   4.368  10.250  0.7161 -0.3363  0.2703
   84SAPS   H4S 7922   1.359   4.413  10.401  0.1940  0.7188  0.1865
   84SAPS   C25 7923   1.361   4.561  10.249  0.9883 -0.5753 -0.8480
   84SAPS   H5R 7924   1.420   4.634  10.306  0.9474  0.1581 -1.7456
   84SAPS   C26 7925   1.333   4.597  10.119  0.0551 -0.9924  0.1635
   84SAPS   H6R 7926   1.392   4.681  10.079 -0.7457 -0.2953  0.4267
   84SAPS   C27 7927   1.249   4.515  10.020 -0.4830  0.3035  0.4807
   84SAPS   H7R 7928   1.232   4.408  10.047  0.5350  1.2731  5.4328
   84SAPS   H7S 7929   1.308   4.508   9.926  2.0017  2.9440  1.7698
   84SAPS   C28 7930   1.119   4.580  10.003  0.3390  0.0964 -0.7888
   84SAPS   H8R 7931   1.055   4.556  10.089 -0.0811 -1.8068 -1.6134
   84SAPS   C29 7932   1.065   4.653   9.912 -0.1249  0.2081  0.5665
   84SAPS   H9R 7933   0.961   4.687   9.928 -0.5421  0.6088 -2.7646
   84SAPS  C210 7934   1.130   4.718   9.794  0.8323  0.7665 -0.1944
   84SAPS  H10R 7935   1.239   4.734   9.808  0.8812  0.3559 -0.1145
   84SAPS  H10S 7936   1.086   4.820   9.787  1.6674  1.0302 -1.9682
   84SAPS  C211 7937   1.100   4.637   9.663  0.8147 -0.6465  0.2138
   84SAPS  H11R 7938   1.181   4.562   9.657  1.4747  0.0464  0.4153
   84SAPS  C212 7939   1.001   4.640   9.572 -0.1835  0.7874 -0.0556
   84SAPS  H12R 7940   1.008   4.563   9.494 -0.9178  0.7657 -0.1084
   84SAPS  C213 7941   0.885   4.732   9.565 -0.1849 -0.0766  0.6200
   84SAPS  H13R 7942   0.880   4.805   9.648 -1.6918  0.7320 -0.1702
   84SAPS  H13S 7943   0.787   4.680   9.574 -0.4462  0.1397 -0.7852
   84SAPS  C214 7944   0.889   4.825   9.439 -0.7865 -0.2450  0.3655
   84SAPS  H14R 7945   0.956   4.912   9.448  1.8423 -2.1921  0.2858
   84SAPS  C215 7946   0.819   4.800   9.323  0.4992  0.4662  0.2634
   84SAPS  H15R 7947   0.838   4.863   9.235  0.6440 -2.0304 -1.5363
   84SAPS  C216 7948   0.735   4.677   9.289  0.0371 -0.0393  0.4815
   84SAPS  H16R 7949   0.630   4.710   9.272 -0.5272 -0.8307  2.3300
   84SAPS  H16S 7950   0.748   4.588   9.354  1.9784 -1.6561 -2.0039
   84SAPS  C217 7951   0.759   4.618   9.146 -0.3046  0.3783 -0.0432
   84SAPS  H17R 7952   0.726   4.692   9.069  0.6215 -0.9837 -1.7657
   84SAPS  H17S 7953   0.701   4.524   9.138 -2.0993  1.2822  1.6952
   84SAPS  C218 7954   0.908   4.582   9.134 -0.6918  0.1505 -0.2497
   84SAPS  H18R 7955   0.941   4.515   9.216 -2.6487 -0.8343 -0.2289
   84SAPS  H18S 7956   0.970   4.672   9.149 -1.7337  1.2309 -2.2073
   84SAPS  C219 7957   0.933   4.537   8.986 -0.4252  0.2426  0.5762
   84SAPS  H19R 7958   0.902   4.617   8.915  2.2613 -0.1187 -1.0702
   84SAPS  H19S 7959   0.864   4.450   8.975 -1.2648  0.8132  1.2550
   84SAPS  C220 7960   1.085   4.502   8.953  0.7213 -0.2333  0.4713
   84SAPS  H20R 7961   1.143   4.590   8.915  0.6606 -1.1848 -1.9027
   84SAPS  H20S 7962   1.083   4.433   8.866 -0.4487 -1.2834  1.3330
   84SAPS  H20T 7963   1.134   4.453   9.039  0.2836 -2.4195 -0.4979
   84SAPS   C33 7964   0.744   4.480  10.326 -0.5375  0.1680 -0.4658
   84SAPS   H3X 7965   0.633   4.471  10.323 -0.4392 -0.4298 -4.2925
   84SAPS   H3Y 7966   0.776   4.413  10.408 -0.8013  0.4099 -0.1624
   84SAPS   C34 7967   0.797   4.422  10.195  0.3066 -0.5772  0.6783
   84SAPS   H4X 7968   0.807   4.314  10.222  0.1504 -0.7263  0.1512
   84SAPS   H4Y 7969   0.903   4.445  10.175 -0.3857  1.0873 -1.2624
   84SAPS   C35 7970   0.701   4.455  10.073 -0.3668  0.2589 -0.1514
   84SAPS   H5X 7971   0.678   4.564  10.072 -0.6007  0.2410  1.8647
   84SAPS   H5Y 7972   0.608   4.394  10.080 -0.5959  0.8465  2.2577
   84SAPS   C36 7973   0.769   4.429   9.937  0.6659  0.4145  0.2814
   84SAPS   H6X 7974   0.861   4.492   9.938 -0.7762  2.5837 -1.1182
   84SAPS   H6Y 7975   0.706   4.474   9.857  0.0214  0.2395  0.6919
   84SAPS   C37 7976   0.809   4.284   9.906 -0.3902 -0.7206  0.3780
   84SAPS   H7X 7977   0.730   4.207   9.921  0.3720 -1.9633 -1.7243
   84SAPS   H7Y 7978   0.896   4.270   9.973 -0.1796 -2.1175 -0.1563
   84SAPS   C38 7979   0.870   4.261   9.758 -0.0297  0.2409  0.4295
   84SAPS   H8X 7980   0.898   4.154   9.744 -1.6662 -0.0857 -0.4273
   84SAPS   H8Y 7981   0.964   4.320   9.753 -0.9198  1.5574 -1.2360
   84SAPS   C39 7982   0.780   4.299   9.645 -0.2474  0.2940 -0.6974
   84SAPS   H9X 7983   0.744   4.404   9.657  0.5082  0.4132  0.6363
   84SAPS   H9Y 7984   0.692   4.232   9.657  0.4002 -0.7486 -1.6525
   84SAPS  C310 7985   0.841   4.284   9.506 -0.2682 -0.0397  0.1129
   84SAPS  H10X 7986   0.931   4.218   9.512  0.7944  1.1582 -1.8908
   84SAPS  H10Y 7987   0.881   4.383   9.475 -2.9521  1.0280 -0.0718
   84SAPS  C311 7988   0.751   4.228   9.402  0.8358  0.3572  0.4653
   84SAPS  H11X 7989   0.668   4.297   9.377  0.5579  0.8594  2.7094
   84SAPS  H11Y 7990   0.703   4.137   9.442 -0.4857  1.1401  0.6980
   84SAPS  C312 7991   0.824   4.172   9.270 -0.1935 -0.0208 -1.1247
   84SAPS  H12X 7992   0.914   4.129   9.320 -0.2377  2.3255  1.0793
   84SAPS  H12Y 7993   0.859   4.264   9.219 -1.0643  0.9822  0.0576
   84SAPS  C313 7994   0.743   4.073   9.195  0.1743  0.2985 -0.8140
   84SAPS  H13X 7995   0.658   4.133   9.157 -0.1840 -0.2700 -0.9119
   84SAPS  H13Y 7996   0.706   3.988   9.254  0.4960  1.0317  0.4570
   84SAPS  C314 7997   0.820   4.006   9.079  0.4112 -0.2464  0.8254
   84SAPS  H14X 7998   0.871   3.921   9.128  0.2646 -0.5801  0.3974
   84SAPS  H14Y 7999   0.884   4.080   9.026 -0.6165  0.2125  0.1980
   84SAPS  C315 8000   0.723   3.936   8.976 -0.0567 -0.0890  0.0677
   84SAPS  H15X 8001   0.647   4.016   8.960 -1.6148 -1.2420  1.5604
   84SAPS  H15Y 8002   0.660   3.862   9.029 -0.1098  0.7372  1.1777
   84SAPS  C316 8003   0.783   3.866   8.849  0.5800 -0.0530  0.0872
   84SAPS  H16X 8004   0.837   3.773   8.880  0.8949 -0.1375 -0.6954
   84SAPS  H16Y 8005   0.841   3.946   8.798  0.5928  0.1145  0.3645
   84SAPS  C317 8006   0.669   3.814   8.753  0.1569  0.0896 -0.2566
   84SAPS  H17X 8007   0.618   3.890   8.691 -0.7667 -0.2010  0.1362
   84SAPS  H17Y 8008   0.594   3.764   8.818  0.2882 -0.8045 -0.7817
   84SAPS  C318 8009   0.740   3.712   8.657  0.4764  1.0618  0.1104
   84SAPS  H18X 8010   0.790   3.642   8.727  1.2020 -2.1412 -3.4208
   84SAPS  H18Y 8011   0.815   3.762   8.593  1.0989 -0.2196 -0.1838
   84SAPS  H18Z 8012   0.658   3.661   8.601 -1.0625  1.5057  1.8973
   85SAPS     N 8013   4.887   6.295  10.908 -0.6538  0.0379 -0.0276
   85SAPS   HN1 8014   4.883   6.344  10.816  0.6094  2.9104  1.4228
   85SAPS   HN2 8015   4.983   6.303  10.945 -1.4867  0.7921  2.0471
   85SAPS   HN3 8016   4.871   6.195  10.883 -1.1457  0.4217 -1.2941
   85SAPS   C12 8017   4.781   6.344  11.001  0.1537  0.2604 -0.2423
   85SAPS  H12A 8018   4.792   6.300  11.099 -1.3701 -0.8380 -0.5513
   85SAPS   C13 8019   4.759   6.495  11.027 -0.4595  0.2473  1.0958
   85SAPS  O13A 8020   4.818   6.586  10.962 -0.3564  0.6364 -0.1606
   85SAPS  O13B 8021   4.655   6.528  11.097  0.2301  0.0726 -0.4418
   85SAPS   C11 8022   4.655   6.286  10.933  0.6286 -0.0358  0.0307
   85SAPS  H11A 8023   4.634   6.341  10.839  3.4506 -1.0762 -1.2528
   85SAPS  H11B 8024   4.572   6.299  11.006  1.5909  0.4979  1.0441
   85SAPS     P 8025   4.524   6.071  10.867  0.4920  0.0904  0.1371
   85SAPS   O13 8026   4.517   5.945  10.946 -0.3929 -0.3715  0.2864
   85SAPS   O14 8027   4.407   6.163  10.872 -0.6406  0.5815 -0.3038
   85SAPS   O12 8028   4.660   6.141  10.904  0.5458  0.0774  0.2367
   85SAPS   O11 8029   4.554   6.038  10.713  0.2389  0.4599 -0.4796
   85SAPS    C1 8030   4.670   5.956  10.693  0.0315 -0.2610 -0.3667
   85SAPS    HA 8031   4.730   5.926  10.782  0.6291  1.6682 -0.0981
   85SAPS    HB 8032   4.633   5.858  10.657  0.7786 -0.1359 -1.5123
   85SAPS    C2 8033   4.770   6.018  10.590  0.2831  0.9736 -0.4660
   85SAPS    HS 8034   4.813   6.107  10.641 -0.3450  1.2935 -0.4948
   85SAPS   O21 8035   4.688   6.048  10.477 -0.4337  0.7984 -0.3346
   85SAPS   C21 8036   4.724   6.152  10.412 -0.0275  0.3863  0.0997
   85SAPS   O22 8037   4.812   6.237  10.438  0.1275  0.0048  0.6720
   85SAPS   C22 8038   4.640   6.160  10.276 -1.1696  0.1173  0.0610
   85SAPS   H2R 8039   4.682   6.081  10.210 -2.9235 -1.4678  0.7898
   85SAPS   H2S 8040   4.538   6.128  10.305 -0.8442  0.5920  1.8118
   85SAPS    C3 8041   4.886   5.925  10.547 -0.2042  0.0918  0.0377
   85SAPS    HX 8042   4.839   5.829  10.518  0.3882 -0.1156 -0.2458
   85SAPS    HY 8043   4.957   5.905  10.629 -0.3921 -0.7400 -0.0067
   85SAPS   O31 8044   4.953   5.978  10.429 -0.3993  0.0497 -0.4199
   85SAPS   C31 8045   5.055   6.058  10.438 -0.0732  0.6672 -0.0190
   85SAPS   O32 8046   5.099   6.102  10.545 -0.6607 -0.0594  0.5007
   85SAPS   C32 8047   5.112   6.072  10.294 -0.3919 -0.5553  0.7152
   85SAPS   H2X 8048   5.165   5.978  10.270  2.1589  0.4222  2.3484
   85SAPS   H2Y 8049   5.191   6.150  10.291 -0.2412 -0.7411 -1.1924
   85SAPS   C23 8050   4.648   6.299  10.214 -0.2987  0.3278  0.2000
   85SAPS   H3R 8051   4.751   6.309  10.172  0.7076 -2.4976  1.8485
   85SAPS   H3S 8052   4.647   6.371  10.298  0.8264  0.4506  0.1236
   85SAPS   C24 8053   4.534   6.321  10.112  0.2847 -0.0615 -0.6637
   85SAPS   H4R 8054   4.435   6.283  10.145 -0.8966  3.5541  0.1575
   85SAPS   H4S 8055   4.557   6.273  10.014  0.2725 -0.6140 -0.3975
   85SAPS   C25 8056   4.509   6.469  10.102  0.6772 -0.5288 -0.7527
   85SAPS   H5R 8057   4.518   6.518  10.200  0.2847 -0.0504 -0.9489
   85SAPS   C26 8058   4.477   6.549   9.999  0.5973  0.1139  0.2057
   85SAPS   H6R 8059   4.463   6.656  10.016 -2.4689 -0.2753  0.3269
   85SAPS   C27 8060   4.453   6.501   9.859 -0.7436 -0.0955  0.3520
   85SAPS   H7R 8061   4.421   6.588   9.797 -2.9235 -1.3031 -0.2556
   85SAPS   H7S 8062   4.378   6.420   9.856 -0.0265 -0.7163 -3.2575
   85SAPS   C28 8063   4.588   6.456   9.792  0.1890 -1.1728 -0.2785
   85SAPS   H8R 8064   4.595   6.347   9.796  1.4009 -1.1395 -1.0316
   85SAPS   C29 8065   4.674   6.536   9.722  0.1549 -0.3520  0.0296
   85SAPS   H9R 8066   4.764   6.492   9.678 -0.1091 -0.5399 -0.3216
   85SAPS  C210 8067   4.656   6.678   9.703 -0.1432  0.3108  0.7138
   85SAPS  H10R 8068   4.754   6.726   9.719 -2.3578  5.3488  0.1167
   85SAPS  H10S 8069   4.583   6.724   9.772 -0.7775 -0.8675  0.8597
   85SAPS  C211 8070   4.602   6.706   9.566 -0.5585  0.1382 -0.2461
   85SAPS  H11R 8071   4.493   6.717   9.558 -0.6865 -1.8406 -1.5647
   85SAPS  C212 8072   4.675   6.714   9.453  0.5856  0.4057  0.7310
   85SAPS  H12R 8073   4.620   6.738   9.361  0.0097 -0.2072  0.9124
   85SAPS  C213 8074   4.824   6.689   9.444  0.1856 -0.6210 -0.3768
   85SAPS  H13R 8075   4.836   6.581   9.421 -1.6753 -1.1747  1.1029
   85SAPS  H13S 8076   4.870   6.710   9.544 -2.0459  0.2730  0.4831
   85SAPS  C214 8077   4.894   6.777   9.346 -0.2413  0.0669  0.4985
   85SAPS  H14R 8078   4.933   6.865   9.399 -0.7822  0.4715  0.2324
   85SAPS  C215 8079   4.928   6.744   9.217 -0.3206 -0.2047 -0.0959
   85SAPS  H15R 8080   5.000   6.806   9.160 -0.1650 -0.7569 -0.4991
   85SAPS  C216 8081   4.891   6.611   9.152  0.1270 -0.0498 -0.4226
   85SAPS  H16R 8082   4.895   6.535   9.232  1.9316  0.5522  0.0995
   85SAPS  H16S 8083   4.966   6.586   9.073  1.0400  0.0558  0.4019
   85SAPS  C217 8084   4.744   6.605   9.096  0.9041  0.5153  0.1752
   85SAPS  H17R 8085   4.673   6.606   9.182  2.2128  0.1336  1.2693
   85SAPS  H17S 8086   4.726   6.507   9.048 -0.1884  1.8742 -2.3230
   85SAPS  C218 8087   4.721   6.710   8.985  0.2504  0.3683  0.3648
   85SAPS  H18R 8088   4.815   6.768   8.974  1.9859 -2.5506 -0.8011
   85SAPS  H18S 8089   4.636   6.774   9.017 -1.7214 -0.5591 -2.8285
   85SAPS  C219 8090   4.675   6.636   8.858 -0.3211  0.1154 -0.0598
   85SAPS  H19R 8091   4.585   6.577   8.884 -1.4349  1.6373 -0.3859
   85SAPS  H19S 8092   4.756   6.568   8.823 -3.0283 -1.1963 -4.1552
   85SAPS  C220 8093   4.655   6.733   8.738  0.2221 -0.2329 -1.1281
   85SAPS  H20R 8094   4.576   6.807   8.761  0.2785 -0.5754  0.1768
   85SAPS  H20S 8095   4.633   6.674   8.646 -1.3588  1.2471 -1.7210
   85SAPS  H20T 8096   4.748   6.793   8.731 -0.9660  1.8687  0.5074
   85SAPS   C33 8097   5.010   6.108  10.181  0.2619  0.0436  0.1776
   85SAPS   H3X 8098   4.953   6.201  10.203 -0.6543 -0.3797 -0.3806
   85SAPS   H3Y 8099   4.934   6.027  10.181  0.9227 -0.5779  0.5726
   85SAPS   C34 8100   5.081   6.103  10.043  0.1224 -0.2338  0.1105
   85SAPS   H4X 8101   5.140   6.010  10.028 -0.6650 -1.1900  2.6754
   85SAPS   H4Y 8102   5.163   6.178  10.050  2.8033 -3.0631  0.4319
   85SAPS   C35 8103   4.986   6.134   9.923 -0.0822 -0.1399 -0.7896
   85SAPS   H5X 8104   4.964   6.242   9.925  2.1524  0.3551 -0.7541
   85SAPS   H5Y 8105   4.891   6.077   9.931  0.1588 -0.2856  1.3018
   85SAPS   C36 8106   5.056   6.119   9.791  0.4848 -0.4348 -0.2942
   85SAPS   H6X 8107   5.098   6.017   9.776 -0.1762 -1.0227  1.7664
   85SAPS   H6Y 8108   5.149   6.178   9.779 -0.4358  0.8535 -1.2297
   85SAPS   C37 8109   4.954   6.140   9.677  0.2751 -0.1503 -0.5629
   85SAPS   H7X 8110   4.923   6.246   9.688 -1.1167 -0.5657 -0.4229
   85SAPS   H7Y 8111   4.863   6.077   9.684 -1.4156  2.2921  0.0453
   85SAPS   C38 8112   5.012   6.105   9.538 -0.3539  0.5097 -0.0357
   85SAPS   H8X 8113   5.062   6.006   9.547  0.9489  0.9915 -1.6759
   85SAPS   H8Y 8114   5.079   6.185   9.499  0.2695  1.0151  2.0125
   85SAPS   C39 8115   4.907   6.079   9.426  0.4048 -1.1774 -0.0725
   85SAPS   H9X 8116   4.863   5.979   9.446 -1.2075 -0.3490  0.6234
   85SAPS   H9Y 8117   4.967   6.080   9.332 -0.1165  2.2635 -0.4237
   85SAPS  C310 8118   4.799   6.188   9.430 -0.1390 -0.0308  0.1190
   85SAPS  H10X 8119   4.850   6.286   9.433 -0.0490 -0.0521 -0.5437
   85SAPS  H10Y 8120   4.733   6.193   9.519  0.0321  0.0213  0.2415
   85SAPS  C311 8121   4.709   6.186   9.309 -0.6914 -0.0386 -0.2001
   85SAPS  H11X 8122   4.655   6.089   9.304  0.6674 -0.7479 -1.6446
   85SAPS  H11Y 8123   4.770   6.182   9.215 -1.3790 -0.1744 -0.6466
   85SAPS  C312 8124   4.598   6.292   9.316 -0.8189 -0.0041  0.0109
   85SAPS  H12X 8125   4.643   6.393   9.324 -1.8277  0.2709  2.6551
   85SAPS  H12Y 8126   4.536   6.282   9.407 -1.2889 -0.0641 -0.3115
   85SAPS  C313 8127   4.523   6.292   9.189 -0.2736  0.6192 -0.0988
   85SAPS  H13X 8128   4.456   6.203   9.184 -0.1391  0.5158 -0.0698
   85SAPS  H13Y 8129   4.595   6.274   9.106  1.1137  0.4392  1.1259
   85SAPS  C314 8130   4.422   6.418   9.163 -0.6557  1.0154  1.0827
   85SAPS  H14X 8131   4.464   6.519   9.178 -0.9424  1.4251 -0.7525
   85SAPS  H14Y 8132   4.348   6.399   9.243  0.3157 -2.5318  1.2406
   85SAPS  C315 8133   4.364   6.416   9.018  0.2817 -0.5477 -0.3758
   85SAPS  H15X 8134   4.323   6.315   8.999  1.7425 -1.1718 -0.2169
   85SAPS  H15Y 8135   4.451   6.449   8.958  0.6777  1.8435  1.4142
   85SAPS  C316 8136   4.268   6.536   8.989 -0.3024 -0.1773 -0.1636
   85SAPS  H16X 8137   4.319   6.632   9.012  1.0992 -1.1347  0.8357
   85SAPS  H16Y 8138   4.185   6.530   9.063  1.0901 -0.2026  1.4407
   85SAPS  C317 8139   4.198   6.542   8.854 -0.3763  0.4647  0.0756
   85SAPS  H17X 8140   4.109   6.605   8.875  1.7323  3.1245  1.3197
   85SAPS  H17Y 8141   4.164   6.441   8.823 -1.8941  1.2540 -0.8878
   85SAPS  C318 8142   4.290   6.597   8.746  0.0807  0.0501 -0.8137
   85SAPS  H18X 8143   4.392   6.553   8.753  0.1182  0.4626  1.4702
   85SAPS  H18Y 8144   4.305   6.706   8.764  1.1420 -0.4825  1.7348
   85SAPS  H18Z 8145   4.256   6.593   8.640  0.2075  0.0123 -0.8522
   86SAPS     N 8146   6.746   0.069  11.128  0.2885 -0.3582  0.1101
   86SAPS   HN1 8147   6.746   0.105  11.031  0.9355  0.7403  0.5078
   86SAPS   HN2 8148   6.646   0.054  11.154  0.5630 -0.0591  1.3902
   86SAPS   HN3 8149   6.786   0.132  11.200  0.4749 -0.3656  0.0144
   86SAPS   C12 8150   6.811  -0.074  11.138  0.1082 -0.1793  0.6228
   86SAPS  H12A 8151   6.858  -0.062  11.235 -0.3726  0.9410  0.7209
   86SAPS   C13 8152   6.703  -0.185  11.147  0.8641  0.6893  0.0734
   86SAPS  O13A 8153   6.583  -0.150  11.180  0.3413  0.1247 -0.5341
   86SAPS  O13B 8154   6.745  -0.303  11.141  0.1062  0.1466  0.1052
   86SAPS   C11 8155   6.905  -0.106  11.016  0.0119  0.6018  0.1877
   86SAPS  H11A 8156   6.842  -0.108  10.924  0.6695  1.5668 -0.2866
   86SAPS  H11B 8157   6.936  -0.210  11.042  2.8164  1.8509  2.0331
   86SAPS     P 8158   7.130  -0.063  10.904  0.1052  0.0766 -0.1629
   86SAPS   O13 8159   7.216   0.051  10.882 -0.1994 -0.2179 -0.5520
   86SAPS   O14 8160   7.198  -0.190  10.948  0.0945  0.3728  0.2909
   86SAPS   O12 8161   7.017  -0.024  11.011 -0.6882  0.3910 -0.3441
   86SAPS   O11 8162   7.059  -0.092  10.773 -0.5462 -0.3745  0.1176
   86SAPS    C1 8163   6.972   0.004  10.707  0.1427  0.5836  0.4902
   86SAPS    HA 8164   6.870  -0.040  10.707  0.9875 -1.4631  1.4074
   86SAPS    HB 8165   6.968   0.101  10.760 -2.2999  0.1655  1.0984
   86SAPS    C2 8166   6.998   0.029  10.559 -0.4753  0.6892  0.5340
   86SAPS    HS 8167   6.928   0.102  10.514 -0.1020  2.2115  2.3612
   86SAPS   O21 8168   6.993  -0.094  10.485  0.6378 -0.1248 -0.8534
   86SAPS   C21 8169   6.871  -0.127  10.453  0.5956 -0.4482  0.1467
   86SAPS   O22 8170   6.771  -0.065  10.492 -0.8927 -0.0849 -0.1776
   86SAPS   C22 8171   6.864  -0.253  10.368  0.8257  0.0910 -0.4062
   86SAPS   H2R 8172   6.969  -0.289  10.367  0.5951 -0.5844 -2.4927
   86SAPS   H2S 8173   6.795  -0.326  10.416  0.6257  0.0438 -0.7610
   86SAPS    C3 8174   7.146   0.087  10.544  0.3946  0.1409  0.0904
   86SAPS    HX 8175   7.210   0.013  10.597  0.4279 -1.2068 -1.8029
   86SAPS    HY 8176   7.154   0.177  10.608  0.2069  0.6875 -0.6487
   86SAPS   O31 8177   7.182   0.113  10.403  0.1757 -0.1582 -0.0639
   86SAPS   C31 8178   7.266   0.027  10.343 -0.0343  0.7687 -0.4380
   86SAPS   O32 8179   7.306  -0.074  10.399  0.0237  0.0781  0.2877
   86SAPS   C32 8180   7.299   0.079  10.200 -0.7633  0.5572 -0.0351
   86SAPS   H2X 8181   7.410   0.076  10.196 -0.7617  0.9310 -0.2618
   86SAPS   H2Y 8182   7.260   0.181  10.179 -1.2813  0.4674  0.4865
   86SAPS   C23 8183   6.807  -0.232  10.224 -0.2268  1.0235 -0.4243
   86SAPS   H3R 8184   6.819  -0.331  10.175  0.3250  1.3405 -0.9519
   86SAPS   H3S 8185   6.864  -0.156  10.166 -1.8292  0.4191 -2.8456
   86SAPS   C24 8186   6.658  -0.182  10.221 -0.4046 -0.0662  0.8044
   86SAPS   H4R 8187   6.656  -0.081  10.267  1.8940 -0.5802  2.1031
   86SAPS   H4S 8188   6.587  -0.233  10.289 -1.3790  0.5838  0.2873
   86SAPS   C25 8189   6.596  -0.184  10.086  0.7559 -0.0389  0.7069
   86SAPS   H5R 8190   6.618  -0.096  10.024  3.4044 -1.1803 -0.0299
   86SAPS   C26 8191   6.525  -0.290  10.046  0.6021  0.4318 -0.0346
   86SAPS   H6R 8192   6.495  -0.288   9.940  0.5092 -1.4014 -0.0539
   86SAPS   C27 8193   6.484  -0.416  10.119 -0.1848  0.0232  0.5479
   86SAPS   H7R 8194   6.497  -0.411  10.229 -1.3497 -0.2494  0.7063
   86SAPS   H7S 8195   6.560  -0.491  10.088  0.2708  1.2696 -1.4866
   86SAPS   C28 8196   6.360  -0.491  10.080  0.4025 -0.5465 -0.2864
   86SAPS   H8R 8197   6.299  -0.507  10.170  1.0527  1.6095  0.5690
   86SAPS   C29 8198   6.314  -0.557   9.969 -0.5522  0.4467 -0.0341
   86SAPS   H9R 8199   6.215  -0.605   9.977  0.9642 -2.4930  1.5691
   86SAPS  C210 8200   6.392  -0.562   9.841 -0.4007 -0.1468  0.2287
   86SAPS  H10R 8201   6.386  -0.668   9.806 -0.9589 -0.1711  0.3999
   86SAPS  H10S 8202   6.497  -0.527   9.856 -0.5350  0.2720  0.1805
   86SAPS  C211 8203   6.327  -0.468   9.737  0.8606 -0.4232 -0.4664
   86SAPS  H11R 8204   6.279  -0.379   9.781  1.4203 -0.9234  1.1867
   86SAPS  C212 8205   6.308  -0.493   9.607  0.0302  0.1707  0.9163
   86SAPS  H12R 8206   6.267  -0.413   9.544  1.4618  0.6100  0.5047
   86SAPS  C213 8207   6.361  -0.618   9.535 -0.1766 -0.2845 -0.5044
   86SAPS  H13R 8208   6.302  -0.710   9.555 -0.8610 -0.6572 -3.9148
   86SAPS  H13S 8209   6.466  -0.633   9.570 -0.4779 -2.7298 -0.5685
   86SAPS  C214 8210   6.374  -0.595   9.388  0.1912 -0.4724  0.0756
   86SAPS  H14R 8211   6.425  -0.503   9.354  2.0802 -1.8958 -1.0493
   86SAPS  C215 8212   6.343  -0.687   9.293 -0.4240  0.1949  0.3697
   86SAPS  H15R 8213   6.374  -0.657   9.192 -0.1908 -0.8353  0.1275
   86SAPS  C216 8214   6.291  -0.824   9.305  0.2396  0.8496 -0.8878
   86SAPS  H16R 8215   6.247  -0.850   9.403  0.8744  3.5484  0.1546
   86SAPS  H16S 8216   6.374  -0.895   9.285  1.0583  0.7982  2.4131
   86SAPS  C217 8217   6.180  -0.856   9.198 -1.4195  0.3826  0.0813
   86SAPS  H17R 8218   6.094  -0.786   9.213 -0.2093  1.8129  0.4123
   86SAPS  H17S 8219   6.133  -0.953   9.222  0.4046 -0.6463 -0.4627
   86SAPS  C218 8220   6.225  -0.852   9.049  0.7651 -0.3839 -0.5820
   86SAPS  H18R 8221   6.206  -0.954   9.010 -0.7278 -0.5714  0.5846
   86SAPS  H18S 8222   6.332  -0.823   9.038  0.4980  0.7271 -0.3131
   86SAPS  C219 8223   6.134  -0.774   8.954 -0.2564  0.3255 -0.1649
   86SAPS  H19R 8224   6.133  -0.674   9.003  0.7682 -0.7631  2.1910
   86SAPS  H19S 8225   6.029  -0.810   8.957  0.7669 -2.9250 -0.4308
   86SAPS  C220 8226   6.195  -0.751   8.817 -0.4216 -1.1160 -0.0857
   86SAPS  H20R 8227   6.291  -0.696   8.823 -0.0060 -1.3441 -3.5258
   86SAPS  H20S 8228   6.134  -0.696   8.742  3.1843  1.3194 -1.3330
   86SAPS  H20T 8229   6.207  -0.849   8.765 -0.3174 -0.0223 -2.1533
   86SAPS   C33 8230   7.251  -0.018  10.090 -0.2776  0.8614 -0.1651
   86SAPS   H3X 8231   7.151  -0.048  10.128  0.4247  0.5967  1.5302
   86SAPS   H3Y 8232   7.318  -0.106  10.092 -0.4216  0.7547  2.6317
   86SAPS   C34 8233   7.255   0.045   9.952  0.7786  0.1034 -0.1258
   86SAPS   H4X 8234   7.339   0.117   9.944  1.9685 -0.8029  3.4866
   86SAPS   H4Y 8235   7.158   0.099   9.942  0.2377 -0.8124  0.1460
   86SAPS   C35 8236   7.266  -0.048   9.831  0.3860 -0.7744 -0.8282
   86SAPS   H5X 8237   7.355  -0.112   9.844 -0.1619 -1.3048  0.4051
   86SAPS   H5Y 8238   7.280   0.014   9.740  0.1489 -0.4925 -0.6750
   86SAPS   C36 8239   7.142  -0.140   9.811  0.1881 -0.1323  0.1436
   86SAPS   H6X 8240   7.050  -0.098   9.857  0.2802  0.3414 -0.1079
   86SAPS   H6Y 8241   7.175  -0.220   9.881 -1.7610 -0.1587  1.0753
   86SAPS   C37 8242   7.119  -0.178   9.666  0.2861 -0.9777 -0.4854
   86SAPS   H7X 8243   7.101  -0.087   9.605  0.1533  1.2759  2.8570
   86SAPS   H7Y 8244   7.017  -0.221   9.656 -0.6256  1.1852 -0.6512
   86SAPS   C38 8245   7.222  -0.273   9.604 -0.2367  0.6944 -0.5866
   86SAPS   H8X 8246   7.195  -0.378   9.629  0.7366  0.4576 -0.5011
   86SAPS   H8Y 8247   7.323  -0.238   9.636 -0.4708  2.2219 -1.4777
   86SAPS   C39 8248   7.226  -0.275   9.450 -0.0697 -0.2088  0.7250
   86SAPS   H9X 8249   7.121  -0.289   9.416  0.5322  0.1650 -1.3662
   86SAPS   H9Y 8250   7.285  -0.360   9.410  3.3516  1.7453  1.4398
   86SAPS  C310 8251   7.278  -0.138   9.390  0.2751  0.4766 -0.3899
   86SAPS  H10X 8252   7.350  -0.104   9.468  0.5442 -0.5552 -0.1811
   86SAPS  H10Y 8253   7.199  -0.061   9.379  0.4884  0.6161 -0.9648
   86SAPS  C311 8254   7.340  -0.149   9.252 -0.5306 -0.6058 -0.6313
   86SAPS  H11X 8255   7.421  -0.225   9.250 -0.1577 -0.2151 -0.5095
   86SAPS  H11Y 8256   7.399  -0.060   9.224  2.6920 -2.4149  0.1476
   86SAPS  C312 8257   7.235  -0.174   9.140  0.5067 -0.4517  0.7479
   86SAPS  H12X 8258   7.179  -0.078   9.133  0.7389 -0.3194  0.6670
   86SAPS  H12Y 8259   7.168  -0.258   9.169 -1.7538  0.8399 -0.5444
   86SAPS  C313 8260   7.302  -0.177   9.001 -0.4897 -0.4038 -0.3200
   86SAPS  H13X 8261   7.381  -0.255   8.997 -0.9063 -1.1122  3.2465
   86SAPS  H13Y 8262   7.351  -0.078   8.993 -0.8307 -0.2718 -0.7626
   86SAPS  C314 8263   7.204  -0.193   8.887 -0.0053 -0.7030  0.2722
   86SAPS  H14X 8264   7.122  -0.120   8.902 -0.2569 -1.3350  2.1774
   86SAPS  H14Y 8265   7.170  -0.299   8.890  0.5990 -0.8868  1.3563
   86SAPS  C315 8266   7.255  -0.157   8.748  0.8874 -0.2520  0.1950
   86SAPS  H15X 8267   7.343  -0.217   8.716  0.8947  0.4550 -1.1450
   86SAPS  H15Y 8268   7.303  -0.057   8.745  1.4769 -0.5433 -0.0121
   86SAPS  C316 8269   7.152  -0.154   8.641  0.2412  0.3733  0.0171
   86SAPS  H16X 8270   7.067  -0.098   8.686  0.2871  1.0445 -0.7180
   86SAPS  H16Y 8271   7.119  -0.255   8.612  1.6943  0.7915 -3.2960
   86SAPS  C317 8272   7.200  -0.092   8.502  0.9640  0.0461  0.5076
   86SAPS  H17X 8273   7.288  -0.147   8.462  1.5294  0.8389  0.6593
   86SAPS  H17Y 8274   7.225   0.012   8.530 -3.0599  1.1828  0.1888
   86SAPS  C318 8275   7.080  -0.096   8.403  0.1647  0.1358 -0.0280
   86SAPS  H18X 8276   7.104  -0.037   8.312 -1.0096 -0.2061 -0.5674
   86SAPS  H18Y 8277   6.995  -0.036   8.442 -1.8815 -2.2371 -0.7145
   86SAPS  H18Z 8278   7.041  -0.197   8.381  0.8396 -0.3045  0.7552
   87SAPS     N 8279   6.398   0.402  11.066 -0.0109 -0.0864 -0.3414
   87SAPS   HN1 8280   6.332   0.475  11.033  1.1776  0.8592 -0.6545
   87SAPS   HN2 8281   6.349   0.368  11.152 -3.1695  0.3376 -1.9182
   87SAPS   HN3 8282   6.489   0.449  11.081 -0.1408  0.0450  0.0378
   87SAPS   C12 8283   6.412   0.289  10.972 -0.1435  0.1987  0.1329
   87SAPS  H12A 8284   6.486   0.224  11.016  1.0495  0.5040 -1.3719
   87SAPS   C13 8285   6.291   0.206  10.936  0.0591 -0.0878 -0.7426
   87SAPS  O13A 8286   6.175   0.239  10.980 -0.5358 -0.0930 -0.6133
   87SAPS  O13B 8287   6.311   0.084  10.906  0.4292 -0.1123  0.1316
   87SAPS   C11 8288   6.472   0.347  10.842  0.3787  0.7070 -0.2838
   87SAPS  H11A 8289   6.396   0.410  10.793  0.9849  1.2997 -0.4705
   87SAPS  H11B 8290   6.494   0.265  10.770  2.3409  0.7125  0.2676
   87SAPS     P 8291   6.729   0.335  10.851  0.1041  0.0886 -0.3187
   87SAPS   O13 8292   6.844   0.411  10.916 -0.2789 -0.2875  0.3406
   87SAPS   O14 8293   6.712   0.193  10.892  0.2393 -0.1872 -0.5290
   87SAPS   O12 8294   6.592   0.418  10.879  0.1724  0.4645 -0.3144
   87SAPS   O11 8295   6.740   0.349  10.688 -0.2310 -0.0265 -0.4623
   87SAPS    C1 8296   6.764   0.472  10.623  0.9847  0.7466  0.8895
   87SAPS    HA 8297   6.662   0.509  10.596  0.3623 -2.7112 -1.8690
   87SAPS    HB 8298   6.818   0.547  10.685  0.6705  2.1467 -0.5002
   87SAPS    C2 8299   6.841   0.473  10.489 -0.7823 -0.3727 -0.8131
   87SAPS    HS 8300   6.814   0.562  10.427  2.4967  1.8376  0.7681
   87SAPS   O21 8301   6.810   0.351  10.420  0.1604  0.5268 -0.3019
   87SAPS   C21 8302   6.687   0.331  10.374  0.1808  0.7173 -0.2667
   87SAPS   O22 8303   6.603   0.417  10.379 -0.3363  0.0735 -0.3762
   87SAPS   C22 8304   6.693   0.196  10.288  0.2746 -0.0944  0.1087
   87SAPS   H2R 8305   6.798   0.184  10.256  0.2706  1.3081 -0.4334
   87SAPS   H2S 8306   6.668   0.109  10.354 -1.5462 -1.2637 -2.0331
   87SAPS    C3 8307   6.996   0.492  10.518  0.0105  0.4459  0.7369
   87SAPS    HX 8308   7.026   0.419  10.596  1.3823  1.6636  1.3654
   87SAPS    HY 8309   7.011   0.596  10.556  1.5428  0.6326 -0.3386
   87SAPS   O31 8310   7.073   0.467  10.394 -0.3024  0.3293 -0.1449
   87SAPS   C31 8311   7.062   0.556  10.299  0.5061  0.1941  0.9308
   87SAPS   O32 8312   7.012   0.667  10.310 -0.3779 -0.2542  0.8358
   87SAPS   C32 8313   7.128   0.501  10.177  0.1412  0.5781 -1.0398
   87SAPS   H2X 8314   7.119   0.390  10.168  0.0366  0.5925 -1.1101
   87SAPS   H2Y 8315   7.237   0.521  10.179  0.4950 -1.1066 -1.8152
   87SAPS   C23 8316   6.599   0.193  10.165  0.2157 -0.4048  0.4195
   87SAPS   H3R 8317   6.499   0.239  10.183  0.6134  0.0946  1.3805
   87SAPS   H3S 8318   6.581   0.086  10.145 -2.5309  0.1639 -0.3801
   87SAPS   C24 8319   6.661   0.267  10.050 -0.0871 -0.3946  0.3613
   87SAPS   H4R 8320   6.767   0.236  10.045 -0.3053 -1.1232  0.1566
   87SAPS   H4S 8321   6.676   0.373  10.080  2.0813 -0.5814 -0.0477
   87SAPS   C25 8322   6.604   0.254   9.909 -1.1316 -0.1250  0.3385
   87SAPS   H5R 8323   6.539   0.335   9.873  0.3594  0.5847 -0.8236
   87SAPS   C26 8324   6.646   0.161   9.820 -0.2838  0.1771 -0.1683
   87SAPS   H6R 8325   6.607   0.159   9.717  0.9246 -0.2696 -0.6310
   87SAPS   C27 8326   6.752   0.051   9.835 -0.1236 -0.5478 -0.5546
   87SAPS   H7R 8327   6.749   0.020   9.942 -0.2523  0.1941 -0.3376
   87SAPS   H7S 8328   6.846   0.100   9.804 -0.6510  2.0418  1.6795
   87SAPS   C28 8329   6.720  -0.070   9.755 -0.5172  0.4719 -0.0400
   87SAPS   H8R 8330   6.672  -0.154   9.808  0.5784  1.4549  2.5904
   87SAPS   C29 8331   6.753  -0.092   9.625  0.6295 -0.9564 -1.1053
   87SAPS   H9R 8332   6.716  -0.183   9.576 -1.1271 -0.1467 -1.3235
   87SAPS  C210 8333   6.828  -0.001   9.536  0.6356 -0.7679  0.3230
   87SAPS  H10R 8334   6.902  -0.061   9.479  0.3266 -1.6917  0.8833
   87SAPS  H10S 8335   6.896   0.073   9.583 -0.4323  0.5654 -0.1810
   87SAPS  C211 8336   6.734   0.079   9.449 -0.2908  0.5595 -0.1151
   87SAPS  H11R 8337   6.674   0.157   9.497 -1.0085 -0.4674  0.6701
   87SAPS  C212 8338   6.719   0.066   9.317 -0.3641 -0.6509  0.2988
   87SAPS  H12R 8339   6.655   0.134   9.259  0.6186 -0.2762 -0.3506
   87SAPS  C213 8340   6.792  -0.035   9.226  0.3370  0.1754  0.0629
   87SAPS  H13R 8341   6.897  -0.028   9.260  0.0858  3.7206  0.3583
   87SAPS  H13S 8342   6.786   0.002   9.121  0.1436 -1.6710 -0.5965
   87SAPS  C214 8343   6.745  -0.175   9.243  0.4331 -0.2067 -0.6149
   87SAPS  H14R 8344   6.671  -0.187   9.323  1.2945  1.0818  0.3906
   87SAPS  C215 8345   6.784  -0.280   9.166 -0.3320 -0.3051 -0.4663
   87SAPS  H15R 8346   6.749  -0.380   9.192  0.2123 -0.4742 -0.3742
   87SAPS  C216 8347   6.877  -0.279   9.050  0.1108 -0.6684 -0.6892
   87SAPS  H16R 8348   6.945  -0.366   9.048  0.7280 -0.1935 -0.5148
   87SAPS  H16S 8349   6.958  -0.206   9.072  0.8776 -2.2867  2.1561
   87SAPS  C217 8350   6.813  -0.241   8.915  0.2280 -0.7105 -0.1485
   87SAPS  H17R 8351   6.883  -0.166   8.874 -1.8916  0.8722 -0.9972
   87SAPS  H17S 8352   6.712  -0.197   8.928 -0.8890 -2.1214 -3.4173
   87SAPS  C218 8353   6.795  -0.368   8.816  0.3027 -0.3231  0.0248
   87SAPS  H18R 8354   6.881  -0.438   8.813 -0.5504 -1.6082  3.1012
   87SAPS  H18S 8355   6.794  -0.322   8.715 -1.5637  0.3477  0.3180
   87SAPS  C219 8356   6.670  -0.452   8.839  0.3261  0.6425 -0.9861
   87SAPS  H19R 8357   6.588  -0.378   8.834 -0.8348 -0.6136 -1.0208
   87SAPS  H19S 8358   6.679  -0.501   8.939  2.6655 -1.3203 -2.1052
   87SAPS  C220 8359   6.645  -0.556   8.732 -0.4598  0.2610 -0.2408
   87SAPS  H20R 8360   6.542  -0.597   8.736 -0.5802  0.4215 -1.4907
   87SAPS  H20S 8361   6.725  -0.633   8.727  1.3792  2.1532 -0.8729
   87SAPS  H20T 8362   6.655  -0.512   8.631  0.8255 -3.1351 -1.6896
   87SAPS   C33 8363   7.085   0.576  10.047 -0.9508  0.8210 -0.5595
   87SAPS   H3X 8364   7.114   0.683  10.049  1.1423  0.2521  1.3058
   87SAPS   H3Y 8365   6.974   0.580  10.047 -1.0467 -1.2920  0.4434
   87SAPS   C34 8366   7.134   0.512   9.913  0.3852  0.0773 -0.0667
   87SAPS   H4X 8367   7.231   0.462   9.936 -0.2814 -0.7030  1.1442
   87SAPS   H4Y 8368   7.153   0.594   9.841 -2.3943  2.6875  2.0687
   87SAPS   C35 8369   7.034   0.407   9.858 -0.0491 -0.1685 -0.5566
   87SAPS   H5X 8370   6.944   0.454   9.812  0.4531  1.3139 -0.0478
   87SAPS   H5Y 8371   6.989   0.347   9.940 -1.8397 -1.6117 -2.5529
   87SAPS   C36 8372   7.090   0.310   9.754 -0.6056 -1.0920  0.1203
   87SAPS   H6X 8373   7.067   0.202   9.768  2.1471 -1.7255 -0.0240
   87SAPS   H6Y 8374   7.199   0.328   9.749 -1.0581  1.6954 -0.5352
   87SAPS   C37 8375   7.039   0.350   9.615 -0.1958  0.2949  1.1982
   87SAPS   H7X 8376   7.053   0.460   9.610  0.9501  0.0838 -0.6333
   87SAPS   H7Y 8377   6.931   0.327   9.611 -0.2217 -0.2212  3.7370
   87SAPS   C38 8378   7.114   0.278   9.505  0.3956  0.1791  0.2963
   87SAPS   H8X 8379   7.102   0.168   9.503  1.4731  0.0258  1.3071
   87SAPS   H8Y 8380   7.219   0.298   9.534  0.6557 -2.3906  1.2718
   87SAPS   C39 8381   7.089   0.351   9.372 -0.0502 -0.4572  0.0997
   87SAPS   H9X 8382   7.117   0.456   9.393  1.1966 -1.0713  1.6094
   87SAPS   H9Y 8383   6.986   0.352   9.331 -0.3630  1.3182  0.9031
   87SAPS  C310 8384   7.183   0.296   9.258 -0.2774  0.2178 -0.1741
   87SAPS  H10X 8385   7.164   0.187   9.248 -2.5659  0.5077  0.6565
   87SAPS  H10Y 8386   7.291   0.303   9.284 -1.0705 -1.4825  3.9219
   87SAPS  C311 8387   7.160   0.364   9.127 -0.2123 -0.2421  0.6843
   87SAPS  H11X 8388   7.147   0.472   9.149  0.0028  0.3603 -1.9294
   87SAPS  H11Y 8389   7.061   0.337   9.084  1.2824 -1.7270 -1.9439
   87SAPS  C312 8390   7.265   0.343   9.020 -0.4615 -0.7009 -0.3136
   87SAPS  H12X 8391   7.363   0.350   9.072 -1.2202 -0.0694  1.0495
   87SAPS  H12Y 8392   7.258   0.438   8.963  1.0676 -1.1874 -1.3428
   87SAPS  C313 8393   7.258   0.213   8.931 -0.2507 -0.0297 -0.4697
   87SAPS  H13X 8394   7.154   0.196   8.895  0.1288  1.3852 -2.3113
   87SAPS  H13Y 8395   7.285   0.128   8.998 -2.0972 -1.5423 -1.5965
   87SAPS  C314 8396   7.337   0.221   8.796  0.3590 -0.6403 -0.1561
   87SAPS  H14X 8397   7.324   0.317   8.742  2.6030  0.3570  0.9726
   87SAPS  H14Y 8398   7.302   0.139   8.730 -1.8230 -1.0244  1.4242
   87SAPS  C315 8399   7.487   0.216   8.818 -0.2278  0.7174  0.1848
   87SAPS  H15X 8400   7.500   0.120   8.872 -0.5134  0.7672  0.3412
   87SAPS  H15Y 8401   7.532   0.294   8.882  0.8571  1.0726 -1.0060
   87SAPS  C316 8402   7.571   0.224   8.686  0.0880  0.7102  0.4522
   87SAPS  H16X 8403   7.680   0.236   8.700  0.3926  0.4632 -1.4918
   87SAPS  H16Y 8404   7.526   0.310   8.631 -0.5593 -0.9021 -1.6268
   87SAPS  C317 8405   7.550   0.101   8.583 -0.1964 -0.5440 -0.1811
   87SAPS  H17X 8406   7.607   0.130   8.492 -3.0488  3.1091 -0.8892
   87SAPS  H17Y 8407   7.441   0.100   8.566 -0.3599  1.7419  0.6252
   87SAPS  C318 8408   7.584  -0.031   8.643 -0.7300 -0.3149 -0.7930
   87SAPS  H18X 8409   7.694  -0.047   8.633 -0.3518  1.9288 -0.3738
   87SAPS  H18Y 8410   7.527  -0.110   8.589 -1.3576  0.3075 -1.0479
   87SAPS  H18Z 8411   7.549  -0.041   8.748  1.7342 -0.5190  0.0347
   88SAPS     N 8412   2.521   4.953  11.013 -0.3423  0.7329 -0.0994
   88SAPS   HN1 8413   2.439   4.897  11.045 -0.9195  1.9582  0.6193
   88SAPS   HN2 8414   2.481   5.049  11.009 -1.3648  0.3856  1.3806
   88SAPS   HN3 8415   2.553   4.913  10.922 -0.0541 -1.4055  0.9110
   88SAPS   C12 8416   2.636   4.926  11.099 -0.2871  0.8265  0.6121
   88SAPS  H12A 8417   2.728   4.966  11.060 -0.0288 -1.5270 -1.2874
   88SAPS   C13 8418   2.626   4.991  11.242  0.2278 -1.3802 -0.6169
   88SAPS  O13A 8419   2.531   5.075  11.281 -0.4949 -0.5322  0.7317
   88SAPS  O13B 8420   2.729   4.981  11.318 -0.0166 -0.4130 -0.9838
   88SAPS   C11 8421   2.663   4.771  11.113 -0.2639  0.2989 -0.6356
   88SAPS  H11A 8422   2.579   4.722  11.166 -0.4414  2.0658  0.7909
   88SAPS  H11B 8423   2.753   4.761  11.177  0.4465  1.5054 -1.4201
   88SAPS     P 8424   2.804   4.639  10.932  0.1631 -0.4964 -0.1891
   88SAPS   O13 8425   2.847   4.545  11.032  0.4779  0.2492 -0.2279
   88SAPS   O14 8426   2.768   4.582  10.800 -0.3599  0.5733 -0.1838
   88SAPS   O12 8427   2.680   4.723  10.985  0.7992  0.1454 -0.1854
   88SAPS   O11 8428   2.918   4.746  10.907 -0.0703 -0.2888 -0.1525
   88SAPS    C1 8429   2.919   4.876  10.859 -0.4485 -0.2951  0.0221
   88SAPS    HA 8430   2.813   4.897  10.834 -0.0847  0.1831 -1.1554
   88SAPS    HB 8431   2.949   4.943  10.942 -0.6142 -1.4540  1.0303
   88SAPS    C2 8432   3.000   4.889  10.728  0.8345 -0.0451 -0.0107
   88SAPS    HS 8433   3.066   4.978  10.736  1.6617 -0.4748 -1.7160
   88SAPS   O21 8434   2.914   4.906  10.615  0.8372 -0.0699 -0.1350
   88SAPS   C21 8435   2.868   5.026  10.582  0.7919  0.5207 -0.4657
   88SAPS   O22 8436   2.927   5.130  10.607  0.2206 -0.0028 -0.3304
   88SAPS   C22 8437   2.740   5.006  10.494 -0.1037 -0.8551 -0.5112
   88SAPS   H2R 8438   2.777   4.949  10.406  1.9552  2.4777 -1.9272
   88SAPS   H2S 8439   2.665   4.944  10.547 -0.8529  1.5518  1.3142
   88SAPS    C3 8440   3.103   4.772  10.718  0.6019 -0.1141 -0.0680
   88SAPS    HX 8441   3.054   4.673  10.714 -0.5903  0.4438  0.3197
   88SAPS    HY 8442   3.161   4.786  10.812  0.4640 -1.2168  0.1801
   88SAPS   O31 8443   3.203   4.789  10.612  0.2912  0.9327 -0.4750
   88SAPS   C31 8444   3.167   4.740  10.497 -0.4486 -0.1634 -0.0739
   88SAPS   O32 8445   3.059   4.687  10.464  0.2115 -0.7266 -0.3885
   88SAPS   C32 8446   3.292   4.739  10.412  0.3689  0.7659 -0.3373
   88SAPS   H2X 8447   3.371   4.797  10.464  0.5004 -1.3320  1.8715
   88SAPS   H2Y 8448   3.256   4.789  10.319  0.3866  3.1440  0.8835
   88SAPS   C23 8449   2.682   5.147  10.461  0.1929 -0.0984 -0.1381
   88SAPS   H3R 8450   2.767   5.207  10.425  1.5546 -0.6571  2.0404
   88SAPS   H3S 8451   2.646   5.199  10.553 -0.1529  1.9445 -1.4052
   88SAPS   C24 8452   2.562   5.153  10.370  0.4609  0.0477 -0.2690
   88SAPS   H4R 8453   2.533   5.260  10.365  0.5640  0.0127 -2.3164
   88SAPS   H4S 8454   2.475   5.099  10.414  0.8547  0.1087  0.5750
   88SAPS   C25 8455   2.585   5.097  10.229  0.1221 -0.1958  0.7872
   88SAPS   H5R 8456   2.638   5.001  10.243 -1.6619 -1.4313 -0.7373
   88SAPS   C26 8457   2.555   5.155  10.110  0.5055  0.3518  0.9956
   88SAPS   H6R 8458   2.598   5.107  10.021 -0.8239 -0.2887  0.6853
   88SAPS   C27 8459   2.483   5.287  10.087 -0.5016  0.7089 -0.2769
   88SAPS   H7R 8460   2.515   5.334   9.991  2.4924 -0.7297 -0.0655
   88SAPS   H7S 8461   2.508   5.356  10.170 -1.0794  0.9375 -0.2918
   88SAPS   C28 8462   2.334   5.259  10.103 -0.1033 -0.3468  0.2422
   88SAPS   H8R 8463   2.303   5.162  10.146 -0.5684 -0.7117 -0.9227
   88SAPS   C29 8464   2.239   5.338  10.048  0.4532  0.4161  0.0367
   88SAPS   H9R 8465   2.131   5.316  10.056  0.3371  0.5756 -1.0305
   88SAPS  C210 8466   2.255   5.467   9.974 -0.4679 -0.0324  0.5539
   88SAPS  H10R 8467   2.361   5.499   9.983 -0.6776  0.5974  0.8416
   88SAPS  H10S 8468   2.197   5.534  10.041 -0.9476 -1.3886  1.5347
   88SAPS  C211 8469   2.186   5.470   9.833  0.5682  0.2635 -0.0310
   88SAPS  H11R 8470   2.102   5.539   9.817  0.2005 -0.4801 -1.3247
   88SAPS  C212 8471   2.211   5.394   9.729 -0.2914  0.5037  0.4886
   88SAPS  H12R 8472   2.153   5.410   9.637 -0.5390 -0.6834  0.4379
   88SAPS  C213 8473   2.313   5.284   9.717 -0.4976 -0.3251  0.0119
   88SAPS  H13R 8474   2.268   5.217   9.641 -0.4092  0.8593 -1.0984
   88SAPS  H13S 8475   2.315   5.227   9.812 -1.8939 -0.9171 -0.2932
   88SAPS  C214 8476   2.461   5.329   9.686  0.0286  0.2795  0.1262
   88SAPS  H14R 8477   2.520   5.364   9.772 -0.2381 -2.0116  1.2909
   88SAPS  C215 8478   2.532   5.314   9.576  0.1028  0.4829 -0.1190
   88SAPS  H15R 8479   2.634   5.356   9.570  0.4093 -0.6260 -3.6209
   88SAPS  C216 8480   2.477   5.258   9.441  0.2935 -0.2602 -0.2328
   88SAPS  H16R 8481   2.374   5.217   9.453  1.2508 -2.2411  1.4686
   88SAPS  H16S 8482   2.529   5.167   9.403  1.5733  0.3122  0.1266
   88SAPS  C217 8483   2.459   5.371   9.333  0.5647  0.2942  0.0946
   88SAPS  H17R 8484   2.401   5.455   9.375  0.1079 -0.2652  0.5963
   88SAPS  H17S 8485   2.395   5.324   9.256 -0.4342  2.0292 -0.1446
   88SAPS  C218 8486   2.590   5.430   9.281 -0.2964  0.0268  0.2922
   88SAPS  H18R 8487   2.657   5.343   9.270 -3.6576 -2.6066  0.0067
   88SAPS  H18S 8488   2.627   5.496   9.362  0.2221 -1.4791  1.2968
   88SAPS  C219 8489   2.582   5.504   9.140  0.0195 -0.0255 -0.0784
   88SAPS  H19R 8490   2.677   5.553   9.109 -0.4245  0.0151 -1.3948
   88SAPS  H19S 8491   2.501   5.580   9.147 -0.1341 -0.1015 -0.9855
   88SAPS  C220 8492   2.541   5.415   9.021 -0.4468 -0.0418 -0.2454
   88SAPS  H20R 8493   2.541   5.477   8.930 -1.3527  2.2199  1.2526
   88SAPS  H20S 8494   2.436   5.380   9.039  0.2686 -2.3532 -0.3881
   88SAPS  H20T 8495   2.598   5.319   9.022  0.0598  0.2590  0.5842
   88SAPS   C33 8496   3.348   4.601  10.389  0.1727  0.5805  0.6388
   88SAPS   H3X 8497   3.259   4.534  10.395 -0.0872  0.6515 -1.7312
   88SAPS   H3Y 8498   3.419   4.566  10.467 -0.3721 -0.3239  0.7373
   88SAPS   C34 8499   3.426   4.580  10.254  0.9974  0.1258  0.6531
   88SAPS   H4X 8500   3.459   4.474  10.247  0.2268 -0.2162  1.8653
   88SAPS   H4Y 8501   3.511   4.650  10.245  1.4228 -0.3601  0.8809
   88SAPS   C35 8502   3.331   4.594  10.133  0.5470 -0.1136  0.0461
   88SAPS   H5X 8503   3.284   4.695  10.129  0.8497  0.0257 -0.0165
   88SAPS   H5Y 8504   3.243   4.527  10.134  0.1424  0.4231  0.3666
   88SAPS   C36 8505   3.406   4.562  10.007  0.3169 -0.3008  0.2996
   88SAPS   H6X 8506   3.431   4.454  10.007  2.7799  0.2287 -1.4252
   88SAPS   H6Y 8507   3.504   4.615  10.010 -0.3257  1.0885 -1.8971
   88SAPS   C37 8508   3.332   4.586   9.878 -0.0711 -0.2047  0.3657
   88SAPS   H7X 8509   3.282   4.685   9.872 -0.0266 -0.1402  1.0137
   88SAPS   H7Y 8510   3.259   4.503   9.862  0.9040 -1.1118  0.5502
   88SAPS   C38 8511   3.423   4.577   9.753  0.4406 -0.6247 -0.1470
   88SAPS   H8X 8512   3.483   4.484   9.753 -1.4044 -1.8475  1.2717
   88SAPS   H8Y 8513   3.486   4.668   9.759 -1.3175  0.4573  2.6654
   88SAPS   C39 8514   3.332   4.578   9.627 -0.4352  0.3062  0.4143
   88SAPS   H9X 8515   3.261   4.663   9.617 -0.4472  0.2809  0.2891
   88SAPS   H9Y 8516   3.271   4.486   9.636 -0.2335  0.2034  0.7316
   88SAPS  C310 8517   3.418   4.589   9.496  1.0995 -0.6695 -0.1250
   88SAPS  H10X 8518   3.504   4.520   9.504  1.4700 -0.0754  0.9854
   88SAPS  H10Y 8519   3.466   4.689   9.487  0.6073 -0.3378  0.8261
   88SAPS  C311 8520   3.335   4.562   9.370 -0.3728 -0.2133 -0.1542
   88SAPS  H11X 8521   3.248   4.631   9.365 -1.3556 -1.4414 -0.2448
   88SAPS  H11Y 8522   3.295   4.458   9.379 -1.2353  0.2182  1.1234
   88SAPS  C312 8523   3.420   4.575   9.244  0.7200  0.7648  0.4348
   88SAPS  H12X 8524   3.495   4.494   9.248 -0.2676 -0.2658 -1.4472
   88SAPS  H12Y 8525   3.471   4.674   9.242 -0.1571  1.2027 -1.9828
   88SAPS  C313 8526   3.333   4.562   9.117 -0.7050  0.9111 -0.3527
   88SAPS  H13X 8527   3.253   4.636   9.139  1.3952  3.2345 -0.3570
   88SAPS  H13Y 8528   3.281   4.464   9.116 -0.0728  0.5840 -1.5185
   88SAPS  C314 8529   3.405   4.609   8.987  0.0963 -0.3310 -0.2447
   88SAPS  H14X 8530   3.449   4.711   8.995  1.7557 -1.1681  1.6205
   88SAPS  H14Y 8531   3.322   4.609   8.914 -1.5282 -1.5195  1.5505
   88SAPS  C315 8532   3.514   4.520   8.918  0.3496  0.4808 -0.4056
   88SAPS  H15X 8533   3.508   4.429   8.982 -1.7310 -1.1466 -2.8268
   88SAPS  H15Y 8534   3.618   4.554   8.938 -0.2469  0.1937  3.6298
   88SAPS  C316 8535   3.483   4.486   8.772 -0.2504 -1.0884  0.7174
   88SAPS  H16X 8536   3.492   4.585   8.723  0.4176 -1.6428 -0.2681
   88SAPS  H16Y 8537   3.380   4.445   8.766 -0.2578 -0.7367 -2.3325
   88SAPS  C317 8538   3.575   4.379   8.712  0.1083  0.1073 -0.0837
   88SAPS  H17X 8539   3.573   4.282   8.765 -0.8620  0.3880  0.4216
   88SAPS  H17Y 8540   3.676   4.424   8.720  0.1368 -0.3536  2.4956
   88SAPS  C318 8541   3.541   4.350   8.566  0.2414 -0.2638 -0.7182
   88SAPS  H18X 8542   3.523   4.441   8.505 -0.3468  0.0733 -0.0476
   88SAPS  H18Y 8543   3.459   4.277   8.552  0.0749 -1.1156  3.9959
   88SAPS  H18Z 8544   3.628   4.302   8.516  0.1915 -0.4085 -0.6647
   89SAPS     N 8545   3.164   1.449  10.949 -0.5383 -0.5773 -0.3693
   89SAPS   HN1 8546   3.136   1.487  10.856  1.8985 -2.4099 -1.9345
   89SAPS   HN2 8547   3.160   1.529  11.015  0.0673 -1.5560  0.8796
   89SAPS   HN3 8548   3.253   1.396  10.953 -0.2189 -0.1589 -1.7411
   89SAPS   C12 8549   3.047   1.361  10.981  0.1530  0.2882  0.5661
   89SAPS  H12A 8550   3.070   1.262  10.943 -2.7128 -1.6954  3.7143
   89SAPS   C13 8551   3.010   1.361  11.129  1.3079  0.2932  0.3458
   89SAPS  O13A 8552   3.062   1.444  11.207 -0.1147 -0.0031  0.2940
   89SAPS  O13B 8553   2.923   1.269  11.164  0.2916 -0.5274  0.7853
   89SAPS   C11 8554   2.921   1.410  10.892 -0.4724 -0.8783  0.2451
   89SAPS  H11A 8555   2.877   1.502  10.936 -0.9585 -0.6701 -0.6667
   89SAPS  H11B 8556   2.849   1.326  10.905 -2.8026  0.9152 -0.6040
   89SAPS     P 8557   2.909   1.320  10.643  0.0327  0.1742  0.0074
   89SAPS   O13 8558   2.940   1.353  10.500 -0.6943 -0.2592 -0.0175
   89SAPS   O14 8559   2.978   1.200  10.698  0.7972 -0.7796  0.1757
   89SAPS   O12 8560   2.951   1.432  10.750  0.1520 -0.7357  1.2522
   89SAPS   O11 8561   2.750   1.305  10.659  0.7005 -0.2980  0.3397
   89SAPS    C1 8562   2.675   1.427  10.637  0.0073 -0.1605  0.3460
   89SAPS    HA 8563   2.610   1.440  10.726 -1.3519 -0.5648 -0.5658
   89SAPS    HB 8564   2.735   1.520  10.623  1.5287 -0.9392  1.6105
   89SAPS    C2 8565   2.583   1.434  10.510  0.2577 -0.1735 -0.6522
   89SAPS    HS 8566   2.489   1.384  10.543 -0.2863 -1.4259 -3.9739
   89SAPS   O21 8567   2.632   1.361  10.396 -1.2083  0.5385 -0.0910
   89SAPS   C21 8568   2.627   1.234  10.411  0.6970  0.5306 -0.9887
   89SAPS   O22 8569   2.573   1.175  10.505 -0.2925 -0.6897 -0.3642
   89SAPS   C22 8570   2.711   1.171  10.301  0.6140  0.1599  0.3908
   89SAPS   H2R 8571   2.785   1.239  10.254  2.0563 -1.8063 -0.2579
   89SAPS   H2S 8572   2.777   1.098  10.353  1.4770 -0.1796 -1.1613
   89SAPS    C3 8573   2.545   1.577  10.467 -0.5769 -0.5722 -0.4894
   89SAPS    HX 8574   2.641   1.631  10.448 -1.1613  0.6670  0.0355
   89SAPS    HY 8575   2.517   1.638  10.556  0.6871  1.9635 -1.7622
   89SAPS   O31 8576   2.469   1.583  10.347  0.1562 -0.5036 -0.5054
   89SAPS   C31 8577   2.338   1.556  10.370 -0.0642  0.3876  0.7380
   89SAPS   O32 8578   2.294   1.514  10.471  1.1453  0.3907  0.2457
   89SAPS   C32 8579   2.262   1.584  10.243  0.7707 -0.0387 -0.9278
   89SAPS   H2X 8580   2.239   1.692  10.231 -1.7302 -0.1270  2.4168
   89SAPS   H2Y 8581   2.166   1.528  10.243  0.3180  0.7326 -0.0280
   89SAPS   C23 8582   2.615   1.081  10.214 -0.1823  0.4567 -0.1317
   89SAPS   H3R 8583   2.565   1.008  10.281 -2.3569 -0.3711 -2.5460
   89SAPS   H3S 8584   2.682   1.030  10.141  0.8339  0.7233  0.5984
   89SAPS   C24 8585   2.514   1.162  10.132  0.1905  0.0296 -0.1571
   89SAPS   H4R 8586   2.450   1.216  10.205  1.2301  1.2775 -0.1486
   89SAPS   H4S 8587   2.456   1.085  10.077  1.3343 -1.0006  0.0473
   89SAPS   C25 8588   2.596   1.259  10.044 -0.3616 -0.3717 -0.0134
   89SAPS   H5R 8589   2.642   1.341  10.101  0.6758 -1.1313  0.2514
   89SAPS   C26 8590   2.620   1.248   9.913 -0.8825  0.0176  0.2645
   89SAPS   H6R 8591   2.679   1.329   9.868  3.0822 -2.0692  1.5169
   89SAPS   C27 8592   2.568   1.145   9.815  0.0948 -0.4620  0.7649
   89SAPS   H7R 8593   2.485   1.086   9.860 -0.8245 -1.2551 -1.8804
   89SAPS   H7S 8594   2.652   1.080   9.781  1.4986  1.2720  0.8799
   89SAPS   C28 8595   2.501   1.215   9.697  0.2797  0.2313 -0.1530
   89SAPS   H8R 8596   2.395   1.238   9.717  0.0369 -1.4955  0.6402
   89SAPS   C29 8597   2.549   1.221   9.571  0.4790 -0.0149 -0.5333
   89SAPS   H9R 8598   2.486   1.280   9.503 -0.5430  1.7736  1.8958
   89SAPS  C210 8599   2.691   1.176   9.519  0.4860  0.2003  0.6054
   89SAPS  H10R 8600   2.754   1.146   9.606 -0.5405  1.2073  1.7137
   89SAPS  H10S 8601   2.740   1.268   9.482  1.6748 -0.7252 -0.1575
   89SAPS  C211 8602   2.678   1.057   9.427  0.1165 -0.6265 -0.9443
   89SAPS  H11R 8603   2.609   0.981   9.467  0.9227 -1.4359 -1.0716
   89SAPS  C212 8604   2.724   1.049   9.305 -0.1364  0.4424  0.1941
   89SAPS  H12R 8605   2.709   0.955   9.249  3.3866  1.6648 -2.9901
   89SAPS  C213 8606   2.797   1.154   9.226  0.7033  0.3712 -0.7575
   89SAPS  H13R 8607   2.875   1.119   9.155  1.1927  0.9641 -0.5152
   89SAPS  H13S 8608   2.849   1.230   9.288 -0.1722  0.2788  0.0980
   89SAPS  C214 8609   2.690   1.231   9.145  0.5139 -0.0483  0.4050
   89SAPS  H14R 8610   2.671   1.329   9.192 -1.8282 -0.6280  0.7462
   89SAPS  C215 8611   2.627   1.195   9.032  0.1213  0.3144  0.0556
   89SAPS  H15R 8612   2.566   1.269   8.979  2.2389  0.5336 -2.1140
   89SAPS  C216 8613   2.658   1.070   8.959 -0.3992  0.2433 -0.1061
   89SAPS  H16R 8614   2.723   1.004   9.021  1.1228  0.8902 -1.0102
   89SAPS  H16S 8615   2.724   1.087   8.872 -0.4957 -0.6880 -0.3737
   89SAPS  C217 8616   2.528   0.994   8.920  0.1127  0.1363 -1.0406
   89SAPS  H17R 8617   2.476   0.961   9.012  1.4597 -0.5256 -0.5085
   89SAPS  H17S 8618   2.564   0.903   8.869  1.8334  0.6782 -0.8189
   89SAPS  C218 8619   2.419   1.065   8.835 -0.0969  0.2785 -0.3971
   89SAPS  H18R 8620   2.384   1.159   8.883 -0.4666 -0.2539  0.3792
   89SAPS  H18S 8621   2.333   0.997   8.849  1.4837 -1.0447  3.6892
   89SAPS  C219 8622   2.463   1.093   8.692  0.1458 -0.9085  0.2223
   89SAPS  H19R 8623   2.547   1.164   8.684  0.3101 -0.8928  1.9658
   89SAPS  H19S 8624   2.372   1.139   8.646  0.1127 -1.4315 -0.2398
   89SAPS  C220 8625   2.510   0.968   8.612  0.4530  0.0771  0.1711
   89SAPS  H20R 8626   2.610   0.945   8.655  1.1282 -0.3274 -1.6088
   89SAPS  H20S 8627   2.525   0.986   8.504 -2.3182 -1.7124 -0.5660
   89SAPS  H20T 8628   2.434   0.892   8.641  0.4052  0.5298  1.2717
   89SAPS   C33 8629   2.339   1.540  10.118 -0.4052 -0.3151 -0.7571
   89SAPS   H3X 8630   2.355   1.430  10.120 -1.6572 -0.5030 -0.4974
   89SAPS   H3Y 8631   2.432   1.599  10.103 -0.7565  0.4437 -0.0269
   89SAPS   C34 8632   2.259   1.561   9.993  0.4661 -0.3062 -0.2019
   89SAPS   H4X 8633   2.228   1.668   9.994 -2.3459 -1.0772 -1.1901
   89SAPS   H4Y 8634   2.163   1.505   9.991 -0.4306  1.2136 -1.3760
   89SAPS   C35 8635   2.336   1.534   9.861 -0.1321  0.2351  0.3545
   89SAPS   H5X 8636   2.371   1.429   9.847  2.2771  1.2346 -1.5075
   89SAPS   H5Y 8637   2.432   1.591   9.863  0.7789 -1.2667  0.4270
   89SAPS   C36 8638   2.258   1.576   9.733 -0.0002 -0.3774  0.4131
   89SAPS   H6X 8639   2.244   1.686   9.731  3.1505  0.0878  0.7891
   89SAPS   H6Y 8640   2.153   1.541   9.738  0.4965 -2.0750 -0.4670
   89SAPS   C37 8641   2.327   1.537   9.604  0.9170 -0.0236 -0.1278
   89SAPS   H7X 8642   2.345   1.427   9.611  0.6176 -0.0565  0.1411
   89SAPS   H7Y 8643   2.427   1.585   9.595  1.6006 -1.0833  1.5693
   89SAPS   C38 8644   2.236   1.560   9.484 -0.6070  0.4545  0.0712
   89SAPS   H8X 8645   2.245   1.663   9.442 -2.6750  0.5631 -0.1212
   89SAPS   H8Y 8646   2.132   1.544   9.516 -1.0383  2.7416 -0.0987
   89SAPS   C39 8647   2.262   1.473   9.362 -0.1294  0.1562  0.1105
   89SAPS   H9X 8648   2.256   1.365   9.384 -1.2115  0.4092  1.0502
   89SAPS   H9Y 8649   2.366   1.482   9.322  0.9871 -1.8542  2.4066
   89SAPS  C310 8650   2.161   1.493   9.242  0.1891 -0.2823 -0.3458
   89SAPS  H10X 8651   2.158   1.601   9.216  1.9691 -0.7183 -2.5813
   89SAPS  H10Y 8652   2.055   1.465   9.262  0.4530 -0.2384  1.1445
   89SAPS  C311 8653   2.207   1.421   9.110 -0.7242  0.5475 -0.3648
   89SAPS  H11X 8654   2.195   1.314   9.135 -1.5270  1.3689  3.0035
   89SAPS  H11Y 8655   2.308   1.453   9.079 -1.3706  2.1993 -0.8383
   89SAPS  C312 8656   2.115   1.439   8.987  0.4744 -0.3288 -0.4721
   89SAPS  H12X 8657   2.099   1.546   8.965  0.2386 -0.2977 -0.1493
   89SAPS  H12Y 8658   2.025   1.378   9.012 -0.9578  0.6864 -2.9536
   89SAPS  C313 8659   2.167   1.366   8.863 -0.8054  0.1548 -0.0532
   89SAPS  H13X 8660   2.175   1.257   8.881  0.4793  0.1570 -0.5711
   89SAPS  H13Y 8661   2.270   1.408   8.857  0.1421 -1.6099  2.7861
   89SAPS  C314 8662   2.087   1.386   8.736  0.4757 -0.2238  0.2954
   89SAPS  H14X 8663   2.051   1.491   8.729  0.4465 -0.2332  0.3059
   89SAPS  H14Y 8664   2.002   1.315   8.727  0.7396 -0.6491  1.1887
   89SAPS  C315 8665   2.179   1.371   8.610  0.2761 -1.0371  0.6724
   89SAPS  H15X 8666   2.206   1.265   8.593 -0.6776 -0.9389 -1.6888
   89SAPS  H15Y 8667   2.266   1.437   8.628  0.9702 -1.8095  0.1355
   89SAPS  C316 8668   2.110   1.420   8.484 -0.0226  0.0952  0.2457
   89SAPS  H16X 8669   2.066   1.522   8.496 -0.5553 -0.0175 -0.7040
   89SAPS  H16Y 8670   2.026   1.352   8.459 -0.6961  1.2829 -0.7879
   89SAPS  C317 8671   2.203   1.405   8.359 -0.2738  0.0445  0.1345
   89SAPS  H17X 8672   2.216   1.295   8.352 -1.1022 -0.0406 -0.1888
   89SAPS  H17Y 8673   2.302   1.446   8.387 -1.6334  0.7125  4.4260
   89SAPS  C318 8674   2.153   1.466   8.224 -0.2710 -0.2019  0.9275
   89SAPS  H18X 8675   2.124   1.570   8.250 -2.7185 -0.6569  0.0858
   89SAPS  H18Y 8676   2.069   1.405   8.186 -0.7338 -0.3714  2.1926
   89SAPS  H18Z 8677   2.232   1.459   8.146  0.3191 -0.6606  1.5625
   90SAPS     N 8678   4.654   0.875  10.687 -0.1398  0.6152 -0.1279
   90SAPS   HN1 8679   4.584   0.901  10.614  0.8211  2.1078 -0.5374
   90SAPS   HN2 8680   4.693   0.964  10.724  1.3076 -0.7320  1.7027
   90SAPS   HN3 8681   4.736   0.830  10.642 -2.3140 -2.3423 -1.3383
   90SAPS   C12 8682   4.583   0.791  10.785  0.5926 -0.0715 -0.0472
   90SAPS  H12A 8683   4.543   0.712  10.723  0.9413 -1.3984  1.3672
   90SAPS   C13 8684   4.664   0.726  10.900  1.0105  0.1838  0.2711
   90SAPS  O13A 8685   4.787   0.749  10.906 -0.3139  0.2388 -0.2561
   90SAPS  O13B 8686   4.615   0.622  10.951  0.1085  0.1395 -0.4742
   90SAPS   C11 8687   4.471   0.882  10.840  0.0941 -0.2408 -0.1304
   90SAPS  H11A 8688   4.521   0.950  10.913 -1.3499  2.0527 -1.2350
   90SAPS  H11B 8689   4.404   0.822  10.905  0.5114 -2.4456 -1.6612
   90SAPS     P 8690   4.260   0.907  10.687  0.0102  0.0241  0.5822
   90SAPS   O13 8691   4.192   0.843  10.808  0.1137 -0.0826 -0.3854
   90SAPS   O14 8692   4.181   0.999  10.608 -0.7211 -0.3241 -0.2833
   90SAPS   O12 8693   4.399   0.960  10.743 -0.0125  0.2787  0.9732
   90SAPS   O11 8694   4.324   0.805  10.586 -0.5224  0.1022  0.5032
   90SAPS    C1 8695   4.234   0.702  10.534  0.7531  0.4848 -0.5143
   90SAPS    HA 8696   4.258   0.602  10.576 -4.4503 -0.8876 -0.5030
   90SAPS    HB 8697   4.125   0.714  10.552  0.9519  1.0386  0.3854
   90SAPS    C2 8698   4.239   0.689  10.383 -0.1431 -0.2089 -0.3393
   90SAPS    HS 8699   4.177   0.600  10.360 -1.0955  0.3831 -0.0831
   90SAPS   O21 8700   4.374   0.689  10.331 -0.0498 -0.3543 -0.9522
   90SAPS   C21 8701   4.445   0.580  10.369 -0.2565  0.3964  0.8424
   90SAPS   O22 8702   4.405   0.487  10.438  0.1088  0.1987  0.3529
   90SAPS   C22 8703   4.581   0.593  10.324  0.8679  0.2321  0.0782
   90SAPS   H2R 8704   4.614   0.695  10.294 -1.0910  0.5369 -1.1651
   90SAPS   H2S 8705   4.649   0.565  10.407  0.9405  1.8173  0.5596
   90SAPS    C3 8706   4.174   0.818  10.326 -0.5351 -0.8620  0.0043
   90SAPS    HX 8707   4.241   0.901  10.358 -3.1064  1.0459  0.6711
   90SAPS    HY 8708   4.072   0.824  10.368 -0.6528 -0.2089 -0.3682
   90SAPS   O31 8709   4.161   0.807  10.186  0.6274 -0.8241  0.5595
   90SAPS   C31 8710   4.133   0.915  10.120 -0.6689 -0.6656  0.0538
   90SAPS   O32 8711   4.117   1.025  10.168  0.4463  0.1751 -0.3714
   90SAPS   C32 8712   4.141   0.883   9.970  0.7913 -0.0915  0.2520
   90SAPS   H2X 8713   4.078   0.793   9.961 -2.3063  2.0626 -0.6514
   90SAPS   H2Y 8714   4.245   0.876   9.931  1.0350  1.8637  0.4996
   90SAPS   C23 8715   4.602   0.501  10.205 -0.1313 -0.2239 -0.0324
   90SAPS   H3R 8716   4.575   0.399  10.240 -0.0419  0.3836  1.8491
   90SAPS   H3S 8717   4.710   0.514  10.181  0.2789  0.1680  1.9866
   90SAPS   C24 8718   4.519   0.540  10.079 -0.2956  0.4633 -0.5356
   90SAPS   H4R 8719   4.411   0.532  10.100 -0.7824  0.5968 -2.8354
   90SAPS   H4S 8720   4.543   0.458  10.008 -0.7204 -0.3474  0.2487
   90SAPS   C25 8721   4.566   0.671  10.026  0.2926  0.5797 -0.1909
   90SAPS   H5R 8722   4.539   0.754  10.094 -2.0764  0.9034 -1.4414
   90SAPS   C26 8723   4.619   0.685   9.900 -1.1760 -0.0569 -0.2583
   90SAPS   H6R 8724   4.643   0.790   9.874 -3.5679  0.0670 -2.0794
   90SAPS   C27 8725   4.653   0.584   9.789  0.1584 -0.3309 -0.2832
   90SAPS   H7R 8726   4.619   0.482   9.814 -0.7962 -0.0978 -0.5842
   90SAPS   H7S 8727   4.764   0.576   9.783  0.1120 -1.1691 -0.1038
   90SAPS   C28 8728   4.592   0.613   9.655  0.6933  0.4472 -0.8526
   90SAPS   H8R 8729   4.523   0.698   9.652  0.1094 -0.0545 -1.8124
   90SAPS   C29 8730   4.614   0.532   9.554 -0.0098 -0.1947 -0.3249
   90SAPS   H9R 8731   4.558   0.547   9.461  0.0650 -0.5024 -0.4218
   90SAPS  C210 8732   4.697   0.402   9.563  0.2435 -0.0406 -0.8417
   90SAPS  H10R 8733   4.625   0.323   9.533 -0.4981  0.5192 -0.5489
   90SAPS  H10S 8734   4.731   0.372   9.665 -0.6561 -2.0694 -1.1137
   90SAPS  C211 8735   4.815   0.385   9.469  0.2267  0.1236 -0.4165
   90SAPS  H11R 8736   4.916   0.379   9.513  0.2353 -1.3429 -0.6133
   90SAPS  C212 8737   4.817   0.368   9.334 -0.1917 -0.3174 -0.6318
   90SAPS  H12R 8738   4.915   0.373   9.286 -0.8127  1.1754 -1.7531
   90SAPS  C213 8739   4.692   0.360   9.252 -0.7583  0.8311 -0.3445
   90SAPS  H13R 8740   4.638   0.453   9.223 -2.0631 -0.0397 -0.7494
   90SAPS  H13S 8741   4.615   0.318   9.320 -2.9082  0.8495 -2.7089
   90SAPS  C214 8742   4.706   0.279   9.132  0.2778 -0.7862 -0.0857
   90SAPS  H14R 8743   4.679   0.172   9.138  1.5686 -1.1149 -0.0607
   90SAPS  C215 8744   4.727   0.331   9.012 -0.0856 -0.1292  0.6084
   90SAPS  H15R 8745   4.736   0.270   8.921 -0.1498  1.2366 -0.3157
   90SAPS  C216 8746   4.748   0.480   8.993 -0.3226 -0.2923 -0.1555
   90SAPS  H16R 8747   4.846   0.486   8.942 -0.2209  0.2033  0.0954
   90SAPS  H16S 8748   4.762   0.542   9.084 -2.0076 -1.9632  1.2991
   90SAPS  C217 8749   4.636   0.556   8.917  0.0633  0.2428 -0.8644
   90SAPS  H17R 8750   4.657   0.665   8.929  0.2886  0.2984 -1.7296
   90SAPS  H17S 8751   4.545   0.532   8.976  1.0676  1.8312  1.3732
   90SAPS  C218 8752   4.620   0.514   8.770  0.0729  0.5128  0.2966
   90SAPS  H18R 8753   4.544   0.588   8.735  0.3952  0.2479 -0.9918
   90SAPS  H18S 8754   4.587   0.409   8.751  1.2698  0.1892 -0.0488
   90SAPS  C219 8755   4.744   0.544   8.683 -0.1603 -0.2573  0.4304
   90SAPS  H19R 8756   4.727   0.530   8.574 -0.8101  0.7644  0.3971
   90SAPS  H19S 8757   4.835   0.488   8.713 -0.5019 -1.2033 -0.2567
   90SAPS  C220 8758   4.777   0.695   8.697  0.7455  0.6489  0.7441
   90SAPS  H20R 8759   4.845   0.718   8.782  1.2754  1.2384  0.1699
   90SAPS  H20S 8760   4.684   0.755   8.706  0.1603 -0.1877  0.3254
   90SAPS  H20T 8761   4.835   0.721   8.605  1.0683 -1.5856  0.3040
   90SAPS   C33 8762   4.087   1.005   9.880  0.4826 -0.6248 -0.2654
   90SAPS   H3X 8763   4.155   1.092   9.894  0.0663 -0.2393 -0.6540
   90SAPS   H3Y 8764   3.987   1.037   9.918  0.4797  0.9948 -1.6003
   90SAPS   C34 8765   4.082   0.956   9.734  0.2976 -0.4355  0.1745
   90SAPS   H4X 8766   4.007   0.875   9.718 -0.6402  0.1428  1.5998
   90SAPS   H4Y 8767   4.178   0.907   9.706  0.5939 -0.7278  1.6619
   90SAPS   C35 8768   4.042   1.065   9.629 -0.5286  0.4000 -1.0780
   90SAPS   H5X 8769   4.081   1.163   9.662  2.5082 -0.7091 -1.1318
   90SAPS   H5Y 8770   3.931   1.063   9.633 -0.4359  0.3506  2.1344
   90SAPS   C36 8771   4.106   1.051   9.490 -0.2610 -0.2197 -0.0473
   90SAPS   H6X 8772   4.086   0.955   9.439  2.8121  0.2696 -2.2876
   90SAPS   H6Y 8773   4.217   1.052   9.494 -0.0950  2.5102 -3.0706
   90SAPS   C37 8774   4.039   1.164   9.408  0.9352  0.6314 -0.2875
   90SAPS   H7X 8775   4.055   1.267   9.448  0.1572  0.1225  1.3789
   90SAPS   H7Y 8776   3.929   1.158   9.417  0.9255 -0.7207 -1.3476
   90SAPS   C38 8777   4.051   1.169   9.256 -0.0282 -0.0505 -0.1688
   90SAPS   H8X 8778   4.157   1.170   9.221  0.2584 -1.1698  0.6456
   90SAPS   H8Y 8779   4.003   1.266   9.230  0.2526 -0.1139 -0.9401
   90SAPS   C39 8780   3.990   1.042   9.193 -0.0208 -0.0508  0.3685
   90SAPS   H9X 8781   3.882   1.041   9.220 -0.2887  0.9326 -0.6459
   90SAPS   H9Y 8782   4.033   0.953   9.244 -0.4266  0.0723  0.9414
   90SAPS  C310 8783   4.010   1.025   9.039  0.2460 -0.3129 -0.2920
   90SAPS  H10X 8784   3.943   0.938   9.022  0.2573  0.0727 -2.4732
   90SAPS  H10Y 8785   4.116   1.009   9.008  0.5590  0.5431  0.3240
   90SAPS  C311 8786   3.961   1.142   8.949 -1.3152  0.5291 -0.2806
   90SAPS  H11X 8787   4.046   1.214   8.941  0.0560 -1.0490 -0.2472
   90SAPS  H11Y 8788   3.873   1.196   8.989 -2.4840 -0.1375 -1.8947
   90SAPS  C312 8789   3.931   1.104   8.797 -0.3005  0.3602 -0.4940
   90SAPS  H12X 8790   3.850   1.028   8.806  2.4853 -2.6992 -0.5867
   90SAPS  H12Y 8791   4.017   1.044   8.760 -0.9516 -0.1164 -1.2425
   90SAPS  C313 8792   3.899   1.226   8.709  0.9142  0.4550  0.5932
   90SAPS  H13X 8793   3.980   1.302   8.708 -1.0101  2.5378  0.2838
   90SAPS  H13Y 8794   3.804   1.275   8.741  0.5840  0.8346 -0.9495
   90SAPS  C314 8795   3.896   1.195   8.567 -0.2687 -0.2443  0.4229
   90SAPS  H14X 8796   3.808   1.130   8.544  0.4761 -1.1372  0.0276
   90SAPS  H14Y 8797   3.985   1.132   8.543 -0.6234 -0.5860 -0.0113
   90SAPS  C315 8798   3.895   1.314   8.470 -0.5878  0.1582  0.4509
   90SAPS  H15X 8799   3.885   1.276   8.367  0.3299  2.9988 -0.7535
   90SAPS  H15Y 8800   3.990   1.371   8.479 -0.4647  0.2297 -1.2216
   90SAPS  C316 8801   3.783   1.415   8.505 -0.4430  0.6536  0.4440
   90SAPS  H16X 8802   3.807   1.459   8.604 -0.0386  0.5013  0.4142
   90SAPS  H16Y 8803   3.690   1.356   8.523 -0.2441 -0.1546 -1.0918
   90SAPS  C317 8804   3.763   1.526   8.403 -0.0732  0.0912 -0.2630
   90SAPS  H17X 8805   3.758   1.486   8.299 -2.0695  2.2009 -1.0077
   90SAPS  H17Y 8806   3.847   1.598   8.395 -1.1259  1.2728 -0.8797
   90SAPS  C318 8807   3.646   1.616   8.452 -0.0841 -0.5037  0.2894
   90SAPS  H18X 8808   3.625   1.682   8.366  3.9043  0.2249 -0.2307
   90SAPS  H18Y 8809   3.686   1.664   8.544  1.7942 -0.9919 -0.2417
   90SAPS  H18Z 8810   3.563   1.545   8.473 -1.0856  0.8000  0.8053
   91SAPS     N 8811   2.579   0.004   5.878  0.0098 -0.9967  0.0651
   91SAPS   HN1 8812   2.503   0.073   5.892  0.8725  0.3219 -1.6770
   91SAPS   HN2 8813   2.611   0.019   5.780 -1.7977 -0.2130 -0.4217
   91SAPS   HN3 8814   2.540  -0.093   5.880 -2.8368  0.0270 -2.9957
   91SAPS   C12 8815   2.689   0.014   5.977 -0.4214  0.1178 -0.4396
   91SAPS  H12A 8816   2.751  -0.071   5.953 -0.0570  0.2840 -0.0872
   91SAPS   C13 8817   2.784   0.129   5.955  0.5805 -0.0356  0.7299
   91SAPS  O13A 8818   2.766   0.215   5.864 -0.3574 -0.5278  0.2820
   91SAPS  O13B 8819   2.897   0.128   6.013  0.7177 -0.1631  0.0029
   91SAPS   C11 8820   2.636   0.014   6.121  0.1270  0.3891 -0.0733
   91SAPS  H11A 8821   2.552   0.086   6.126  0.0521  0.2777  0.3515
   91SAPS  H11B 8822   2.707   0.059   6.194 -0.2783 -1.3506  1.4455
   91SAPS     P 8823   2.450  -0.157   6.163  0.0902  0.0557 -0.0776
   91SAPS   O13 8824   2.369  -0.101   6.047  0.1969  0.1285  0.2671
   91SAPS   O14 8825   2.432  -0.305   6.200 -0.6243 -0.8471 -0.2236
   91SAPS   O12 8826   2.598  -0.122   6.156 -0.9177  0.6319  0.3132
   91SAPS   O11 8827   2.404  -0.085   6.290 -0.0052 -0.3740 -0.3745
   91SAPS    C1 8828   2.481  -0.064   6.406 -0.4770 -0.6030  0.3251
   91SAPS    HA 8829   2.591  -0.060   6.394 -0.6670  2.8943 -0.8149
   91SAPS    HB 8830   2.458   0.042   6.430 -1.1974 -0.9822  1.3840
   91SAPS    C2 8831   2.434  -0.156   6.518  0.0618  0.0582 -0.4383
   91SAPS    HS 8832   2.493  -0.248   6.501  0.9123  0.5446 -0.1841
   91SAPS   O21 8833   2.296  -0.192   6.517 -0.0133 -0.2166 -0.7189
   91SAPS   C21 8834   2.258  -0.287   6.598 -0.2931  0.4084 -0.5803
   91SAPS   O22 8835   2.322  -0.335   6.691  0.8439 -0.6346  0.0325
   91SAPS   C22 8836   2.114  -0.327   6.562  0.6097 -0.3831 -0.3453
   91SAPS   H2R 8837   2.093  -0.286   6.461 -1.6533  1.7967  0.9410
   91SAPS   H2S 8838   2.124  -0.436   6.543 -1.1635 -0.2989 -1.9611
   91SAPS    C3 8839   2.478  -0.081   6.660 -0.4905 -0.5751  0.5773
   91SAPS    HX 8840   2.584  -0.052   6.642 -0.5083  0.0806  1.4574
   91SAPS    HY 8841   2.470  -0.158   6.740  3.2381 -1.3024  0.3708
   91SAPS   O31 8842   2.404   0.042   6.684  0.2709 -0.2710 -0.0099
   91SAPS   C31 8843   2.278   0.046   6.724 -0.3793  0.5799 -0.5172
   91SAPS   O32 8844   2.209  -0.046   6.756 -0.5471  0.7605 -0.5774
   91SAPS   C32 8845   2.231   0.190   6.716  0.1706 -0.5071  0.7681
   91SAPS   H2X 8846   2.175   0.179   6.621  0.1292 -0.2830  0.7654
   91SAPS   H2Y 8847   2.317   0.256   6.689  0.2550 -0.5379  0.9643
   91SAPS   C23 8848   2.016  -0.308   6.670 -0.3716 -0.1631  0.3538
   91SAPS   H3R 8849   1.918  -0.296   6.618  0.0964  0.7271 -0.3488
   91SAPS   H3S 8850   2.036  -0.213   6.724 -1.0685 -0.8585  1.8643
   91SAPS   C24 8851   2.006  -0.421   6.769 -0.7415  0.4156 -0.4310
   91SAPS   H4R 8852   2.095  -0.421   6.835 -0.1501 -0.2311 -1.2276
   91SAPS   H4S 8853   1.988  -0.513   6.710  0.5842  0.6557 -1.2324
   91SAPS   C25 8854   1.883  -0.380   6.851  0.0573  0.3509  0.2392
   91SAPS   H5R 8855   1.782  -0.397   6.809  1.3824 -0.6874 -2.7028
   91SAPS   C26 8856   1.882  -0.349   6.983  0.0907 -0.1988 -0.3217
   91SAPS   H6R 8857   1.791  -0.305   7.027  0.6911  1.1488 -0.4041
   91SAPS   C27 8858   2.003  -0.338   7.077  0.6565  0.4362  0.2644
   91SAPS   H7R 8859   1.995  -0.259   7.155  3.3679 -0.3335  1.3720
   91SAPS   H7S 8860   2.095  -0.314   7.020 -0.7650 -0.9770 -2.6964
   91SAPS   C28 8861   2.022  -0.479   7.133  0.0064  0.9733 -0.2779
   91SAPS   H8R 8862   2.018  -0.562   7.061  3.2123 -1.3364  2.0422
   91SAPS   C29 8863   2.039  -0.514   7.266 -0.1664 -0.2208  0.2624
   91SAPS   H9R 8864   2.031  -0.619   7.296 -0.0868 -0.0437  0.8957
   91SAPS  C210 8865   2.041  -0.415   7.370 -0.3455 -0.2205 -0.4415
   91SAPS  H10R 8866   2.085  -0.320   7.334  2.0432 -0.5143  1.5681
   91SAPS  H10S 8867   2.112  -0.446   7.449  0.1409 -3.1492 -1.9636
   91SAPS  C211 8868   1.901  -0.397   7.421  0.4289  0.0020  0.0857
   91SAPS  H11R 8869   1.825  -0.409   7.342  0.0937  0.2982  0.3613
   91SAPS  C212 8870   1.869  -0.351   7.547  0.2746 -0.0750  0.4869
   91SAPS  H12R 8871   1.761  -0.343   7.563  0.3497  0.0103  0.9463
   91SAPS  C213 8872   1.962  -0.313   7.662 -0.7275 -0.1253 -0.5524
   91SAPS  H13R 8873   1.898  -0.249   7.726  1.0580  2.9309 -1.6961
   91SAPS  H13S 8874   2.035  -0.243   7.616 -2.3311  1.0985 -1.3164
   91SAPS  C214 8875   2.013  -0.430   7.737 -0.3868 -0.0538  1.0093
   91SAPS  H14R 8876   2.026  -0.515   7.669 -0.8259 -1.2160  2.3594
   91SAPS  C215 8877   2.045  -0.430   7.866 -0.3132  0.1586 -0.2899
   91SAPS  H15R 8878   2.114  -0.506   7.904 -2.2050 -1.7887 -0.6554
   91SAPS  C216 8879   2.030  -0.315   7.964 -0.5638 -0.3633  0.3203
   91SAPS  H16R 8880   1.931  -0.319   8.014 -0.7484 -2.0850 -0.1722
   91SAPS  H16S 8881   2.042  -0.217   7.913 -1.6400 -1.4524 -2.1299
   91SAPS  C217 8882   2.133  -0.328   8.072 -0.4042  0.5713  0.6957
   91SAPS  H17R 8883   2.119  -0.431   8.112 -0.8386  0.6798  0.8217
   91SAPS  H17S 8884   2.100  -0.259   8.153  1.4233  0.5927  1.4516
   91SAPS  C218 8885   2.266  -0.297   8.023 -0.4698 -0.0894 -0.5001
   91SAPS  H18R 8886   2.268  -0.206   7.961 -1.5912 -0.2546 -0.7831
   91SAPS  H18S 8887   2.304  -0.387   7.970 -0.7647 -0.7186  0.3429
   91SAPS  C219 8888   2.378  -0.293   8.139  0.0918 -0.0587 -0.0017
   91SAPS  H19R 8889   2.476  -0.294   8.086  0.6641 -1.1532  1.0764
   91SAPS  H19S 8890   2.365  -0.389   8.192  0.4874  0.1011  0.3948
   91SAPS  C220 8891   2.364  -0.181   8.235 -0.7151 -0.4981 -0.1799
   91SAPS  H20R 8892   2.415  -0.095   8.185 -0.9487  0.9224  1.9412
   91SAPS  H20S 8893   2.413  -0.203   8.332 -0.2110  0.2672 -0.2511
   91SAPS  H20T 8894   2.257  -0.156   8.251 -0.1540  0.7433  1.7190
   91SAPS   C33 8895   2.146   0.231   6.835 -0.1113 -0.4866  0.4731
   91SAPS   H3X 8896   2.061   0.160   6.847 -0.2580 -0.8735 -2.4986
   91SAPS   H3Y 8897   2.085   0.323   6.826 -0.3698 -0.5849  1.2019
   91SAPS   C34 8898   2.229   0.242   6.969 -0.5301 -0.5559  0.1829
   91SAPS   H4X 8899   2.270   0.141   6.991 -2.6892 -0.8534  3.2325
   91SAPS   H4Y 8900   2.159   0.276   7.049  1.1146  2.7748  0.2658
   91SAPS   C35 8901   2.350   0.342   6.951 -0.1503  0.4297 -0.4469
   91SAPS   H5X 8902   2.330   0.425   6.881  1.1551  3.1686  2.3068
   91SAPS   H5Y 8903   2.428   0.286   6.895  0.8586 -0.4508  1.7691
   91SAPS   C36 8904   2.405   0.423   7.080  0.0995  0.2735  0.0360
   91SAPS   H6X 8905   2.328   0.500   7.100  0.8068  0.4574  2.2146
   91SAPS   H6Y 8906   2.495   0.476   7.043  0.1944 -0.5969 -0.9977
   91SAPS   C37 8907   2.431   0.324   7.197  0.0985 -0.1996 -0.0306
   91SAPS   H7X 8908   2.510   0.248   7.178  0.0815  0.3708 -2.5544
   91SAPS   H7Y 8909   2.333   0.272   7.199  0.1250 -0.2126  1.6241
   91SAPS   C38 8910   2.459   0.395   7.331  0.0725 -0.8430  1.1244
   91SAPS   H8X 8911   2.364   0.438   7.368  0.1769 -0.1304  0.5730
   91SAPS   H8Y 8912   2.528   0.481   7.315 -1.1615 -0.3600 -1.9133
   91SAPS   C39 8913   2.511   0.293   7.428  0.4520 -0.1000  0.4427
   91SAPS   H9X 8914   2.611   0.271   7.386  0.0408 -1.6401  0.2548
   91SAPS   H9Y 8915   2.444   0.205   7.427 -0.4528  0.5823 -0.6103
   91SAPS  C310 8916   2.524   0.336   7.575  0.5270  0.3647  0.2366
   91SAPS  H10X 8917   2.581   0.431   7.581 -0.0152  0.6444  0.9300
   91SAPS  H10Y 8918   2.573   0.261   7.640  1.4800 -0.4304 -1.3561
   91SAPS  C311 8919   2.381   0.356   7.632  0.7231 -0.2577 -0.1953
   91SAPS  H11X 8920   2.325   0.259   7.634  0.4624 -0.1205 -0.6049
   91SAPS  H11Y 8921   2.332   0.432   7.567  0.3987 -0.0418  0.2978
   91SAPS  C312 8922   2.371   0.425   7.770  0.2477  0.0628 -0.6182
   91SAPS  H12X 8923   2.267   0.440   7.807  0.6055 -1.6171  1.1219
   91SAPS  H12Y 8924   2.412   0.528   7.767 -1.3035  0.6753 -1.8257
   91SAPS  C313 8925   2.438   0.350   7.887  0.6023 -0.1639  0.0943
   91SAPS  H13X 8926   2.423   0.428   7.965 -2.3852 -0.3277 -0.2471
   91SAPS  H13Y 8927   2.547   0.354   7.865  0.4463 -0.4944 -0.7490
   91SAPS  C314 8928   2.373   0.213   7.927  0.6425  0.2825 -0.3340
   91SAPS  H14X 8929   2.423   0.166   8.014  1.5272  0.9802 -0.4581
   91SAPS  H14Y 8930   2.395   0.148   7.839 -0.0072  0.0033 -0.2934
   91SAPS  C315 8931   2.223   0.212   7.953  0.1637 -0.1157 -0.1718
   91SAPS  H15X 8932   2.167   0.215   7.857  1.7729  1.6084 -1.0837
   91SAPS  H15Y 8933   2.185   0.301   8.007 -1.1053 -0.4324 -0.5271
   91SAPS  C316 8934   2.181   0.085   8.025 -1.0005 -0.2157 -0.4765
   91SAPS  H16X 8935   2.234   0.071   8.121  1.2615 -3.4335 -2.1141
   91SAPS  H16Y 8936   2.208  -0.001   7.960  1.6126  0.5758 -0.4843
   91SAPS  C317 8937   2.027   0.084   8.056 -0.2597 -0.4445 -0.4510
   91SAPS  H17X 8938   2.016   0.155   8.140 -3.4102  0.3047 -1.4110
   91SAPS  H17Y 8939   1.996  -0.012   8.102  0.7543  0.5921  2.5205
   91SAPS  C318 8940   1.934   0.125   7.944  0.0459 -0.1849 -0.7175
   91SAPS  H18X 8941   1.827   0.134   7.972  0.6816 -0.3174  1.8909
   91SAPS  H18Y 8942   1.936   0.048   7.864  0.1721  0.1401 -1.0255
   91SAPS  H18Z 8943   1.960   0.223   7.899 -0.2739 -0.2177 -0.9717
   92SAPS     N 8944   1.819   4.646   6.199  0.4574  0.2390  0.3071
   92SAPS   HN1 8945   1.801   4.550   6.163 -2.6619  0.8178  0.1378
   92SAPS   HN2 8946   1.882   4.688   6.128 -0.8343 -0.4011 -1.2634
   92SAPS   HN3 8947   1.868   4.638   6.290  0.3594 -1.0074  0.2664
   92SAPS   C12 8948   1.688   4.725   6.233  0.6234 -0.4395  0.1105
   92SAPS  H12A 8949   1.709   4.803   6.304 -0.1166  0.8635 -1.0717
   92SAPS   C13 8950   1.643   4.810   6.106  0.6571 -0.3119 -0.4127
   92SAPS  O13A 8951   1.738   4.841   6.031 -0.5221 -0.1070  0.5526
   92SAPS  O13B 8952   1.535   4.875   6.123 -0.3552  0.2850  0.5998
   92SAPS   C11 8953   1.580   4.621   6.277 -0.0520  0.1472 -0.6691
   92SAPS  H11A 8954   1.550   4.562   6.188 -0.6245  1.1392 -1.1448
   92SAPS  H11B 8955   1.495   4.683   6.312  0.9473  1.6011 -0.7828
   92SAPS     P 8956   1.541   4.440   6.463 -0.2806  0.2351  0.0047
   92SAPS   O13 8957   1.446   4.368   6.374  0.0287 -0.4054  0.8070
   92SAPS   O14 8958   1.638   4.363   6.540 -0.1346  0.0581 -0.2484
   92SAPS   O12 8959   1.623   4.550   6.391 -0.2332 -0.0215 -0.1243
   92SAPS   O11 8960   1.443   4.523   6.553 -0.0396  0.1189  0.9287
   92SAPS    C1 8961   1.494   4.592   6.664  0.1923  0.3690 -0.4872
   92SAPS    HA 8962   1.600   4.627   6.656 -0.3378  2.2460  0.3072
   92SAPS    HB 8963   1.445   4.692   6.667 -2.0077 -0.7287  2.2490
   92SAPS    C2 8964   1.466   4.522   6.797 -0.0125  0.2738  0.7609
   92SAPS    HS 8965   1.496   4.416   6.780 -0.7616  0.3478 -1.1989
   92SAPS   O21 8966   1.330   4.529   6.825  0.0563  0.3646 -0.6386
   92SAPS   C21 8967   1.245   4.438   6.783  0.2889  0.8930  0.0657
   92SAPS   O22 8968   1.272   4.345   6.709  0.0607 -0.1618  0.2249
   92SAPS   C22 8969   1.101   4.477   6.821 -0.4053 -0.6456  0.2172
   92SAPS   H2R 8970   1.103   4.588   6.826  0.8919 -0.5729 -1.5769
   92SAPS   H2S 8971   1.027   4.450   6.742 -0.0526 -1.7372  0.2455
   92SAPS    C3 8972   1.540   4.583   6.913 -0.5399 -0.7983 -0.0098
   92SAPS    HX 8973   1.497   4.684   6.922 -0.9185 -1.0330  0.8674
   92SAPS    HY 8974   1.649   4.599   6.905 -1.1281  2.6174 -2.2567
   92SAPS   O31 8975   1.508   4.511   7.032  0.4157 -0.3320 -0.1132
   92SAPS   C31 8976   1.571   4.398   7.054 -0.2791 -0.5261  0.0307
   92SAPS   O32 8977   1.650   4.345   6.981 -0.3961 -0.1041 -0.3181
   92SAPS   C32 8978   1.532   4.336   7.190  0.3405  0.3542  0.8575
   92SAPS   H2X 8979   1.471   4.245   7.172  0.1265  0.2184  2.2245
   92SAPS   H2Y 8980   1.467   4.407   7.246 -0.5257 -0.3820  0.8027
   92SAPS   C23 8981   1.047   4.428   6.957 -0.4684 -0.2783 -0.1580
   92SAPS   H3R 8982   0.963   4.497   6.979 -1.4718 -1.2210 -0.9885
   92SAPS   H3S 8983   1.128   4.444   7.032 -1.6401  4.5172  0.2338
   92SAPS   C24 8984   1.004   4.276   6.967  0.3169 -0.2673 -0.4145
   92SAPS   H4R 8985   0.927   4.248   6.891 -0.4716  1.2379 -0.1966
   92SAPS   H4S 8986   0.940   4.276   7.058  0.8130 -0.0207 -0.0668
   92SAPS   C25 8987   1.118   4.171   6.975  0.4888  0.1032  0.3902
   92SAPS   H5R 8988   1.148   4.130   6.878 -1.7016 -1.5317  0.3675
   92SAPS   C26 8989   1.162   4.115   7.090 -0.4613 -0.0147 -0.8820
   92SAPS   H6R 8990   1.250   4.049   7.088 -0.4445 -0.1095  1.3262
   92SAPS   C27 8991   1.110   4.157   7.231  0.5078  0.5374  0.8831
   92SAPS   H7R 8992   1.117   4.062   7.289 -0.7980  0.4311  0.8711
   92SAPS   H7S 8993   1.004   4.188   7.219  0.6149  1.0831  1.3657
   92SAPS   C28 8994   1.168   4.281   7.300  1.1173 -0.2824  0.1832
   92SAPS   H8R 8995   1.238   4.348   7.249 -1.2295  2.1743  0.0656
   92SAPS   C29 8996   1.135   4.314   7.430  0.3424 -0.1940  0.8284
   92SAPS   H9R 8997   1.181   4.402   7.478 -0.6704 -0.1359  1.7055
   92SAPS  C210 8998   1.052   4.226   7.521  0.2217  0.1223  0.3247
   92SAPS  H10R 8999   1.106   4.219   7.618 -1.2606 -1.6591  1.0382
   92SAPS  H10S 9000   1.056   4.127   7.470 -1.1471  0.8007 -1.1375
   92SAPS  C211 9001   0.908   4.275   7.525  0.4155  0.1911 -0.1102
   92SAPS  H11R 9002   0.848   4.291   7.434 -1.6793 -0.1991  1.1827
   92SAPS  C212 9003   0.838   4.286   7.639  0.2279 -0.1436  0.3832
   92SAPS  H12R 9004   0.737   4.325   7.621 -0.5028 -2.2113 -0.1839
   92SAPS  C213 9005   0.884   4.267   7.782  0.0897 -0.6826 -0.5445
   92SAPS  H13R 9006   0.818   4.327   7.848  0.0104 -1.3760  0.0036
   92SAPS  H13S 9007   0.983   4.313   7.800 -0.5112  0.6344 -0.5288
   92SAPS  C214 9008   0.903   4.127   7.835 -0.5217 -0.1555 -0.6042
   92SAPS  H14R 9009   0.897   4.058   7.749 -0.1534  0.0380 -0.7920
   92SAPS  C215 9010   0.895   4.100   7.966 -0.0681 -0.6493  0.1355
   92SAPS  H15R 9011   0.908   3.994   7.994 -1.4545 -0.9807 -0.4314
   92SAPS  C216 9012   0.869   4.191   8.085  0.7128  0.2700  0.6155
   92SAPS  H16R 9013   0.760   4.190   8.109  0.5731 -0.1201 -0.0290
   92SAPS  H16S 9014   0.888   4.299   8.064 -1.9739  0.4307 -1.3615
   92SAPS  C217 9015   0.935   4.139   8.210 -0.4950  0.1014  0.4550
   92SAPS  H17R 9016   1.045   4.135   8.193 -0.4468 -1.1976  1.0020
   92SAPS  H17S 9017   0.915   4.033   8.234  1.1922 -0.1725  0.7369
   92SAPS  C218 9018   0.894   4.212   8.334  0.6058 -0.2265  0.0788
   92SAPS  H18R 9019   0.783   4.210   8.347  0.7113  0.7749  1.2740
   92SAPS  H18S 9020   0.924   4.318   8.323  2.2617 -0.8423 -1.4384
   92SAPS  C219 9021   0.964   4.159   8.462 -1.1003 -0.7218  0.5425
   92SAPS  H19R 9022   1.072   4.141   8.444 -0.6984 -0.0045  2.1887
   92SAPS  H19S 9023   0.925   4.059   8.493  0.4390 -1.4409  0.2297
   92SAPS  C220 9024   0.949   4.264   8.569  0.3593 -1.1131 -0.0915
   92SAPS  H20R 9025   1.020   4.349   8.554 -1.5555  1.3388  3.7770
   92SAPS  H20S 9026   0.972   4.218   8.668 -1.2592  0.6542  1.1574
   92SAPS  H20T 9027   0.848   4.308   8.584  0.2952 -1.0146 -0.8289
   92SAPS   C33 9028   1.659   4.290   7.271 -0.1331 -0.4862  0.3274
   92SAPS   H3X 9029   1.708   4.207   7.215 -0.4114 -0.3597 -0.1137
   92SAPS   H3Y 9030   1.626   4.242   7.365  3.1847 -0.8829  1.3497
   92SAPS   C34 9031   1.763   4.403   7.292  0.3704  0.1965 -0.5347
   92SAPS   H4X 9032   1.707   4.479   7.351  1.8908  1.1545 -0.2938
   92SAPS   H4Y 9033   1.783   4.444   7.191 -1.6598 -2.7564 -2.1973
   92SAPS   C35 9034   1.879   4.330   7.368 -0.3722 -0.3893  0.0557
   92SAPS   H5X 9035   1.956   4.320   7.289 -1.0269  1.2210 -0.8068
   92SAPS   H5Y 9036   1.843   4.229   7.398 -0.8123 -0.5584 -1.0357
   92SAPS   C36 9037   1.948   4.399   7.484 -0.3648  0.5241 -0.3253
   92SAPS   H6X 9038   1.959   4.504   7.450  0.2690  0.5634 -0.0037
   92SAPS   H6Y 9039   2.052   4.361   7.496 -0.7867 -0.5233  0.0952
   92SAPS   C37 9040   1.870   4.391   7.616 -0.7323  0.5116  0.0506
   92SAPS   H7X 9041   1.770   4.431   7.588 -1.4951  1.2792  3.6565
   92SAPS   H7Y 9042   1.923   4.457   7.688 -0.0692 -1.5458  1.4869
   92SAPS   C38 9043   1.871   4.256   7.692 -0.5878  0.0064  0.4416
   92SAPS   H8X 9044   1.977   4.224   7.702 -0.7318 -0.1026  1.6574
   92SAPS   H8Y 9045   1.819   4.173   7.640 -0.7144  0.0473  0.5031
   92SAPS   C39 9046   1.815   4.261   7.836 -0.5338 -0.0282 -1.1094
   92SAPS   H9X 9047   1.832   4.164   7.887  2.9181  2.3390  2.6080
   92SAPS   H9Y 9048   1.705   4.275   7.843 -0.5794 -1.0471  0.6805
   92SAPS  C310 9049   1.872   4.369   7.927  0.2921 -0.3425 -0.1117
   92SAPS  H10X 9050   1.795   4.445   7.951  0.7370 -0.5654  2.2140
   92SAPS  H10Y 9051   1.959   4.420   7.882 -0.5842  0.1454 -1.2818
   92SAPS  C311 9052   1.905   4.311   8.071  0.2104  0.0372 -0.0256
   92SAPS  H11X 9053   1.964   4.218   8.057 -0.5352 -0.5864  0.9466
   92SAPS  H11Y 9054   1.806   4.285   8.113  0.5325 -0.2101  0.5818
   92SAPS  C312 9055   1.986   4.403   8.163 -0.4156 -0.3361  0.0034
   92SAPS  H12X 9056   1.964   4.509   8.138 -1.6953 -0.5575  0.1612
   92SAPS  H12Y 9057   2.093   4.392   8.138 -0.8600 -0.6419 -1.8836
   92SAPS  C313 9058   1.974   4.364   8.306  0.9087 -0.1774  0.4114
   92SAPS  H13X 9059   1.872   4.390   8.344  0.7662 -0.1952  0.0433
   92SAPS  H13Y 9060   2.036   4.439   8.360 -1.3246  0.6109  1.9582
   92SAPS  C314 9061   2.025   4.230   8.351  0.7408 -0.5034 -0.2023
   92SAPS  H14X 9062   2.127   4.205   8.315  0.5759  0.9975 -1.7459
   92SAPS  H14Y 9063   1.974   4.146   8.299  1.0044  0.2255 -1.6494
   92SAPS  C315 9064   2.023   4.206   8.503  0.6913 -0.2665 -0.1416
   92SAPS  H15X 9065   2.040   4.305   8.551 -0.5916 -0.4461  0.7002
   92SAPS  H15Y 9066   2.105   4.138   8.533 -1.0514 -1.9766  0.7971
   92SAPS  C316 9067   1.891   4.139   8.544 -0.1876 -0.3318  0.4838
   92SAPS  H16X 9068   1.870   4.054   8.475 -1.7157  0.7087 -0.3659
   92SAPS  H16Y 9069   1.806   4.209   8.530 -0.2510 -0.9955 -2.9556
   92SAPS  C317 9070   1.904   4.066   8.678 -0.4567 -0.2671  0.3609
   92SAPS  H17X 9071   1.933   4.135   8.760  2.0172 -1.5299  0.6014
   92SAPS  H17Y 9072   1.982   3.988   8.664 -2.5522 -1.8470 -3.5171
   92SAPS  C318 9073   1.774   3.995   8.723  0.2755  0.1577 -0.2716
   92SAPS  H18X 9074   1.773   3.952   8.826  1.3339 -3.1884 -1.5648
   92SAPS  H18Y 9075   1.753   3.913   8.651 -0.7517  0.1488  0.0410
   92SAPS  H18Z 9076   1.683   4.057   8.711  1.8532  2.9039  1.4582
   93SAPS     N 9077   2.066   5.185   6.367  0.0326  0.4456  0.2942
   93SAPS   HN1 9078   2.119   5.195   6.456 -1.8218  0.1912  1.4670
   93SAPS   HN2 9079   2.045   5.281   6.333  0.7016  0.7878  0.8226
   93SAPS   HN3 9080   1.974   5.145   6.394 -0.3916  0.3078 -1.3506
   93SAPS   C12 9081   2.139   5.106   6.274  0.1510 -0.7332  0.5453
   93SAPS  H12A 9082   2.077   5.086   6.188 -1.7649  0.3269  1.6377
   93SAPS   C13 9083   2.260   5.181   6.216 -0.4786  0.2303  0.4879
   93SAPS  O13A 9084   2.274   5.309   6.236  0.0378 -0.1178 -0.0750
   93SAPS  O13B 9085   2.330   5.124   6.132  0.3723 -0.3022 -0.4043
   93SAPS   C11 9086   2.182   4.966   6.340 -0.3455  0.0286  0.5703
   93SAPS  H11A 9087   2.261   4.980   6.417  2.5632 -1.5938 -2.0166
   93SAPS  H11B 9088   2.238   4.909   6.264  0.3683  2.3254 -0.6633
   93SAPS     P 9089   2.086   4.752   6.452  0.0302  0.0078  0.2071
   93SAPS   O13 9090   1.950   4.696   6.460 -0.9382 -0.1018  0.0900
   93SAPS   O14 9091   2.191   4.673   6.386  0.3280  0.8820  0.1177
   93SAPS   O12 9092   2.077   4.888   6.380  0.5754 -0.3193 -0.0575
   93SAPS   O11 9093   2.142   4.781   6.600  0.0395  0.3668 -0.1599
   93SAPS    C1 9094   2.048   4.847   6.684  0.4185  0.4587 -0.5252
   93SAPS    HA 9095   2.053   4.955   6.659  1.5522  0.5371  0.0030
   93SAPS    HB 9096   1.941   4.828   6.662  0.3409 -0.1133  0.3169
   93SAPS    C2 9097   2.083   4.827   6.836 -0.3883 -0.5294 -0.3929
   93SAPS    HS 9098   2.036   4.916   6.883  0.0433  0.0619 -1.0772
   93SAPS   O21 9099   2.226   4.830   6.868 -0.4950  1.0305  0.5213
   93SAPS   C21 9100   2.281   4.949   6.861 -0.0627  0.0046  0.5694
   93SAPS   O22 9101   2.222   5.049   6.828 -0.4768  0.9525  0.1542
   93SAPS   C22 9102   2.428   4.945   6.907  0.2164 -0.0760  0.6859
   93SAPS   H2R 9103   2.433   4.896   7.007 -2.2146 -1.4507  0.1781
   93SAPS   H2S 9104   2.480   4.877   6.836  0.7599 -0.2959  1.2905
   93SAPS    C3 9105   2.019   4.692   6.874  0.5886 -0.4692  0.4332
   93SAPS    HX 9106   2.054   4.619   6.797  0.0792  1.2091 -1.4497
   93SAPS    HY 9107   1.908   4.700   6.866  0.4086 -2.2796  0.7548
   93SAPS   O31 9108   2.039   4.661   7.014  0.0187  0.0319  0.2390
   93SAPS   C31 9109   2.128   4.576   7.039  0.1806 -0.3178 -0.5510
   93SAPS   O32 9110   2.211   4.529   6.960 -0.6106 -0.0340 -0.3413
   93SAPS   C32 9111   2.128   4.554   7.188 -0.1973  1.0144 -0.6364
   93SAPS   H2X 9112   2.138   4.447   7.216 -0.2588  1.2278  0.2315
   93SAPS   H2Y 9113   2.030   4.590   7.226  1.4549  1.7144  3.1486
   93SAPS   C23 9114   2.490   5.089   6.899 -0.0854  0.4234 -0.4791
   93SAPS   H3R 9115   2.466   5.128   6.798  0.1499  0.1067 -0.6601
   93SAPS   H3S 9116   2.600   5.075   6.895  0.0389  0.6091  1.6160
   93SAPS   C24 9117   2.441   5.197   7.000  0.4408  0.9075  0.8491
   93SAPS   H4R 9118   2.348   5.156   7.045 -0.3332  2.1580  0.4135
   93SAPS   H4S 9119   2.413   5.288   6.942  0.0641 -0.1126 -0.5869
   93SAPS   C25 9120   2.541   5.240   7.101  0.6510  0.1443  0.1278
   93SAPS   H5R 9121   2.613   5.318   7.072 -1.7225  2.4630  0.3126
   93SAPS   C26 9122   2.550   5.191   7.226 -0.1142 -0.8507  0.0225
   93SAPS   H6R 9123   2.622   5.243   7.290 -1.9546  2.3227 -0.3986
   93SAPS   C27 9124   2.472   5.075   7.291  0.0840 -0.8187  0.2592
   93SAPS   H7R 9125   2.429   5.005   7.216 -1.0356 -0.5033  0.5976
   93SAPS   H7S 9126   2.381   5.119   7.337 -0.1337  1.0969 -1.9185
   93SAPS   C28 9127   2.536   4.983   7.390 -0.0553 -0.0641 -0.2127
   93SAPS   H8R 9128   2.547   4.877   7.361 -0.1727 -0.4881  1.2496
   93SAPS   C29 9129   2.556   5.017   7.518 -0.3200  0.4880 -0.6120
   93SAPS   H9R 9130   2.610   4.948   7.584 -0.4806  0.1603 -0.8254
   93SAPS  C210 9131   2.530   5.144   7.586 -0.8072 -0.4654 -0.1831
   93SAPS  H10R 9132   2.474   5.221   7.528 -0.8101  1.5326  2.3909
   93SAPS  H10S 9133   2.627   5.195   7.608  1.6976 -4.0793 -2.4106
   93SAPS  C211 9134   2.437   5.134   7.711  0.3369  0.4491 -0.7189
   93SAPS  H11R 9135   2.339   5.088   7.690 -0.0264  1.1515 -0.5968
   93SAPS  C212 9136   2.470   5.172   7.840  0.3067  0.3704  0.2037
   93SAPS  H12R 9137   2.400   5.152   7.923 -0.3161 -0.0011 -0.4131
   93SAPS  C213 9138   2.601   5.231   7.886 -0.6033  0.1702 -0.1784
   93SAPS  H13R 9139   2.589   5.331   7.933  1.8005  1.3048 -1.8578
   93SAPS  H13S 9140   2.670   5.248   7.800  0.7432  0.2228  0.8810
   93SAPS  C214 9141   2.659   5.146   7.990 -1.0127 -0.0206 -0.4400
   93SAPS  H14R 9142   2.740   5.076   7.962  0.7225  2.2849 -1.3581
   93SAPS  C215 9143   2.625   5.140   8.120  0.3853 -0.0725 -0.1839
   93SAPS  H15R 9144   2.684   5.076   8.187  0.7915  0.5025  0.0088
   93SAPS  C216 9145   2.523   5.228   8.173  0.1771  0.5632 -0.3594
   93SAPS  H16R 9146   2.450   5.178   8.242  0.8384  3.6592  2.7284
   93SAPS  H16S 9147   2.467   5.284   8.095 -1.8754 -1.3379 -0.3165
   93SAPS  C217 9148   2.587   5.345   8.253 -0.0148  0.4128 -0.2202
   93SAPS  H17R 9149   2.505   5.419   8.251 -0.0048  0.4795  1.4922
   93SAPS  H17S 9150   2.658   5.400   8.187  1.6251  1.7987  2.6347
   93SAPS  C218 9151   2.628   5.310   8.393  0.1326 -0.3191  0.2586
   93SAPS  H18R 9152   2.722   5.251   8.392  0.2178 -0.2081  1.1246
   93SAPS  H18S 9153   2.543   5.255   8.440  0.8235  0.3370  2.3422
   93SAPS  C219 9154   2.664   5.434   8.481 -0.1491  0.2765 -0.0684
   93SAPS  H19R 9155   2.585   5.510   8.465  0.3133  1.1668  1.7525
   93SAPS  H19S 9156   2.762   5.474   8.448  1.3686 -2.6481  0.7017
   93SAPS  C220 9157   2.668   5.395   8.633 -0.0378 -0.5881  0.0546
   93SAPS  H20R 9158   2.571   5.343   8.649  0.0841 -0.3328  1.6491
   93SAPS  H20S 9159   2.662   5.490   8.690  1.3508 -0.3639 -0.1403
   93SAPS  H20T 9160   2.758   5.333   8.655  0.6548  1.0015  1.8553
   93SAPS   C33 9161   2.239   4.629   7.269  0.2169 -0.1535  0.0488
   93SAPS   H3X 9162   2.250   4.738   7.249  1.3475 -0.1909  0.4010
   93SAPS   H3Y 9163   2.341   4.594   7.241 -0.2121 -2.2377  0.9948
   93SAPS   C34 9164   2.221   4.610   7.418  0.2663 -0.0462  0.3362
   93SAPS   H4X 9165   2.226   4.499   7.426  0.4392 -0.0845 -0.2780
   93SAPS   H4Y 9166   2.122   4.653   7.446 -0.7376 -2.3649  0.4956
   93SAPS   C35 9167   2.326   4.671   7.508  0.4717  0.1147 -0.5604
   93SAPS   H5X 9168   2.335   4.782   7.499  1.8303  0.1623  1.1524
   93SAPS   H5Y 9169   2.429   4.638   7.487  0.8382  0.9814 -0.1560
   93SAPS   C36 9170   2.285   4.652   7.652 -0.1247  0.5062 -0.1982
   93SAPS   H6X 9171   2.262   4.544   7.662 -0.7849  0.7310  0.7454
   93SAPS   H6Y 9172   2.188   4.706   7.661  1.1531  2.3701  2.9466
   93SAPS   C37 9173   2.387   4.707   7.755 -0.4235  0.9807 -0.3341
   93SAPS   H7X 9174   2.434   4.805   7.730 -1.4677  1.5206 -0.2271
   93SAPS   H7Y 9175   2.475   4.640   7.762 -0.0547  1.2708 -2.0479
   93SAPS   C38 9176   2.330   4.717   7.899  0.0104  0.3916 -0.3416
   93SAPS   H8X 9177   2.418   4.743   7.961 -0.4677 -0.2489  0.6186
   93SAPS   H8Y 9178   2.298   4.617   7.935  0.8752  1.0230  2.2634
   93SAPS   C39 9179   2.212   4.813   7.931 -0.6507 -0.0149 -0.1830
   93SAPS   H9X 9180   2.129   4.789   7.862  0.4393 -0.6467 -1.2938
   93SAPS   H9Y 9181   2.250   4.915   7.908  0.4133 -0.2001  0.7007
   93SAPS  C310 9182   2.173   4.804   8.080 -0.1672  0.2630 -0.3308
   93SAPS  H10X 9183   2.151   4.701   8.116 -2.3820  1.3355  1.4675
   93SAPS  H10Y 9184   2.078   4.859   8.095  0.4181  1.2509 -0.2308
   93SAPS  C311 9185   2.274   4.873   8.173  0.4989 -0.3172 -0.0706
   93SAPS  H11X 9186   2.308   4.970   8.130  2.4755 -0.0003  2.1174
   93SAPS  H11Y 9187   2.365   4.808   8.175  0.7696  0.0672  0.0288
   93SAPS  C312 9188   2.219   4.891   8.315  0.4890  0.0245  0.7151
   93SAPS  H12X 9189   2.132   4.959   8.307 -0.7086 -1.4543  0.8687
   93SAPS  H12Y 9190   2.297   4.943   8.376  1.1320 -0.4272  0.2880
   93SAPS  C313 9191   2.180   4.765   8.395  0.6436  0.1257  0.0728
   93SAPS  H13X 9192   2.271   4.701   8.399  2.2645  2.4494  2.8103
   93SAPS  H13Y 9193   2.096   4.711   8.347  1.5396 -1.3821  0.1318
   93SAPS  C314 9194   2.134   4.797   8.538  0.4849  0.6893 -0.5946
   93SAPS  H14X 9195   2.044   4.863   8.533  0.5785  0.7592 -1.5147
   93SAPS  H14Y 9196   2.216   4.847   8.594  0.7814  0.7832 -1.1072
   93SAPS  C315 9197   2.093   4.670   8.613 -0.0721 -0.6042 -0.1937
   93SAPS  H15X 9198   2.187   4.612   8.618 -0.2533 -0.8248  0.7275
   93SAPS  H15Y 9199   2.013   4.617   8.557 -0.0699  1.1351 -1.9172
   93SAPS  C316 9200   2.055   4.692   8.762 -0.6095  0.3072 -0.1077
   93SAPS  H16X 9201   2.028   4.800   8.771  0.1663  0.3441  2.0035
   93SAPS  H16Y 9202   2.141   4.681   8.831 -0.0947 -0.9294 -0.9295
   93SAPS  C317 9203   1.947   4.599   8.811  0.2330  0.5692 -0.1297
   93SAPS  H17X 9204   1.861   4.609   8.741 -0.2313  2.1509  0.6472
   93SAPS  H17Y 9205   1.911   4.627   8.912  0.7094 -0.5913  0.3754
   93SAPS  C318 9206   1.983   4.451   8.808  0.4873  0.2801 -0.6876
   93SAPS  H18X 9207   1.895   4.388   8.834  0.6094  0.6781  0.7293
   93SAPS  H18Y 9208   2.055   4.428   8.890 -0.0309  0.0727 -0.2860
   93SAPS  H18Z 9209   2.029   4.419   8.712 -0.2124 -0.1733 -0.8728
   94SAPS     N 9210   2.780   0.477   5.851  0.3662 -0.1305  0.2271
   94SAPS   HN1 9211   2.739   0.383   5.867 -0.4007  0.3276  1.1031
   94SAPS   HN2 9212   2.791   0.489   5.749  0.2207 -0.4679  0.1720
   94SAPS   HN3 9213   2.871   0.466   5.899  1.9633  0.8374 -2.5127
   94SAPS   C12 9214   2.682   0.574   5.926 -0.7201 -0.2363 -0.2905
   94SAPS  H12A 9215   2.695   0.563   6.032 -1.0785 -1.7937 -0.4020
   94SAPS   C13 9216   2.716   0.716   5.889  0.2490  0.9451  0.0760
   94SAPS  O13A 9217   2.798   0.746   5.795 -0.1817  0.0520  0.3743
   94SAPS  O13B 9218   2.648   0.806   5.941 -0.2884  0.1460 -0.0613
   94SAPS   C11 9219   2.542   0.531   5.876 -0.2139  0.0417 -0.6401
   94SAPS  H11A 9220   2.538   0.550   5.767  1.3262 -0.8432 -0.8696
   94SAPS  H11B 9221   2.462   0.592   5.924 -0.0908 -0.1520 -0.1834
   94SAPS     P 9222   2.385   0.324   5.921 -0.2665 -0.0950 -0.2608
   94SAPS   O13 9223   2.297   0.399   5.826 -0.0285  0.4590 -0.2598
   94SAPS   O14 9224   2.391   0.174   5.919  0.1759 -0.8714 -0.4302
   94SAPS   O12 9225   2.518   0.390   5.894 -0.4830 -0.5180  0.3200
   94SAPS   O11 9226   2.361   0.370   6.068  0.0564 -0.6051 -0.1561
   94SAPS    C1 9227   2.462   0.337   6.169 -0.0259 -0.4447  0.2202
   94SAPS    HA 9228   2.442   0.233   6.203  0.1999 -0.4873  0.2227
   94SAPS    HB 9229   2.567   0.342   6.133 -0.1531  3.1061  0.1409
   94SAPS    C2 9230   2.455   0.430   6.298  0.6617 -0.2335 -0.2562
   94SAPS    HS 9231   2.498   0.527   6.267  0.7496 -0.0162  0.5392
   94SAPS   O21 9232   2.534   0.372   6.409  0.9073  0.5288  0.4288
   94SAPS   C21 9233   2.667   0.362   6.395  0.5992 -0.0096 -0.7649
   94SAPS   O22 9234   2.734   0.416   6.312  0.2666  0.0054 -0.0402
   94SAPS   C22 9235   2.705   0.265   6.511 -0.0746  0.3316  0.5810
   94SAPS   H2R 9236   2.650   0.311   6.596 -0.9221 -1.2170  0.8990
   94SAPS   H2S 9237   2.644   0.172   6.503  1.0381 -0.2845 -1.0875
   94SAPS    C3 9238   2.304   0.445   6.344 -0.0088 -0.7234 -0.3666
   94SAPS    HX 9239   2.281   0.353   6.403  0.3186 -2.5911 -3.0590
   94SAPS    HY 9240   2.235   0.457   6.258 -0.6115  3.1813  0.5592
   94SAPS   O31 9241   2.285   0.568   6.424  0.2040 -0.5803  0.4911
   94SAPS   C31 9242   2.169   0.583   6.482  0.8285 -0.0221  0.1923
   94SAPS   O32 9243   2.081   0.498   6.481  0.0408  0.6042  0.3898
   94SAPS   C32 9244   2.158   0.716   6.562  0.6291 -0.1760  0.2177
   94SAPS   H2X 9245   2.142   0.798   6.489 -0.2331 -1.0244 -0.5648
   94SAPS   H2Y 9246   2.262   0.731   6.598  1.3275  1.8269 -2.4128
   94SAPS   C23 9247   2.853   0.233   6.538  0.2635  0.1361 -0.6506
   94SAPS   H3R 9248   2.900   0.319   6.590  1.7728 -1.4739  0.6989
   94SAPS   H3S 9249   2.909   0.208   6.445  1.4430  1.5903 -0.3651
   94SAPS   C24 9250   2.861   0.106   6.626 -0.2448 -0.2255  0.3595
   94SAPS   H4R 9251   2.918   0.028   6.570  0.8522  1.8559 -1.4938
   94SAPS   H4S 9252   2.759   0.063   6.638 -0.1665 -0.6799 -0.5530
   94SAPS   C25 9253   2.938   0.135   6.752  0.4188  0.5638  0.4599
   94SAPS   H5R 9254   3.042   0.167   6.739  0.3199  1.1060  1.0017
   94SAPS   C26 9255   2.887   0.121   6.879  0.0362 -0.3104 -0.2031
   94SAPS   H6R 9256   2.950   0.150   6.964  1.2251 -2.2463 -0.3948
   94SAPS   C27 9257   2.749   0.088   6.924  0.4698  0.4708 -0.0161
   94SAPS   H7R 9258   2.677   0.133   6.852  0.5653  1.3607  0.4384
   94SAPS   H7S 9259   2.736   0.125   7.027  0.9758  1.4021 -0.2834
   94SAPS   C28 9260   2.714  -0.062   6.921 -0.4624  0.2617  0.3963
   94SAPS   H8R 9261   2.782  -0.118   6.854 -0.3198  4.2623 -3.0541
   94SAPS   C29 9262   2.611  -0.118   6.981 -0.4047 -0.0013  0.6902
   94SAPS   H9R 9263   2.592  -0.224   6.962 -0.7460  0.1388  0.2566
   94SAPS  C210 9264   2.512  -0.045   7.070  0.5375  0.2462  0.1376
   94SAPS  H10R 9265   2.508   0.057   7.027  0.8078 -0.2258 -1.0188
   94SAPS  H10S 9266   2.555  -0.037   7.172  0.9493  1.2128 -0.1094
   94SAPS  C211 9267   2.374  -0.097   7.064  0.1966 -0.3013 -0.4353
   94SAPS  H11R 9268   2.328  -0.097   6.964  2.3489 -2.2470 -1.4605
   94SAPS  C212 9269   2.309  -0.158   7.164  0.1265  0.0449  0.6212
   94SAPS  H12R 9270   2.213  -0.202   7.133  0.5173  0.8570 -1.8168
   94SAPS  C213 9271   2.353  -0.189   7.312  0.2990 -0.1632  0.2643
   94SAPS  H13R 9272   2.464  -0.193   7.310  0.3240 -2.0674  2.9828
   94SAPS  H13S 9273   2.323  -0.292   7.341 -0.3271  0.6707  2.6577
   94SAPS  C214 9274   2.311  -0.078   7.417  0.4809  0.4476  0.8486
   94SAPS  H14R 9275   2.257   0.011   7.380  0.2440 -0.1099 -0.1559
   94SAPS  C215 9276   2.319  -0.091   7.546 -0.2655 -0.2739 -0.2328
   94SAPS  H15R 9277   2.284  -0.016   7.618  0.2286 -0.8183  0.5958
   94SAPS  C216 9278   2.379  -0.217   7.611  0.0497 -0.1516  0.3571
   94SAPS  H16R 9279   2.424  -0.287   7.538  1.1631 -0.8521  1.6807
   94SAPS  H16S 9280   2.297  -0.269   7.666  0.9112 -0.2038  1.6214
   94SAPS  C217 9281   2.486  -0.190   7.721 -0.4813 -0.3696  0.0462
   94SAPS  H17R 9282   2.509  -0.282   7.779  1.7998  0.3815  0.3833
   94SAPS  H17S 9283   2.438  -0.117   7.789 -0.2317  0.1711 -0.3492
   94SAPS  C218 9284   2.612  -0.112   7.668  0.0269 -0.3400 -0.6755
   94SAPS  H18R 9285   2.591  -0.020   7.609  0.3359  1.7031  2.2972
   94SAPS  H18S 9286   2.654  -0.188   7.598 -0.0081 -0.2631 -0.7796
   94SAPS  C219 9287   2.724  -0.076   7.768  1.3331 -0.4676 -0.2071
   94SAPS  H19R 9288   2.818  -0.062   7.709  0.9356  0.2783 -0.6820
   94SAPS  H19S 9289   2.732  -0.157   7.843  0.3347  0.7579  1.2558
   94SAPS  C220 9290   2.688   0.058   7.848  0.6090 -0.5995  0.3173
   94SAPS  H20R 9291   2.579   0.052   7.865  0.5534 -0.7886 -0.1026
   94SAPS  H20S 9292   2.702   0.156   7.798  0.3902 -0.5635  0.3259
   94SAPS  H20T 9293   2.733   0.050   7.949 -1.4677  4.4827  1.8168
   94SAPS   C33 9294   2.055   0.702   6.676 -0.3807  0.2665 -0.0628
   94SAPS   H3X 9295   2.046   0.595   6.705  2.8402  0.1785  0.8049
   94SAPS   H3Y 9296   1.959   0.739   6.633 -0.8327  0.5672  1.1856
   94SAPS   C34 9297   2.082   0.773   6.813 -0.1413 -0.7645 -0.3328
   94SAPS   H4X 9298   1.998   0.739   6.877 -0.6899 -0.6233 -0.9815
   94SAPS   H4Y 9299   2.063   0.881   6.797  1.7115 -0.5950 -1.5509
   94SAPS   C35 9300   2.226   0.759   6.866 -0.2108  0.1172  0.1517
   94SAPS   H5X 9301   2.302   0.806   6.799  1.9688 -2.1089  0.9783
   94SAPS   H5Y 9302   2.262   0.654   6.866 -2.2101 -0.6045 -1.1820
   94SAPS   C36 9303   2.253   0.812   7.009  0.4038  0.8098  0.3082
   94SAPS   H6X 9304   2.187   0.758   7.080  0.4832 -2.1551 -1.7918
   94SAPS   H6Y 9305   2.246   0.923   7.016 -2.3046  0.6094  1.2632
   94SAPS   C37 9306   2.405   0.797   7.043 -0.7051  0.2015 -0.4005
   94SAPS   H7X 9307   2.482   0.843   6.977 -1.7217  1.8752 -0.4560
   94SAPS   H7Y 9308   2.414   0.687   7.032  0.1225  0.2184  0.1229
   94SAPS   C38 9309   2.419   0.839   7.186 -0.4296  0.1891  0.5465
   94SAPS   H8X 9310   2.330   0.802   7.241 -1.0464 -2.1768 -1.9373
   94SAPS   H8Y 9311   2.425   0.950   7.191 -0.3131  0.2915 -1.6086
   94SAPS   C39 9312   2.548   0.790   7.260  0.3965 -0.0028  0.6906
   94SAPS   H9X 9313   2.621   0.871   7.242 -0.6034  0.8140  0.2656
   94SAPS   H9Y 9314   2.577   0.694   7.213 -1.5252 -1.1479  1.7499
   94SAPS  C310 9315   2.535   0.775   7.417  0.0851 -0.7988 -0.9629
   94SAPS  H10X 9316   2.466   0.690   7.440 -0.8945 -0.1327 -1.4134
   94SAPS  H10Y 9317   2.487   0.867   7.457 -0.4698 -1.3497 -0.3351
   94SAPS  C311 9318   2.678   0.751   7.465 -0.4200 -0.4310 -0.1507
   94SAPS  H11X 9319   2.765   0.812   7.431  0.8232 -0.6815  2.4596
   94SAPS  H11Y 9320   2.710   0.649   7.435  4.6520  0.8049  0.4778
   94SAPS  C312 9321   2.670   0.767   7.619 -0.2952  0.1590  0.4123
   94SAPS  H12X 9322   2.574   0.721   7.651 -0.3833 -1.8941 -2.6568
   94SAPS  H12Y 9323   2.669   0.872   7.657 -0.2731  1.1871 -2.2995
   94SAPS  C313 9324   2.777   0.681   7.681 -0.1772  0.1088 -0.2404
   94SAPS  H13X 9325   2.875   0.733   7.677 -0.3797  0.5248  0.0763
   94SAPS  H13Y 9326   2.788   0.592   7.616 -3.1637 -1.8677  1.7943
   94SAPS  C314 9327   2.738   0.641   7.824 -1.3503  0.5053 -0.1938
   94SAPS  H14X 9328   2.651   0.573   7.813 -1.1798  0.2624 -0.0584
   94SAPS  H14Y 9329   2.699   0.729   7.878 -2.4207 -0.9722  1.4876
   94SAPS  C315 9330   2.856   0.573   7.894  0.6630  0.0731  0.3724
   94SAPS  H15X 9331   2.931   0.651   7.917  0.3069 -0.2140  2.6129
   94SAPS  H15Y 9332   2.897   0.487   7.838  0.2599 -0.1974  0.4870
   94SAPS  C316 9333   2.810   0.512   8.027  0.6214 -0.3105 -0.0406
   94SAPS  H16X 9334   2.747   0.421   8.019 -1.2989  0.6664  2.8233
   94SAPS  H16Y 9335   2.736   0.582   8.071  1.8121 -0.2397  1.9152
   94SAPS  C317 9336   2.924   0.489   8.126 -0.0580 -0.5825  1.2893
   94SAPS  H17X 9337   3.011   0.463   8.061 -1.5259  0.4493 -1.1472
   94SAPS  H17Y 9338   2.901   0.403   8.193 -0.4642 -1.2438  0.3198
   94SAPS  C318 9339   2.965   0.615   8.209  0.8469  0.5307 -0.0739
   94SAPS  H18X 9340   3.006   0.586   8.308  0.9104  0.4502 -0.1246
   94SAPS  H18Y 9341   2.883   0.688   8.223  1.4818  1.3027 -0.3730
   94SAPS  H18Z 9342   3.049   0.660   8.152 -0.2010  3.1642  0.4261
   95SAPS     N 9343   5.858   4.648   6.248 -0.1205  0.8219 -0.6073
   95SAPS   HN1 9344   5.771   4.593   6.232 -1.2800  2.5018 -0.2069
   95SAPS   HN2 9345   5.936   4.581   6.231  0.9169  1.3424  1.9236
   95SAPS   HN3 9346   5.863   4.669   6.350  2.4985 -0.9909 -0.3159
   95SAPS   C12 9347   5.868   4.775   6.172 -0.3854 -0.1902  0.6442
   95SAPS  H12A 9348   5.901   4.848   6.245  0.7873  2.2651 -2.2519
   95SAPS   C13 9349   5.982   4.777   6.062 -0.2847 -0.1018  0.0864
   95SAPS  O13A 9350   6.065   4.692   6.054  0.1880 -0.3121  0.6500
   95SAPS  O13B 9351   5.984   4.877   5.985  0.2299  0.7641 -0.0490
   95SAPS   C11 9352   5.728   4.810   6.106 -0.0306 -0.2702 -0.7071
   95SAPS  H11A 9353   5.715   4.742   6.019 -3.6523  0.0354 -0.4673
   95SAPS  H11B 9354   5.732   4.916   6.075  4.8043 -0.0505  0.2412
   95SAPS     P 9355   5.533   4.675   6.203  0.1611 -0.0832  0.0568
   95SAPS   O13 9356   5.440   4.702   6.093  0.2258 -1.2231  0.4170
   95SAPS   O14 9357   5.623   4.554   6.188 -0.1225  0.2691 -0.0217
   95SAPS   O12 9358   5.631   4.800   6.205 -0.2738 -0.1902  0.0265
   95SAPS   O11 9359   5.469   4.684   6.341 -0.1121 -0.4066  0.2141
   95SAPS    C1 9360   5.434   4.806   6.406  0.4580  0.1701  0.6311
   95SAPS    HA 9361   5.522   4.871   6.420 -0.6986  2.0524 -0.5594
   95SAPS    HB 9362   5.367   4.867   6.341  0.0381  1.0098  1.8202
   95SAPS    C2 9363   5.379   4.791   6.549 -0.2128  0.6121  0.1676
   95SAPS    HS 9364   5.355   4.889   6.596 -0.8120 -0.2099  1.6083
   95SAPS   O21 9365   5.490   4.732   6.620  0.0903 -0.0221 -0.2279
   95SAPS   C21 9366   5.519   4.785   6.741 -0.2487  0.1736  0.4030
   95SAPS   O22 9367   5.455   4.872   6.797  0.2828  0.3004  0.5274
   95SAPS   C22 9368   5.640   4.705   6.798  0.0426 -0.5382 -0.5692
   95SAPS   H2R 9369   5.618   4.596   6.793 -2.8581 -0.0514  0.5854
   95SAPS   H2S 9370   5.720   4.725   6.724  1.3548 -0.1063  0.9338
   95SAPS    C3 9371   5.258   4.693   6.542 -0.0548 -0.1039 -0.2612
   95SAPS    HX 9372   5.303   4.594   6.569  0.7401 -0.3132 -2.2782
   95SAPS    HY 9373   5.218   4.680   6.439 -0.0789  2.7613 -0.6272
   95SAPS   O31 9374   5.160   4.720   6.641 -0.3559 -0.2009  0.1290
   95SAPS   C31 9375   5.080   4.817   6.593  0.4195 -0.0924  0.0931
   95SAPS   O32 9376   5.081   4.861   6.481 -0.1142  0.0858 -0.1894
   95SAPS   C32 9377   4.967   4.849   6.694  0.6926 -0.5576 -0.3510
   95SAPS   H2X 9378   4.897   4.910   6.632 -4.0445 -2.0725  3.1983
   95SAPS   H2Y 9379   5.018   4.909   6.772  1.6171 -1.0351 -0.5940
   95SAPS   C23 9380   5.681   4.767   6.933 -0.4387 -0.0252 -0.2349
   95SAPS   H3R 9381   5.600   4.773   7.010  0.8554 -0.9169  1.2159
   95SAPS   H3S 9382   5.717   4.871   6.919  0.9014 -0.5214 -0.4764
   95SAPS   C24 9383   5.806   4.709   7.000 -0.1354  1.1044  0.1422
   95SAPS   H4R 9384   5.841   4.770   7.086 -1.7958  1.8079  0.3382
   95SAPS   H4S 9385   5.890   4.708   6.928  0.9590  2.8002  1.3619
   95SAPS   C25 9386   5.773   4.569   7.049 -0.2162 -0.3752 -0.6633
   95SAPS   H5R 9387   5.755   4.497   6.968 -2.1034  0.9860 -1.4678
   95SAPS   C26 9388   5.764   4.521   7.176 -0.4156  0.2935 -0.6244
   95SAPS   H6R 9389   5.735   4.417   7.196  2.4572 -0.7524 -1.6594
   95SAPS   C27 9390   5.792   4.603   7.296 -0.4272 -0.0183  0.2537
   95SAPS   H7R 9391   5.745   4.701   7.272  1.9210  0.5599 -2.2772
   95SAPS   H7S 9392   5.900   4.628   7.294 -0.2773 -0.6818 -3.6314
   95SAPS   C28 9393   5.755   4.548   7.424  0.1589 -0.2198  0.2729
   95SAPS   H8R 9394   5.667   4.482   7.418  1.1398 -1.5656  0.7037
   95SAPS   C29 9395   5.827   4.572   7.539 -0.5924  0.5665  1.1009
   95SAPS   H9R 9396   5.799   4.524   7.634  0.5710 -1.7979  0.2962
   95SAPS  C210 9397   5.955   4.654   7.555 -0.1022 -0.8949  0.3522
   95SAPS  H10R 9398   5.926   4.761   7.569  1.2119 -0.1475 -2.2508
   95SAPS  H10S 9399   6.006   4.657   7.456  0.9161 -1.9558  0.8367
   95SAPS  C211 9400   6.049   4.583   7.649 -0.1343 -0.6893 -0.0886
   95SAPS  H11R 9401   6.091   4.488   7.614  0.0125 -1.1040  1.1718
   95SAPS  C212 9402   6.070   4.617   7.773 -0.6531 -0.0203 -0.0245
   95SAPS  H12R 9403   6.142   4.570   7.842 -2.3832 -1.0570  1.1009
   95SAPS  C213 9404   6.012   4.745   7.834 -0.0248 -0.0164 -0.7539
   95SAPS  H13R 9405   5.926   4.782   7.773 -1.0179  0.3622  0.8571
   95SAPS  H13S 9406   6.085   4.828   7.825  0.6478 -0.2266  2.2786
   95SAPS  C214 9407   5.989   4.736   7.983  0.1862 -0.3904  0.2303
   95SAPS  H14R 9408   6.047   4.664   8.041  0.1377 -0.0415  0.7156
   95SAPS  C215 9409   5.889   4.798   8.050  0.2017 -0.4834 -0.7985
   95SAPS  H15R 9410   5.885   4.783   8.159 -0.2994 -0.5069 -0.8206
   95SAPS  C216 9411   5.790   4.897   7.989 -0.7463 -0.1161  1.0790
   95SAPS  H16R 9412   5.697   4.848   7.953  0.0545 -1.2951  0.5906
   95SAPS  H16S 9413   5.830   4.951   7.901 -1.5175  0.9713  1.3942
   95SAPS  C217 9414   5.751   5.012   8.092  0.2693  0.7990  0.6333
   95SAPS  H17R 9415   5.718   4.971   8.190 -2.0566 -0.0570 -0.4790
   95SAPS  H17S 9416   5.663   5.070   8.059 -0.3259  0.5517  1.7562
   95SAPS  C218 9417   5.859   5.118   8.109  0.1883 -0.8122  0.4170
   95SAPS  H18R 9418   5.891   5.144   8.006 -0.5705  2.4608  0.9547
   95SAPS  H18S 9419   5.943   5.079   8.169 -0.2486 -0.6031  1.1677
   95SAPS  C219 9420   5.806   5.235   8.190  0.1838  0.5949 -0.4483
   95SAPS  H19R 9421   5.753   5.205   8.282 -2.8979  0.9457 -2.0359
   95SAPS  H19S 9422   5.729   5.278   8.122 -0.7847 -1.9709 -1.0449
   95SAPS  C220 9423   5.902   5.340   8.231 -0.5725  0.0519  0.2609
   95SAPS  H20R 9424   5.851   5.413   8.298 -0.2097 -1.5187  2.3058
   95SAPS  H20S 9425   5.936   5.389   8.137  3.0197 -1.0906  0.8774
   95SAPS  H20T 9426   5.974   5.282   8.293 -1.0161  1.0691  1.7735
   95SAPS   C33 9427   4.887   4.733   6.753  0.3465  0.7716 -1.0293
   95SAPS   H3X 9428   4.885   4.645   6.686  0.2270  1.0594 -1.4047
   95SAPS   H3Y 9429   4.780   4.764   6.765 -0.4674 -2.5525  1.0387
   95SAPS   C34 9430   4.927   4.678   6.891 -0.4390  0.0400  0.1052
   95SAPS   H4X 9431   4.905   4.763   6.960 -1.7182  0.2343 -0.5272
   95SAPS   H4Y 9432   5.034   4.651   6.886 -0.6902 -1.1793  1.0785
   95SAPS   C35 9433   4.846   4.553   6.934 -0.0759  0.5187  0.3059
   95SAPS   H5X 9434   4.878   4.467   6.872 -0.1787  0.1525  0.7593
   95SAPS   H5Y 9435   4.737   4.569   6.924 -0.7952 -3.2539  1.4612
   95SAPS   C36 9436   4.881   4.500   7.074  0.1193  0.0434  0.5327
   95SAPS   H6X 9437   4.985   4.461   7.073 -0.4701 -1.5854  0.8191
   95SAPS   H6Y 9438   4.809   4.423   7.111  0.0355 -0.3645 -0.4438
   95SAPS   C37 9439   4.866   4.613   7.175 -0.3599  0.5122  0.1751
   95SAPS   H7X 9440   4.770   4.667   7.174  0.8927  2.8163 -1.4703
   95SAPS   H7Y 9441   4.944   4.692   7.182 -0.5823  0.9465 -1.8034
   95SAPS   C38 9442   4.883   4.542   7.316 -0.6362 -0.8909 -0.1967
   95SAPS   H8X 9443   4.969   4.473   7.305  0.3032  0.5084 -1.9228
   95SAPS   H8Y 9444   4.795   4.475   7.329 -0.3696 -1.0577  0.7795
   95SAPS   C39 9445   4.880   4.633   7.444 -0.6916  0.2910 -0.0160
   95SAPS   H9X 9446   4.781   4.684   7.444 -0.6308  0.4053 -0.5811
   95SAPS   H9Y 9447   4.961   4.709   7.437 -0.5761  0.4428  2.2880
   95SAPS  C310 9448   4.888   4.560   7.576 -0.0191  0.2016  0.7665
   95SAPS  H10X 9449   4.992   4.523   7.585  0.3965  0.7995 -1.1713
   95SAPS  H10Y 9450   4.813   4.479   7.584 -2.7041  2.3887 -0.9738
   95SAPS  C311 9451   4.868   4.648   7.696 -0.4534  0.0761  0.1758
   95SAPS  H11X 9452   4.776   4.709   7.681 -0.6257 -0.3260 -0.4222
   95SAPS  H11Y 9453   4.950   4.723   7.701 -0.3826  0.0780 -0.8437
   95SAPS  C312 9454   4.846   4.569   7.825  0.1395  0.2874 -0.4611
   95SAPS  H12X 9455   4.835   4.465   7.789  0.2181  0.1191 -0.0082
   95SAPS  H12Y 9456   4.755   4.593   7.884  1.2684  0.7195  1.1579
   95SAPS  C313 9457   4.980   4.586   7.906 -0.1075 -0.6277 -0.2180
   95SAPS  H13X 9458   4.988   4.680   7.964  1.3059 -1.1182  0.3806
   95SAPS  H13Y 9459   5.069   4.570   7.842  1.2003  3.1403  0.5024
   95SAPS  C314 9460   4.987   4.475   8.017  0.7563 -0.5967  0.6882
   95SAPS  H14X 9461   4.974   4.381   7.960 -4.4496  0.6384 -0.4067
   95SAPS  H14Y 9462   4.895   4.488   8.077  0.7886  0.7108  0.4662
   95SAPS  C315 9463   5.115   4.474   8.090  0.1059  0.1784  0.0166
   95SAPS  H15X 9464   5.121   4.573   8.140 -1.7865  2.7596 -4.5416
   95SAPS  H15Y 9465   5.190   4.474   8.007 -0.8971  0.9357 -0.8999
   95SAPS  C316 9466   5.140   4.363   8.187  0.7510 -0.1282  0.3063
   95SAPS  H16X 9467   5.144   4.264   8.137 -1.9573  0.8255 -1.9078
   95SAPS  H16Y 9468   5.048   4.365   8.248  0.1209  0.0647 -0.6266
   95SAPS  C317 9469   5.261   4.385   8.276 -0.8316 -0.4184 -0.3437
   95SAPS  H17X 9470   5.243   4.474   8.341 -0.2011 -1.0482  0.7059
   95SAPS  H17Y 9471   5.356   4.395   8.219 -0.0781  0.1835  0.9981
   95SAPS  C318 9472   5.294   4.267   8.367  0.6270  0.6282 -0.1688
   95SAPS  H18X 9473   5.367   4.296   8.445 -1.2591  2.3280  1.0044
   95SAPS  H18Y 9474   5.316   4.181   8.299  2.3562  2.0446 -1.4265
   95SAPS  H18Z 9475   5.200   4.234   8.415 -0.6055  0.6849 -2.4573
   96SAPS     N 9476   6.314   5.764   6.348 -0.1192 -0.0017  0.6103
   96SAPS   HN1 9477   6.216   5.731   6.344  0.1914 -0.6007 -2.9210
   96SAPS   HN2 9478   6.383   5.687   6.358  1.0586  1.1460  1.6501
   96SAPS   HN3 9479   6.326   5.820   6.435 -0.5592  0.4872  0.3575
   96SAPS   C12 9480   6.342   5.847   6.235  0.3439  0.0347 -0.2862
   96SAPS  H12A 9481   6.338   5.790   6.143  0.3613 -1.6089  0.7103
   96SAPS   C13 9482   6.242   5.964   6.215  0.1391  0.2746 -0.1071
   96SAPS  O13A 9483   6.144   5.966   6.282 -0.3666  1.1317 -0.4904
   96SAPS  O13B 9484   6.252   6.042   6.116 -0.0683  0.3663 -0.0070
   96SAPS   C11 9485   6.485   5.896   6.261  0.3093 -0.1396  0.0071
   96SAPS  H11A 9486   6.513   5.940   6.163  0.6074  1.1738  0.6757
   96SAPS  H11B 9487   6.548   5.805   6.271 -1.2829 -1.2299  0.2495
   96SAPS     P 9488   6.608   6.099   6.360 -0.3476  0.1366  0.3716
   96SAPS   O13 9489   6.698   6.070   6.248 -0.4907  0.1095 -0.0963
   96SAPS   O14 9490   6.533   6.229   6.348 -0.1120  0.1084 -0.5873
   96SAPS   O12 9491   6.495   5.991   6.366  0.4744  0.2855 -0.7055
   96SAPS   O11 9492   6.673   6.101   6.510 -0.0553  0.1199  0.6276
   96SAPS    C1 9493   6.606   6.170   6.612 -0.1377 -0.3311 -0.4358
   96SAPS    HA 9494   6.679   6.185   6.694 -1.3743 -0.1523  0.6451
   96SAPS    HB 9495   6.578   6.271   6.575  2.0290  0.2982 -0.4365
   96SAPS    C2 9496   6.498   6.094   6.677  0.5615  0.4801  0.9107
   96SAPS    HS 9497   6.439   6.063   6.588  1.2168  2.2176 -0.1627
   96SAPS   O21 9498   6.415   6.181   6.753  0.3276  0.1139 -0.4013
   96SAPS   C21 9499   6.299   6.140   6.784 -0.7820 -1.0190  0.2414
   96SAPS   O22 9500   6.252   6.032   6.760  0.0730  0.0898 -0.4880
   96SAPS   C22 9501   6.241   6.242   6.882 -0.2104  0.0735  0.0697
   96SAPS   H2R 9502   6.313   6.267   6.963 -0.6747 -0.9925  0.8313
   96SAPS   H2S 9503   6.221   6.330   6.818 -0.9266 -0.0956  0.0560
   96SAPS    C3 9504   6.558   5.975   6.752 -0.3831 -0.7497  0.2772
   96SAPS    HX 9505   6.615   5.911   6.680 -0.6812  0.7103 -1.3048
   96SAPS    HY 9506   6.474   5.914   6.791  0.6761 -1.2088  1.8882
   96SAPS   O31 9507   6.644   6.026   6.854 -0.0551  0.1109  0.4772
   96SAPS   C31 9508   6.588   6.040   6.973  0.7033  0.1395 -0.5481
   96SAPS   O32 9509   6.473   6.019   7.005 -0.1277 -0.7370 -0.2862
   96SAPS   C32 9510   6.687   6.088   7.075  0.0449  0.6321 -0.2616
   96SAPS   H2X 9511   6.666   6.190   7.113  0.1075  1.1386 -1.5785
   96SAPS   H2Y 9512   6.783   6.109   7.023  0.8345 -2.7788 -0.3591
   96SAPS   C23 9513   6.113   6.195   6.955  0.0181 -0.2248 -0.5276
   96SAPS   H3R 9514   6.143   6.165   7.057  0.2335  1.5603 -0.0528
   96SAPS   H3S 9515   6.070   6.108   6.901  1.0983 -0.5599 -0.8528
   96SAPS   C24 9516   6.007   6.308   6.978  0.6327  0.3513  0.2012
   96SAPS   H4R 9517   5.978   6.354   6.881 -2.1231 -1.6319 -0.0126
   96SAPS   H4S 9518   6.049   6.386   7.043  0.8968  2.7161 -2.6961
   96SAPS   C25 9519   5.888   6.251   7.046  0.4034  0.1862 -0.6686
   96SAPS   H5R 9520   5.799   6.240   6.982 -2.2244  3.3415  2.2572
   96SAPS   C26 9521   5.874   6.215   7.173  0.5165 -0.4657 -0.2182
   96SAPS   H6R 9522   5.772   6.192   7.209  0.8747 -0.6676  0.6867
   96SAPS   C27 9523   5.976   6.217   7.280  0.5106 -0.3112 -0.2873
   96SAPS   H7R 9524   6.079   6.227   7.239  0.2468 -2.5292 -1.5605
   96SAPS   H7S 9525   5.994   6.114   7.315 -0.5294  0.3286  2.2775
   96SAPS   C28 9526   5.942   6.304   7.395  0.1161 -0.4210 -0.1984
   96SAPS   H8R 9527   5.982   6.407   7.394 -0.9954  0.0414  1.2907
   96SAPS   C29 9528   5.861   6.270   7.498  0.3250  0.1841  0.0625
   96SAPS   H9R 9529   5.832   6.345   7.573  2.0347  0.7828  0.1337
   96SAPS  C210 9530   5.792   6.138   7.526 -0.0112  0.7609  0.0283
   96SAPS  H10R 9531   5.839   6.080   7.608 -0.9621 -1.9308 -1.2694
   96SAPS  H10S 9532   5.791   6.070   7.437 -0.9836  0.9873 -0.1424
   96SAPS  C211 9533   5.647   6.156   7.563 -0.4741 -0.7037  0.0379
   96SAPS  H11R 9534   5.580   6.187   7.482 -0.2897  1.3463  0.6462
   96SAPS  C212 9535   5.600   6.136   7.689  0.8928 -0.0271  0.3775
   96SAPS  H12R 9536   5.495   6.165   7.699  0.6509 -0.0445 -1.8617
   96SAPS  C213 9537   5.672   6.108   7.818  0.6219  0.4170 -0.1072
   96SAPS  H13R 9538   5.726   6.197   7.856 -0.1093  0.8056  0.0292
   96SAPS  H13S 9539   5.740   6.023   7.793  0.5154  0.1465  0.5025
   96SAPS  C214 9540   5.572   6.063   7.923 -0.1021  0.0365  0.0952
   96SAPS  H14R 9541   5.465   6.079   7.903  0.2963  1.7946 -0.6878
   96SAPS  C215 9542   5.615   6.038   8.055 -0.7970 -0.5664  0.2447
   96SAPS  H15R 9543   5.541   6.017   8.134 -1.5181  0.0885 -0.2577
   96SAPS  C216 9544   5.750   6.040   8.122  0.5167 -0.0405  0.0289
   96SAPS  H16R 9545   5.818   6.100   8.057 -0.5465 -0.2829 -1.3182
   96SAPS  H16S 9546   5.809   5.946   8.128  1.0447  0.2909  0.1065
   96SAPS  C217 9547   5.766   6.107   8.260  0.9302  0.1077 -0.1636
   96SAPS  H17R 9548   5.875   6.110   8.283  0.8524 -0.6453  0.3281
   96SAPS  H17S 9549   5.713   6.033   8.324 -2.3321  0.6043 -2.1812
   96SAPS  C218 9550   5.710   6.253   8.257  0.2731 -0.3952  0.1180
   96SAPS  H18R 9551   5.600   6.239   8.254  0.1220  0.9936 -1.5035
   96SAPS  H18S 9552   5.757   6.315   8.178  2.4968 -2.2939 -0.1195
   96SAPS  C219 9553   5.730   6.318   8.395  0.1154  0.6010  0.0440
   96SAPS  H19R 9554   5.658   6.404   8.395  1.3378  1.6415 -0.6009
   96SAPS  H19S 9555   5.834   6.352   8.408  0.3169 -0.1613  0.4037
   96SAPS  C220 9556   5.696   6.224   8.513  0.2537 -0.6815 -0.0097
   96SAPS  H20R 9557   5.700   6.294   8.600 -0.8733  0.7496 -1.0820
   96SAPS  H20S 9558   5.766   6.140   8.530  2.9042  2.0321  3.3036
   96SAPS  H20T 9559   5.593   6.186   8.500 -0.3814  0.6836  0.9750
   96SAPS   C33 9560   6.714   5.982   7.184  0.2834  0.3019 -0.1464
   96SAPS   H3X 9561   6.769   5.894   7.144 -0.4815  0.3148 -1.2674
   96SAPS   H3Y 9562   6.616   5.936   7.211  0.6686 -1.7811 -2.1061
   96SAPS   C34 9563   6.787   6.031   7.312 -0.7562 -0.3947  0.2630
   96SAPS   H4X 9564   6.729   6.112   7.360  0.0379  0.9725 -1.0192
   96SAPS   H4Y 9565   6.882   6.074   7.274 -0.9257 -0.5077 -0.3047
   96SAPS   C35 9566   6.812   5.919   7.414 -0.8182  0.5667 -0.6241
   96SAPS   H5X 9567   6.866   5.836   7.363  0.2231  2.7605 -3.2279
   96SAPS   H5Y 9568   6.712   5.879   7.441 -0.5741 -1.1370 -2.1914
   96SAPS   C36 9569   6.895   5.972   7.530 -0.5194  0.2333 -0.2042
   96SAPS   H6X 9570   6.847   6.066   7.564  0.1429 -0.5962  3.3053
   96SAPS   H6Y 9571   6.994   5.998   7.487 -0.5471  1.0746  0.2287
   96SAPS   C37 9572   6.902   5.872   7.651  0.4334 -0.0368 -0.6926
   96SAPS   H7X 9573   6.953   5.781   7.610 -2.0498 -0.1636 -3.6645
   96SAPS   H7Y 9574   6.800   5.846   7.684  0.9302  0.2797  1.1512
   96SAPS   C38 9575   6.967   5.934   7.774 -0.1235 -0.1534 -0.2267
   96SAPS   H8X 9576   6.898   6.011   7.814 -0.5494 -0.0815 -1.0720
   96SAPS   H8Y 9577   7.054   5.994   7.737 -1.4886  1.2013 -1.3200
   96SAPS   C39 9578   7.020   5.835   7.878  0.5687  0.1974 -0.2697
   96SAPS   H9X 9579   7.083   5.760   7.825 -1.7212 -0.6933 -1.7824
   96SAPS   H9Y 9580   6.931   5.779   7.914 -0.6052  2.9733  1.2990
   96SAPS  C310 9581   7.108   5.909   7.981  0.1849 -0.3762 -0.9425
   96SAPS  H10X 9582   7.066   6.007   8.011 -1.6665 -0.2610 -3.7926
   96SAPS  H10Y 9583   7.207   5.928   7.935 -0.0953  1.7759 -0.6830
   96SAPS  C311 9584   7.113   5.844   8.119  0.1600 -0.1867  0.0980
   96SAPS  H11X 9585   7.185   5.907   8.176  0.4024 -0.7506  0.4196
   96SAPS  H11Y 9586   7.138   5.736   8.107 -2.7196 -0.8347 -0.3656
   96SAPS  C312 9587   6.988   5.843   8.199 -0.0301 -0.2103  0.3277
   96SAPS  H12X 9588   6.898   5.812   8.141  1.3444 -0.0644 -1.9142
   96SAPS  H12Y 9589   6.949   5.938   8.241  0.5029  0.6623 -1.1402
   96SAPS  C313 9590   7.001   5.746   8.326  0.0702 -0.2759 -0.1834
   96SAPS  H13X 9591   7.033   5.644   8.296  0.2649 -0.6889  1.3595
   96SAPS  H13Y 9592   6.896   5.736   8.361 -0.0453  1.3713  0.0052
   96SAPS  C314 9593   7.085   5.810   8.434  0.5355 -1.1904 -0.2140
   96SAPS  H14X 9594   7.022   5.892   8.473  2.1098 -0.0782  0.0403
   96SAPS  H14Y 9595   7.176   5.858   8.393  0.5753 -1.1687 -0.0996
   96SAPS  C315 9596   7.136   5.709   8.542  0.4725 -0.2005  0.2099
   96SAPS  H15X 9597   7.190   5.629   8.486 -0.3952  1.2599 -2.8363
   96SAPS  H15Y 9598   7.049   5.659   8.590  0.0558  1.1960  0.9352
   96SAPS  C316 9599   7.222   5.784   8.640  0.2695  0.0174  0.0743
   96SAPS  H16X 9600   7.300   5.837   8.581  1.0112  0.0146  1.0462
   96SAPS  H16Y 9601   7.272   5.716   8.711  0.5495  0.5686  0.4092
   96SAPS  C317 9602   7.138   5.892   8.726 -0.0476  0.3551  0.6558
   96SAPS  H17X 9603   7.051   5.842   8.774 -0.1803 -0.2879 -0.2171
   96SAPS  H17Y 9604   7.098   5.977   8.667  0.0126  0.6658  1.0666
   96SAPS  C318 9605   7.227   5.949   8.836 -0.4582 -0.6991 -0.7165
   96SAPS  H18X 9606   7.304   6.013   8.789  2.0004 -1.8127  1.6698
   96SAPS  H18Y 9607   7.270   5.863   8.892  1.0623  0.4018 -0.1596
   96SAPS  H18Z 9608   7.170   6.019   8.902  2.2745  0.8030  0.1075
   97SAPS     N 9609   0.282   4.458   6.406  0.1842 -0.5971 -0.5942
   97SAPS   HN1 9610   0.382   4.468   6.381  0.2012 -1.7109 -1.0202
   97SAPS   HN2 9611   0.228   4.538   6.445 -1.1876 -0.8769 -1.8498
   97SAPS   HN3 9612   0.276   4.378   6.471 -2.5902 -0.2657 -0.3751
   97SAPS   C12 9613   0.214   4.421   6.279 -0.4002 -0.2069 -0.1902
   97SAPS  H12A 9614   0.107   4.428   6.295 -0.3642 -2.7736  1.5548
   97SAPS   C13 9615   0.251   4.509   6.161 -0.1643 -0.2380 -0.0471
   97SAPS  O13A 9616   0.343   4.600   6.164  0.4934 -0.1162 -0.4876
   97SAPS  O13B 9617   0.185   4.490   6.056  0.1916 -0.7377 -0.3921
   97SAPS   C11 9618   0.256   4.273   6.230 -0.2027  0.7896 -0.7766
   97SAPS  H11A 9619   0.366   4.272   6.217  0.1356  0.3114  1.9212
   97SAPS  H11B 9620   0.212   4.256   6.129 -1.4908  3.8794 -0.7965
   97SAPS     P 9621   0.337   4.108   6.418  0.3512 -0.2377  0.1829
   97SAPS   O13 9622   0.432   4.047   6.321 -0.4867 -0.4258 -0.2294
   97SAPS   O14 9623   0.394   4.210   6.507 -0.2139  0.0096 -0.0275
   97SAPS   O12 9624   0.217   4.169   6.323  0.5520  0.1490  0.0605
   97SAPS   O11 9625   0.251   3.994   6.494  0.5467 -0.4798  0.1287
   97SAPS    C1 9626   0.139   4.028   6.584 -0.1450 -0.6595  0.0548
   97SAPS    HA 9627   0.081   4.117   6.552 -1.6049 -1.6017  0.0009
   97SAPS    HB 9628   0.069   3.942   6.583 -0.2426 -0.5889 -2.3737
   97SAPS    C2 9629   0.188   4.048   6.730  0.5100  0.4018 -0.1454
   97SAPS    HS 9630   0.243   4.145   6.733 -0.5701  1.0086  0.9329
   97SAPS   O21 9631   0.278   3.935   6.762  0.6172 -0.5534 -0.0148
   97SAPS   C21 9632   0.355   3.968   6.867  0.8250  0.3607  0.7574
   97SAPS   O22 9633   0.349   4.072   6.934 -0.0909 -0.3347 -0.2708
   97SAPS   C22 9634   0.460   3.856   6.893 -0.7464  0.3030 -0.5208
   97SAPS   H2R 9635   0.405   3.772   6.941  1.0158 -0.7679 -0.2955
   97SAPS   H2S 9636   0.513   3.826   6.800 -1.2061 -0.3852 -0.5670
   97SAPS    C3 9637   0.066   4.050   6.825 -0.0632  0.1378 -0.1719
   97SAPS    HX 9638  -0.000   4.124   6.774 -0.8766  0.4734  1.3567
   97SAPS    HY 9639   0.106   4.094   6.918  0.8077  0.1903 -0.5685
   97SAPS   O31 9640   0.004   3.919   6.857 -0.9019  0.5675 -0.1433
   97SAPS   C31 9641   0.034   3.872   6.981  0.3845 -0.1309 -0.6821
   97SAPS   O32 9642   0.087   3.937   7.070 -0.2372  0.4797 -0.4317
   97SAPS   C32 9643  -0.008   3.723   6.993 -0.0052 -0.0439  0.0998
   97SAPS   H2X 9644   0.039   3.652   6.921 -2.3185 -1.4227 -0.0839
   97SAPS   H2Y 9645  -0.119   3.717   6.986 -0.1565 -1.0291  2.7619
   97SAPS   C23 9646   0.575   3.902   6.991 -0.3722 -0.2697 -0.0254
   97SAPS   H3R 9647   0.598   4.011   6.985  0.8872 -0.6022 -1.5755
   97SAPS   H3S 9648   0.672   3.856   6.962 -1.7220 -3.2393  0.0588
   97SAPS   C24 9649   0.546   3.862   7.135 -0.0444 -0.6260  0.0701
   97SAPS   H4R 9650   0.446   3.899   7.167 -0.2507  0.7184 -1.9937
   97SAPS   H4S 9651   0.617   3.910   7.205 -0.6266 -0.1107  0.3114
   97SAPS   C25 9652   0.545   3.717   7.162  0.3187  0.5618 -0.9631
   97SAPS   H5R 9653   0.599   3.658   7.087  3.3933  2.0504 -0.0332
   97SAPS   C26 9654   0.487   3.655   7.267 -0.2403  0.1445  0.2990
   97SAPS   H6R 9655   0.496   3.545   7.273  0.6100  0.1631 -0.5316
   97SAPS   C27 9656   0.410   3.720   7.382  0.3513 -0.1883  0.4152
   97SAPS   H7R 9657   0.310   3.760   7.354 -0.5363 -2.0948  0.8221
   97SAPS   H7S 9658   0.462   3.812   7.417 -2.6203  1.4662  0.6833
   97SAPS   C28 9659   0.394   3.624   7.497  0.1458  0.7804  0.1108
   97SAPS   H8R 9660   0.288   3.595   7.507  0.6714 -1.1884  0.1854
   97SAPS   C29 9661   0.474   3.583   7.600  0.1836  0.2964 -0.2760
   97SAPS   H9R 9662   0.429   3.517   7.675  1.1331 -0.9584 -0.7947
   97SAPS  C210 9663   0.619   3.622   7.628 -0.0668 -0.8916 -0.2860
   97SAPS  H10R 9664   0.669   3.606   7.530  0.2576 -1.0588 -0.0966
   97SAPS  H10S 9665   0.677   3.550   7.690 -0.5055 -0.1279  1.0325
   97SAPS  C211 9666   0.635   3.767   7.677  0.0870  0.4553 -0.0268
   97SAPS  H11R 9667   0.616   3.849   7.607 -2.3210  0.2044  0.2937
   97SAPS  C212 9668   0.663   3.802   7.806  0.7484  0.2267  0.0800
   97SAPS  H12R 9669   0.674   3.911   7.818 -0.1127  0.4834 -1.4028
   97SAPS  C213 9670   0.684   3.713   7.932 -0.5786 -0.2516 -0.2870
   97SAPS  H13R 9671   0.766   3.641   7.910  1.3504  2.5000 -2.4690
   97SAPS  H13S 9672   0.584   3.670   7.953 -1.1946  1.6477  0.7764
   97SAPS  C214 9673   0.715   3.779   8.062 -0.4083 -0.2604  0.7117
   97SAPS  H14R 9674   0.683   3.883   8.075 -2.2605 -0.3634 -2.4588
   97SAPS  C215 9675   0.773   3.716   8.170  0.2743  0.2448  0.1119
   97SAPS  H15R 9676   0.790   3.775   8.262  0.1037 -0.7479  0.7928
   97SAPS  C216 9677   0.816   3.575   8.184  0.3930 -0.8634 -0.1995
   97SAPS  H16R 9678   0.927   3.564   8.183  0.5387  0.2280  1.3970
   97SAPS  H16S 9679   0.784   3.532   8.087  0.6723 -0.3935 -0.5028
   97SAPS  C217 9680   0.764   3.495   8.309 -0.3287  0.6447 -0.7059
   97SAPS  H17R 9681   0.808   3.543   8.398 -1.7246  0.2787  0.2000
   97SAPS  H17S 9682   0.809   3.394   8.301 -1.1023  0.2381 -0.0018
   97SAPS  C218 9683   0.610   3.497   8.321 -0.4202 -0.3772 -1.1544
   97SAPS  H18R 9684   0.568   3.508   8.219 -1.8487 -2.7074 -0.8616
   97SAPS  H18S 9685   0.570   3.582   8.380  0.0430 -0.8356 -0.1678
   97SAPS  C219 9686   0.549   3.376   8.386  0.8904 -0.4781 -0.4184
   97SAPS  H19R 9687   0.622   3.342   8.463  0.7016 -2.3838 -1.0599
   97SAPS  H19S 9688   0.540   3.298   8.308 -0.2888 -0.4308 -0.3347
   97SAPS  C220 9689   0.409   3.391   8.460 -0.3371  0.4555 -0.4307
   97SAPS  H20R 9690   0.419   3.443   8.557 -2.3361 -1.1490  0.6667
   97SAPS  H20S 9691   0.362   3.291   8.470 -0.7475  0.7246  0.3886
   97SAPS  H20T 9692   0.348   3.461   8.398 -0.6530  0.0444 -0.5836
   97SAPS   C33 9693   0.028   3.663   7.132  0.0519  0.1514 -0.3608
   97SAPS   H3X 9694   0.132   3.690   7.160 -0.3027 -1.5868  2.8840
   97SAPS   H3Y 9695   0.023   3.553   7.114 -2.1188 -0.1866  2.1182
   97SAPS   C34 9696  -0.084   3.684   7.233 -0.2671 -0.7986 -0.5188
   97SAPS   H4X 9697  -0.179   3.668   7.179 -1.2140  1.9337  0.2481
   97SAPS   H4Y 9698  -0.084   3.790   7.267  0.1034 -1.0747  0.3563
   97SAPS   C35 9699  -0.067   3.593   7.352  0.4845  0.2803  0.3681
   97SAPS   H5X 9700   0.014   3.519   7.333 -2.3192 -2.6533 -0.6134
   97SAPS   H5Y 9701  -0.163   3.546   7.379 -0.6137  2.3899  0.2217
   97SAPS   C36 9702  -0.016   3.675   7.469 -1.0294  0.1774 -0.8568
   97SAPS   H6X 9703  -0.098   3.740   7.506  1.0742  2.2828  0.2652
   97SAPS   H6Y 9704   0.070   3.738   7.437  1.2398 -2.5211 -0.3126
   97SAPS   C37 9705   0.020   3.600   7.603  0.1923  0.1107  0.5124
   97SAPS   H7X 9706   0.090   3.518   7.575 -0.9722 -0.6660 -0.1714
   97SAPS   H7Y 9707  -0.071   3.565   7.656 -0.5902 -1.2717 -1.7111
   97SAPS   C38 9708   0.094   3.688   7.708 -0.5402 -0.1123  0.8029
   97SAPS   H8X 9709   0.027   3.772   7.736  0.4405  0.7969  0.4839
   97SAPS   H8Y 9710   0.185   3.728   7.658  0.2645 -2.0263  0.6764
   97SAPS   C39 9711   0.137   3.606   7.828  0.0290  0.2772 -0.2460
   97SAPS   H9X 9712   0.191   3.514   7.796  0.2752  0.3033  0.0861
   97SAPS   H9Y 9713   0.037   3.580   7.868  0.7070  0.4088  1.5857
   97SAPS  C310 9714   0.216   3.677   7.927 -0.2881  0.6909  0.1962
   97SAPS  H10X 9715   0.317   3.707   7.894 -0.3645 -0.9528 -1.6283
   97SAPS  H10Y 9716   0.225   3.600   8.007 -2.2240  0.4778  0.2370
   97SAPS  C311 9717   0.163   3.800   7.990 -0.5484  0.3148 -0.3500
   97SAPS  H11X 9718   0.061   3.792   8.032 -0.9622  1.4977 -1.1268
   97SAPS  H11Y 9719   0.177   3.878   7.912  3.0887  0.3896  0.2856
   97SAPS  C312 9720   0.254   3.840   8.110  0.5259 -0.2317  0.7208
   97SAPS  H12X 9721   0.235   3.944   8.145  0.0593 -1.3372  3.9917
   97SAPS  H12Y 9722   0.353   3.841   8.060  0.5509  1.1557  0.7831
   97SAPS  C313 9723   0.238   3.753   8.237 -0.9417  0.8134  0.5623
   97SAPS  H13X 9724   0.339   3.730   8.278 -0.2456  2.6807 -0.0605
   97SAPS  H13Y 9725   0.200   3.653   8.205  0.8060  0.0605  0.7462
   97SAPS  C314 9726   0.151   3.804   8.354  0.1898 -1.1858 -0.9077
   97SAPS  H14X 9727   0.056   3.847   8.316  0.2618  0.8485  1.1213
   97SAPS  H14Y 9728   0.211   3.887   8.398  0.8124 -0.7069 -2.6106
   97SAPS  C315 9729   0.124   3.692   8.457 -0.1934 -0.6567  0.2847
   97SAPS  H15X 9730   0.203   3.658   8.528 -2.2005 -0.0702  2.8734
   97SAPS  H15Y 9731   0.088   3.606   8.397 -1.3924  0.4994 -0.6560
   97SAPS  C316 9732   0.009   3.736   8.557  0.5303 -0.0882 -0.8552
   97SAPS  H16X 9733  -0.031   3.645   8.607  1.4139 -1.3114 -2.3339
   97SAPS  H16Y 9734  -0.070   3.785   8.496  0.2055  0.0334 -0.3376
   97SAPS  C317 9735   0.048   3.835   8.671  0.0963 -0.5300  0.1747
   97SAPS  H17X 9736   0.055   3.930   8.615 -0.6330 -1.3455 -1.3398
   97SAPS  H17Y 9737   0.148   3.806   8.710  0.2838  0.8655  0.7611
   97SAPS  C318 9738  -0.053   3.847   8.784 -0.1012  0.0939 -0.3970
   97SAPS  H18X 9739  -0.016   3.918   8.861  1.5704 -1.4313  0.2229
   97SAPS  H18Y 9740  -0.053   3.744   8.824  0.8309  0.7652  1.3698
   97SAPS  H18Z 9741  -0.159   3.870   8.757 -1.1622 -1.2352  2.4629
   98SAPS     N 9742   5.234   4.086   6.151 -0.0990  0.0168 -0.0260
   98SAPS   HN1 9743   5.225   4.181   6.193  1.2444  0.0525  0.2238
   98SAPS   HN2 9744   5.196   4.018   6.220 -0.2347  0.4387  0.3156
   98SAPS   HN3 9745   5.333   4.062   6.131 -0.3803  2.5430 -4.8910
   98SAPS   C12 9746   5.148   4.081   6.033 -0.0100 -0.2259 -0.4828
   98SAPS  H12A 9747   5.171   4.172   5.979  1.2155 -1.4979 -2.1595
   98SAPS   C13 9748   5.169   3.958   5.946  0.0785  0.2010  0.2530
   98SAPS  O13A 9749   5.238   3.861   5.988  0.3946  0.5927 -0.3835
   98SAPS  O13B 9750   5.089   3.950   5.846 -0.2983  0.0606 -0.2450
   98SAPS   C11 9751   5.005   4.090   6.075 -0.3394 -0.4757 -0.4886
   98SAPS  H11A 9752   4.970   3.990   6.110  0.4719 -0.3157  0.8098
   98SAPS  H11B 9753   4.948   4.118   5.983  2.4804  1.1217 -1.8199
   98SAPS     P 9754   4.954   4.337   6.179 -0.1197 -0.1427  0.0161
   98SAPS   O13 9755   5.072   4.399   6.118 -0.5513 -0.5491  0.4005
   98SAPS   O14 9756   4.823   4.353   6.115  0.3643 -0.1329  0.0944
   98SAPS   O12 9757   4.985   4.181   6.188  0.2341 -0.1924  0.3248
   98SAPS   O11 9758   4.951   4.381   6.330 -0.4660 -0.3555 -0.0333
   98SAPS    C1 9759   5.022   4.332   6.443 -0.0283  0.4567  0.4050
   98SAPS    HA 9760   5.116   4.281   6.413 -0.3205  1.9221 -3.3394
   98SAPS    HB 9761   5.054   4.418   6.505  0.7691  0.4864 -0.0481
   98SAPS    C2 9762   4.941   4.231   6.529  0.5606  0.8228 -0.1829
   98SAPS    HS 9763   4.912   4.149   6.460 -1.9203  1.9503 -0.5241
   98SAPS   O21 9764   4.819   4.304   6.573 -0.2385  0.7674 -0.2564
   98SAPS   C21 9765   4.731   4.232   6.637 -0.0308 -0.1595  0.3784
   98SAPS   O22 9766   4.750   4.117   6.673 -0.3898 -0.5701 -0.1056
   98SAPS   C22 9767   4.608   4.327   6.663  0.5992 -0.0607 -0.6253
   98SAPS   H2R 9768   4.636   4.431   6.691 -0.2164  0.5139 -1.9227
   98SAPS   H2S 9769   4.557   4.332   6.565  0.8869 -0.1764 -0.7838
   98SAPS    C3 9770   5.022   4.161   6.640  0.7757  0.5733  0.1639
   98SAPS    HX 9771   5.118   4.123   6.599  0.4703  1.3843 -1.3037
   98SAPS    HY 9772   4.977   4.063   6.669  0.6193  0.7856  0.6420
   98SAPS   O31 9773   5.066   4.236   6.755  0.1191 -0.3858 -0.2083
   98SAPS   C31 9774   5.176   4.298   6.751 -0.4918 -0.1698 -1.5921
   98SAPS   O32 9775   5.259   4.311   6.666 -0.1053 -0.5384  0.1227
   98SAPS   C32 9776   5.173   4.377   6.884 -0.6097  0.1382 -0.1735
   98SAPS   H2X 9777   5.177   4.309   6.971  3.2739  0.4738 -0.0294
   98SAPS   H2Y 9778   5.074   4.428   6.887  1.1448  3.8290 -1.6540
   98SAPS   C23 9779   4.523   4.272   6.778  0.8907 -1.1662  0.5112
   98SAPS   H3R 9780   4.567   4.288   6.879  1.5225  4.1028 -0.4193
   98SAPS   H3S 9781   4.513   4.164   6.757  1.0135 -0.7662 -1.6417
   98SAPS   C24 9782   4.377   4.332   6.778 -0.2791 -0.3881 -0.3943
   98SAPS   H4R 9783   4.305   4.292   6.853  1.1713  0.5508  1.5385
   98SAPS   H4S 9784   4.340   4.312   6.675 -2.4035 -3.7776  0.9272
   98SAPS   C25 9785   4.386   4.483   6.791  0.0938 -0.2435  0.0940
   98SAPS   H5R 9786   4.382   4.531   6.692 -0.7934  1.2449  0.8364
   98SAPS   C26 9787   4.371   4.558   6.902  0.0025 -0.3614 -0.0095
   98SAPS   H6R 9788   4.392   4.666   6.895  0.8189 -0.4498  0.9473
   98SAPS   C27 9789   4.355   4.513   7.045 -0.1605  0.2094  0.8065
   98SAPS   H7R 9790   4.287   4.425   7.053 -1.2903  1.0991  0.9893
   98SAPS   H7S 9791   4.303   4.588   7.109 -0.6349  0.9463 -0.4371
   98SAPS   C28 9792   4.490   4.481   7.099 -0.6414  0.2644  0.1972
   98SAPS   H8R 9793   4.568   4.557   7.079  1.3367 -1.5858  0.7115
   98SAPS   C29 9794   4.517   4.371   7.171  0.6841 -0.1921  0.4034
   98SAPS   H9R 9795   4.623   4.349   7.190  0.5816 -3.0578 -1.8132
   98SAPS  C210 9796   4.422   4.260   7.202  0.0070  0.4192 -0.6971
   98SAPS  H10R 9797   4.318   4.287   7.172  0.0380  0.3647 -0.8519
   98SAPS  H10S 9798   4.417   4.256   7.313  0.3964  1.7021 -0.6199
   98SAPS  C211 9799   4.453   4.121   7.147  0.1621  0.7569 -0.0754
   98SAPS  H11R 9800   4.437   4.117   7.039 -2.0786 -0.3467  0.2671
   98SAPS  C212 9801   4.509   4.014   7.203  0.0307  0.4932 -0.8998
   98SAPS  H12R 9802   4.537   3.928   7.140 -0.9125  0.0967 -0.7951
   98SAPS  C213 9803   4.535   4.006   7.352  0.3208 -0.4020 -0.6284
   98SAPS  H13R 9804   4.460   4.059   7.413  0.8888  0.7341 -0.9059
   98SAPS  H13S 9805   4.637   4.042   7.379  1.1195 -0.8935 -2.8563
   98SAPS  C214 9806   4.550   3.856   7.397  0.8868  0.0362 -0.5074
   98SAPS  H14R 9807   4.587   3.780   7.327 -1.0986  0.0925 -1.6429
   98SAPS  C215 9808   4.518   3.812   7.528  0.4627 -0.2647 -0.2850
   98SAPS  H15R 9809   4.534   3.703   7.538 -1.5890 -0.2785  4.1452
   98SAPS  C216 9810   4.465   3.893   7.650  0.4986 -0.0625 -0.3200
   98SAPS  H16R 9811   4.355   3.903   7.650  0.2960 -2.1259  0.5461
   98SAPS  H16S 9812   4.506   3.996   7.644  0.0195  0.0414 -1.9851
   98SAPS  C217 9813   4.506   3.834   7.789 -0.2916  0.3529 -0.1308
   98SAPS  H17R 9814   4.496   3.723   7.787  3.0596  0.0194 -0.6012
   98SAPS  H17S 9815   4.433   3.869   7.866 -0.4514 -1.6646  0.6901
   98SAPS  C218 9816   4.648   3.873   7.835 -0.0661 -0.8786 -0.4787
   98SAPS  H18R 9817   4.722   3.830   7.764  1.2044  0.0315  0.2716
   98SAPS  H18S 9818   4.673   3.826   7.933  0.2112 -3.6876 -1.8244
   98SAPS  C219 9819   4.681   4.025   7.857  1.1554  0.3097  0.1148
   98SAPS  H19R 9820   4.585   4.075   7.882 -0.7282 -2.7226 -0.6882
   98SAPS  H19S 9821   4.721   4.076   7.766  0.1229  0.1862 -0.4176
   98SAPS  C220 9822   4.786   4.041   7.968 -0.2248  0.1082  0.7762
   98SAPS  H20R 9823   4.733   4.019   8.063 -3.5433  3.3472 -0.2045
   98SAPS  H20S 9824   4.823   4.146   7.969 -0.7763  0.3147  0.1005
   98SAPS  H20T 9825   4.866   3.965   7.953 -0.0329  0.6484 -1.1861
   98SAPS   C33 9826   5.284   4.488   6.888  0.2684  0.0957 -0.4912
   98SAPS   H3X 9827   5.249   4.562   6.813  1.6230  0.8082 -0.4395
   98SAPS   H3Y 9828   5.377   4.436   6.856 -1.2837 -1.7685 -2.1058
   98SAPS   C34 9829   5.285   4.563   7.022  0.4338 -0.6253  0.0960
   98SAPS   H4X 9830   5.190   4.620   7.026  1.1434  0.4728  2.3356
   98SAPS   H4Y 9831   5.377   4.623   7.043  0.0996 -0.3432  0.7621
   98SAPS   C35 9832   5.273   4.473   7.150 -0.0127  0.4806 -0.2530
   98SAPS   H5X 9833   5.362   4.407   7.155  0.6942  1.2681 -2.2330
   98SAPS   H5Y 9834   5.180   4.413   7.138  2.0522 -2.9392  0.2547
   98SAPS   C36 9835   5.276   4.569   7.275  0.0961 -0.1918 -0.2300
   98SAPS   H6X 9836   5.188   4.631   7.248  1.2770  0.9391 -1.5719
   98SAPS   H6Y 9837   5.373   4.623   7.267 -0.3839  0.2902 -3.0891
   98SAPS   C37 9838   5.270   4.491   7.407  0.0603 -0.2608  0.0506
   98SAPS   H7X 9839   5.351   4.415   7.411 -0.2807 -0.6017  0.6502
   98SAPS   H7Y 9840   5.172   4.439   7.413 -0.7804  1.1774 -0.9757
   98SAPS   C38 9841   5.280   4.579   7.533 -0.0431 -0.0624  0.7677
   98SAPS   H8X 9842   5.177   4.621   7.536 -0.2583 -0.6023  1.0244
   98SAPS   H8Y 9843   5.351   4.664   7.528 -0.5101  0.3447  0.9947
   98SAPS   C39 9844   5.311   4.505   7.661 -0.4577 -0.2166  0.2429
   98SAPS   H9X 9845   5.275   4.400   7.652  2.1193 -1.0793 -0.2717
   98SAPS   H9Y 9846   5.254   4.551   7.744  1.9316 -0.0905  1.8488
   98SAPS  C310 9847   5.454   4.502   7.704  0.2771 -0.0860 -0.5123
   98SAPS  H10X 9848   5.494   4.604   7.720  2.4478 -0.6465 -2.0573
   98SAPS  H10Y 9849   5.511   4.457   7.619  0.9692  1.5882 -0.9517
   98SAPS  C311 9850   5.475   4.406   7.821 -0.0218 -0.1326 -0.4334
   98SAPS  H11X 9851   5.428   4.310   7.790  0.4763 -0.2402 -0.8714
   98SAPS  H11Y 9852   5.425   4.447   7.911 -2.3932  0.3272 -1.9303
   98SAPS  C312 9853   5.627   4.402   7.848  0.8860 -0.9346 -0.4901
   98SAPS  H12X 9854   5.664   4.506   7.839  2.9258 -1.8139 -2.6143
   98SAPS  H12Y 9855   5.673   4.340   7.769  1.5233 -1.2533  0.1293
   98SAPS  C313 9856   5.670   4.348   7.985  0.1817 -0.3717 -0.1463
   98SAPS  H13X 9857   5.775   4.312   7.981  0.9817  1.6970  1.0566
   98SAPS  H13Y 9858   5.605   4.262   8.009  1.4597 -0.8104  1.8626
   98SAPS  C314 9859   5.662   4.445   8.099 -0.4421 -0.3312 -0.4611
   98SAPS  H14X 9860   5.554   4.461   8.118 -0.1070  2.0476 -0.3611
   98SAPS  H14Y 9861   5.709   4.541   8.067 -0.6907 -0.0148  0.1302
   98SAPS  C315 9862   5.724   4.391   8.230 -1.0407  0.0847  0.6306
   98SAPS  H15X 9863   5.829   4.382   8.196 -1.7989 -0.8599 -1.5607
   98SAPS  H15Y 9864   5.685   4.291   8.260  0.6475  0.0081  2.6505
   98SAPS  C316 9865   5.727   4.495   8.346  0.0014  0.3705  0.5089
   98SAPS  H16X 9866   5.626   4.505   8.392 -0.0641 -0.2961  0.5151
   98SAPS  H16Y 9867   5.749   4.596   8.305 -1.2692 -0.1720 -1.6434
   98SAPS  C317 9868   5.819   4.470   8.465  0.6545  0.7572 -0.2134
   98SAPS  H17X 9869   5.921   4.448   8.427 -0.5178 -0.4093 -2.8542
   98SAPS  H17Y 9870   5.778   4.385   8.523 -0.6934 -0.6509 -3.0899
   98SAPS  C318 9871   5.837   4.594   8.559 -0.2947  0.3718  0.6341
   98SAPS  H18X 9872   5.899   4.559   8.643  1.5196 -1.2121 -1.3060
   98SAPS  H18Y 9873   5.738   4.635   8.590 -1.2013  0.6018 -2.3757
   98SAPS  H18Z 9874   5.899   4.671   8.508 -0.1131 -1.6429 -2.3523
   99SAPS     N 9875   4.984   1.698   6.331  0.7265  0.6253 -0.2201
   99SAPS   HN1 9876   5.066   1.724   6.390  1.3975 -1.0065 -0.4213
   99SAPS   HN2 9877   4.904   1.745   6.380  0.5960  0.1601  0.0187
   99SAPS   HN3 9878   4.976   1.595   6.340 -0.4363  0.8477  1.6039
   99SAPS   C12 9879   5.012   1.740   6.193 -0.1894 -0.1865 -0.0118
   99SAPS  H12A 9880   5.093   1.678   6.160  2.2263  2.5527  0.5228
   99SAPS   C13 9881   4.895   1.722   6.089  0.4465  0.0301  0.7132
   99SAPS  O13A 9882   4.783   1.672   6.123  0.2409  0.1444  0.1617
   99SAPS  O13B 9883   4.918   1.768   5.977  0.8121  0.0838  0.5046
   99SAPS   C11 9884   5.051   1.890   6.191 -0.3275 -0.1975  0.3587
   99SAPS  H11A 9885   5.084   1.907   6.086  1.9525 -3.2298  0.5080
   99SAPS  H11B 9886   5.141   1.898   6.256 -1.4520 -0.0161  1.9079
   99SAPS     P 9887   4.968   2.134   6.228  0.1161 -0.5659  0.3289
   99SAPS   O13 9888   5.102   2.179   6.266  0.0232  0.1417  0.0268
   99SAPS   O14 9889   4.928   2.172   6.091 -0.2924 -0.2416 -0.1890
   99SAPS   O12 9890   4.946   1.974   6.249 -0.0441  0.4160  0.4487
   99SAPS   O11 9891   4.863   2.197   6.333 -0.3345 -0.5687 -0.0109
   99SAPS    C1 9892   4.821   2.121   6.446  0.3079 -0.7334  0.3193
   99SAPS    HA 9893   4.721   2.163   6.470  0.4109 -0.0134 -0.4744
   99SAPS    HB 9894   4.793   2.017   6.418 -3.7372  0.0616  1.1526
   99SAPS    C2 9895   4.907   2.123   6.575  0.5217 -0.2456 -0.2280
   99SAPS    HS 9896   5.006   2.081   6.549  1.0992 -0.4064  2.1627
   99SAPS   O21 9897   4.851   2.045   6.679  0.0979  0.5569 -0.7261
   99SAPS   C21 9898   4.866   1.913   6.661  0.0460  0.6813  0.2783
   99SAPS   O22 9899   4.912   1.859   6.561 -0.2954 -0.2285  0.0945
   99SAPS   C22 9900   4.803   1.833   6.777  0.3183 -0.3316 -0.2697
   99SAPS   H2R 9901   4.850   1.866   6.872  2.3409 -2.2517 -0.5736
   99SAPS   H2S 9902   4.695   1.858   6.771  0.6706  1.4162  0.6164
   99SAPS    C3 9903   4.931   2.267   6.632  0.0418 -0.3077 -0.1335
   99SAPS    HX 9904   4.843   2.305   6.688  0.4984 -1.0081  1.0858
   99SAPS    HY 9905   4.949   2.327   6.540  0.8363 -1.2462 -0.6054
   99SAPS   O31 9906   5.058   2.272   6.709  0.3294 -0.5825  0.2911
   99SAPS   C31 9907   5.042   2.247   6.843 -0.0062  0.9821  0.3115
   99SAPS   O32 9908   4.941   2.229   6.900  0.2788 -0.0593  0.2818
   99SAPS   C32 9909   5.176   2.248   6.921 -0.7077  0.3822  0.9243
   99SAPS   H2X 9910   5.152   2.289   7.021 -3.6058 -1.3305  1.0024
   99SAPS   H2Y 9911   5.242   2.322   6.871  0.9875 -0.3853  2.0204
   99SAPS   C23 9912   4.796   1.680   6.749 -0.2527  0.4966  0.2580
   99SAPS   H3R 9913   4.900   1.644   6.733  0.2038  2.5698 -1.6900
   99SAPS   H3S 9914   4.739   1.668   6.654  0.7884  0.8835 -0.4371
   99SAPS   C24 9915   4.723   1.594   6.856 -0.3001 -0.5462  0.1303
   99SAPS   H4R 9916   4.791   1.585   6.943  0.8696  0.4972 -0.6673
   99SAPS   H4S 9917   4.709   1.492   6.815 -0.0735 -0.7242  0.4872
   99SAPS   C25 9918   4.596   1.660   6.899  0.1749 -0.3927  0.5018
   99SAPS   H5R 9919   4.512   1.660   6.828 -0.2705 -0.1487  1.0263
   99SAPS   C26 9920   4.573   1.706   7.022  0.1757  0.6089 -0.2379
   99SAPS   H6R 9921   4.477   1.759   7.038  0.6719  1.7869 -1.0611
   99SAPS   C27 9922   4.661   1.709   7.142  0.4352 -0.2574 -0.0840
   99SAPS   H7R 9923   4.765   1.693   7.107 -0.5119 -3.1431 -1.7522
   99SAPS   H7S 9924   4.633   1.623   7.206 -1.6859 -0.3709 -1.0997
   99SAPS   C28 9925   4.638   1.837   7.228  0.5182  0.3604  0.3952
   99SAPS   H8R 9926   4.531   1.852   7.248  0.2451 -1.4556  0.3146
   99SAPS   C29 9927   4.731   1.924   7.272 -0.6291  0.2404 -0.2363
   99SAPS   H9R 9928   4.694   2.015   7.322  2.1837  0.0396  2.3341
   99SAPS  C210 9929   4.883   1.919   7.245  0.0206 -0.2492 -0.3036
   99SAPS  H10R 9930   4.905   1.827   7.188  0.6328 -1.3738  1.6874
   99SAPS  H10S 9931   4.937   1.897   7.340  0.5701 -1.2622 -0.8492
   99SAPS  C211 9932   4.931   2.039   7.169 -0.4721  0.1115 -0.4656
   99SAPS  H11R 9933   4.946   2.020   7.062 -0.7557 -0.3097 -0.4301
   99SAPS  C212 9934   4.943   2.162   7.229  0.5951  0.4588  0.4852
   99SAPS  H12R 9935   4.966   2.246   7.161  1.1932  0.6403  0.9168
   99SAPS  C213 9936   4.927   2.198   7.371  0.3275  0.2079 -0.0114
   99SAPS  H13R 9937   4.853   2.129   7.417  1.1466  0.0379  1.0875
   99SAPS  H13S 9938   4.880   2.299   7.371  1.5967  0.8037  0.0932
   99SAPS  C214 9939   5.055   2.177   7.441 -0.5245  0.3176 -0.0073
   99SAPS  H14R 9940   5.126   2.110   7.390 -0.2745  0.6016 -0.0356
   99SAPS  C215 9941   5.108   2.242   7.541 -0.4645  0.6780  0.6032
   99SAPS  H15R 9942   5.210   2.221   7.579  0.2673  1.1440 -1.0718
   99SAPS  C216 9943   5.040   2.365   7.602  0.3297 -0.5199  0.6343
   99SAPS  H16R 9944   4.934   2.373   7.571  0.2143 -0.1678  1.1280
   99SAPS  H16S 9945   5.087   2.452   7.552  0.2240  0.5558  2.3911
   99SAPS  C217 9946   5.051   2.400   7.745 -0.0974  0.0447  0.3401
   99SAPS  H17R 9947   5.156   2.432   7.758 -0.5397  1.1487  1.2825
   99SAPS  H17S 9948   5.034   2.324   7.825 -0.6888  0.3504  0.5071
   99SAPS  C218 9949   4.969   2.519   7.783  0.7310 -0.2929  0.1192
   99SAPS  H18R 9950   4.983   2.526   7.893 -2.6686  0.4704  0.5612
   99SAPS  H18S 9951   4.862   2.494   7.769  0.0922  2.4151 -0.2671
   99SAPS  C219 9952   5.015   2.652   7.728 -0.6653 -0.5915  0.0833
   99SAPS  H19R 9953   4.961   2.735   7.777 -2.7590 -1.1110 -1.2732
   99SAPS  H19S 9954   4.991   2.669   7.621  0.7180  1.1288  0.0309
   99SAPS  C220 9955   5.162   2.691   7.754  0.1855  0.4119 -0.4784
   99SAPS  H20R 9956   5.180   2.688   7.863  0.7478  1.9781 -0.5063
   99SAPS  H20S 9957   5.184   2.790   7.708 -0.0199  0.3372 -0.7367
   99SAPS  H20T 9958   5.221   2.611   7.704  1.5968 -0.1747  2.0300
   99SAPS   C33 9959   5.236   2.105   6.925  0.1471 -0.1720 -0.5420
   99SAPS   H3X 9960   5.256   2.092   6.817 -3.0088  0.8526 -1.2812
   99SAPS   H3Y 9961   5.169   2.025   6.961  1.4501 -0.7565  0.6626
   99SAPS   C34 9962   5.369   2.097   7.011 -0.3799 -0.1528 -0.0241
   99SAPS   H4X 9963   5.441   2.156   6.951  1.3208 -1.7838  0.3731
   99SAPS   H4Y 9964   5.407   1.995   7.031 -0.6264  0.2598  2.7183
   99SAPS   C35 9965   5.342   2.152   7.152 -0.2651 -0.2063 -0.5231
   99SAPS   H5X 9966   5.259   2.095   7.197  0.1075 -0.2961  0.0551
   99SAPS   H5Y 9967   5.321   2.261   7.158  0.6188 -0.0925  0.6421
   99SAPS   C36 9968   5.458   2.143   7.247  0.3812  0.0758 -0.2821
   99SAPS   H6X 9969   5.538   2.211   7.211  1.2453 -0.7788 -0.0255
   99SAPS   H6Y 9970   5.491   2.037   7.259 -1.7519 -0.4190  1.7134
   99SAPS   C37 9971   5.433   2.199   7.389 -0.1713 -0.2042 -0.0229
   99SAPS   H7X 9972   5.382   2.122   7.451  3.2760 -2.1553  0.5310
   99SAPS   H7Y 9973   5.386   2.300   7.387  0.0733 -0.0996 -0.7780
   99SAPS   C38 9974   5.574   2.218   7.455 -0.1952 -0.2167 -0.0718
   99SAPS   H8X 9975   5.614   2.316   7.423  3.0720 -2.0400 -1.9308
   99SAPS   H8Y 9976   5.640   2.138   7.413  0.4037  0.5718 -0.6507
   99SAPS   C39 9977   5.578   2.211   7.610 -0.3362 -0.4455  0.5087
   99SAPS   H9X 9978   5.684   2.198   7.643 -0.2680 -0.9986  0.0617
   99SAPS   H9Y 9979   5.529   2.120   7.650  0.4066 -1.3992 -0.7357
   99SAPS  C310 9980   5.520   2.337   7.680  0.3674  0.4528  0.7857
   99SAPS  H10X 9981   5.411   2.331   7.659  0.5201 -0.6104  0.3027
   99SAPS  H10Y 9982   5.578   2.426   7.647  1.0703 -0.8504 -1.5760
   99SAPS  C311 9983   5.539   2.335   7.828  0.9489 -0.1804  0.4165
   99SAPS  H11X 9984   5.645   2.315   7.854  1.1513 -0.8050 -0.8466
   99SAPS  H11Y 9985   5.484   2.244   7.860  0.9653  0.1506  1.3872
   99SAPS  C312 9986   5.475   2.458   7.883 -0.1954 -0.3081 -0.6546
   99SAPS  H12X 9987   5.390   2.484   7.817 -1.8031  0.3259  1.6075
   99SAPS  H12Y 9988   5.551   2.538   7.867  0.4536 -0.5875  0.9582
   99SAPS  C313 9989   5.436   2.451   8.026 -0.3022  0.8583 -0.2835
   99SAPS  H13X 9990   5.460   2.546   8.079 -0.1036  0.4873  0.2850
   99SAPS  H13Y 9991   5.507   2.378   8.069 -0.3949  0.4750 -0.7807
   99SAPS  C314 9992   5.290   2.398   8.063 -0.0089 -0.0599 -0.0278
   99SAPS  H14X 9993   5.257   2.300   8.021 -1.8727  0.2595  0.6061
   99SAPS  H14Y 9994   5.227   2.470   8.005 -2.7878 -2.3582 -0.0078
   99SAPS  C315 9995   5.259   2.394   8.209 -0.6289 -0.3328  0.5530
   99SAPS  H15X 9996   5.340   2.336   8.258 -0.3898  0.8594  1.5859
   99SAPS  H15Y 9997   5.163   2.343   8.231 -2.4333  2.5937 -0.2685
   99SAPS  C316 9998   5.244   2.525   8.283 -0.6141 -0.7381 -0.0457
   99SAPS  H16X 9999   5.346   2.564   8.261  0.0712 -0.6151  3.0489
   99SAPS  H16Y10000   5.236   2.507   8.392  1.7040 -0.3535  0.2272
   99SAPS  C31710001   5.128   2.607   8.231 -0.6272  0.0418 -0.0180
   99SAPS  H17X10002   5.052   2.535   8.195  0.7427 -2.2797  1.5553
   99SAPS  H17Y10003   5.156   2.667   8.143  0.0343  1.7175  1.3090
   99SAPS  C31810004   5.071   2.707   8.340  0.9198  0.5460 -0.0433
   99SAPS  H18X10005   4.973   2.750   8.312  0.9502 -0.2226 -1.4181
   99SAPS  H18Y10006   5.136   2.796   8.349  1.2220  0.6779 -2.9009
   99SAPS  H18Z10007   5.070   2.657   8.439 -1.3108  0.6555 -0.0023
  100SAPS     N10008   0.414   3.893   6.100 -0.3124  0.5638 -0.5218
  100SAPS   HN110009   0.415   3.937   6.194 -1.4602 -0.5639  0.0439
  100SAPS   HN210010   0.490   3.822   6.105 -0.5763  0.3343  0.4827
  100SAPS   HN310011   0.426   3.955   6.018  2.6486 -1.0079 -1.3234
  100SAPS   C1210012   0.285   3.812   6.089  0.6808  0.0916  0.5961
  100SAPS  H12A10013   0.211   3.890   6.084  4.1309  3.4538  0.4384
  100SAPS   C1310014   0.259   3.725   5.972 -0.0533 -0.2551 -0.2598
  100SAPS  O13A10015   0.341   3.714   5.874 -0.6203  0.5554  0.4334
  100SAPS  O13B10016   0.145   3.673   5.966 -0.3012 -0.5218 -0.0008
  100SAPS   C1110017   0.265   3.735   6.219 -0.8786 -0.4009 -0.7948
  100SAPS  H11A10018   0.158   3.705   6.217 -0.8980 -0.4354  0.6779
  100SAPS  H11B10019   0.272   3.791   6.314 -0.5392 -0.2191 -0.9268
  100SAPS     P10020   0.487   3.607   6.291  0.0574  0.0660 -0.0887
  100SAPS   O1310021   0.523   3.466   6.297 -0.3268 -0.1263  0.1273
  100SAPS   O1410022   0.579   3.701   6.215 -0.5667  0.0030 -0.3129
  100SAPS   O1210023   0.347   3.616   6.222  0.0661 -0.0430  0.0194
  100SAPS   O1110024   0.458   3.671   6.436 -0.4344  1.1484 -0.2317
  100SAPS    C110025   0.547   3.779   6.485  0.5034 -0.0685 -0.3180
  100SAPS    HA10026   0.575   3.855   6.410  0.3404 -0.1553 -0.4682
  100SAPS    HB10027   0.479   3.841   6.547  0.6447 -0.7623  0.5457
  100SAPS    C210028   0.673   3.733   6.562  0.3920 -0.2834 -0.1443
  100SAPS    HS10029   0.722   3.670   6.485 -0.5614 -0.2530 -0.7832
  100SAPS   O2110030   0.639   3.660   6.681  0.3545 -0.0913 -0.3167
  100SAPS   C2110031   0.683   3.539   6.688  0.2541 -0.3613  0.2712
  100SAPS   O2210032   0.763   3.484   6.611 -0.6163 -0.7329 -0.2440
  100SAPS   C2210033   0.626   3.469   6.807  0.6805  0.2810 -0.4238
  100SAPS   H2R10034   0.572   3.542   6.871  0.0821  0.8757 -1.5887
  100SAPS   H2S10035   0.547   3.399   6.774 -0.9735  0.2819  3.2888
  100SAPS    C310036   0.753   3.851   6.616 -0.2747  0.0983 -0.3943
  100SAPS    HX10037   0.687   3.904   6.689 -1.8320 -2.1383 -0.1294
  100SAPS    HY10038   0.776   3.907   6.523 -1.0048  0.4884 -0.3468
  100SAPS   O3110039   0.878   3.800   6.673 -0.2088 -0.0244  0.1425
  100SAPS   C3110040   0.927   3.885   6.754  0.3292  0.0246 -0.0964
  100SAPS   O3210041   0.894   4.002   6.774 -0.5329  0.2571  0.2761
  100SAPS   C3210042   1.027   3.808   6.846 -0.1441 -0.2271 -0.1721
  100SAPS   H2X10043   1.112   3.873   6.876 -0.3745 -0.0161  0.0154
  100SAPS   H2Y10044   1.064   3.719   6.790 -0.3511 -0.4516  0.0511
  100SAPS   C2310045   0.724   3.383   6.895 -0.1957  0.1039 -0.0008
  100SAPS   H3R10046   0.807   3.449   6.928 -0.5561  0.8660 -0.6018
  100SAPS   H3S10047   0.774   3.311   6.827  1.4685 -0.5479  1.8848
  100SAPS   C2410048   0.652   3.318   7.015  0.1922  0.3000 -0.6454
  100SAPS   H4R10049   0.553   3.284   6.978  0.0074  1.0687 -0.8614
  100SAPS   H4S10050   0.638   3.406   7.082 -1.4028 -0.6639  0.3295
  100SAPS   C2510051   0.738   3.216   7.083  0.1525  0.3416  0.4103
  100SAPS   H5R10052   0.760   3.132   7.015 -0.3797 -0.9047  1.7502
  100SAPS   C2610053   0.776   3.216   7.208 -0.0934  0.2973 -0.4638
  100SAPS   H6R10054   0.824   3.127   7.251 -0.0359  0.4837 -0.1350
  100SAPS   C2710055   0.752   3.327   7.310 -0.7276 -0.1150  0.4009
  100SAPS   H7R10056   0.700   3.418   7.274  0.0576 -0.0135 -0.5057
  100SAPS   H7S10057   0.850   3.375   7.330 -0.4938 -0.9326  1.2357
  100SAPS   C2810058   0.686   3.279   7.430 -0.2638  0.0770 -0.4469
  100SAPS   H8R10059   0.577   3.275   7.415 -0.2984 -0.8488  0.0299
  100SAPS   C2910060   0.740   3.233   7.543  0.4894 -0.3280  0.6187
  100SAPS   H9R10061   0.669   3.212   7.624 -0.3725  0.7102  0.1440
  100SAPS  C21010062   0.878   3.219   7.592  0.1650  0.3189  0.2675
  100SAPS  H10R10063   0.948   3.245   7.510 -0.7257 -0.8967 -0.8787
  100SAPS  H10S10064   0.907   3.118   7.627  1.0470  0.0314 -1.2468
  100SAPS  C21110065   0.911   3.330   7.683 -0.0340  0.6407  0.9783
  100SAPS  H11R10066   0.975   3.402   7.630 -1.9410  1.6867  0.0443
  100SAPS  C21210067   0.872   3.348   7.811 -0.8384  0.4459 -0.0170
  100SAPS  H12R10068   0.908   3.443   7.854  0.4001 -0.2707  0.5775
  100SAPS  C21310069   0.794   3.255   7.901  0.3849  0.3362 -0.4561
  100SAPS  H13R10070   0.854   3.245   7.994  0.3370  0.5442 -0.4013
  100SAPS  H13S10071   0.773   3.155   7.858 -2.6688  1.6149 -2.1278
  100SAPS  C21410072   0.656   3.317   7.946 -0.0211 -0.9038  0.0412
  100SAPS  H14R10073   0.650   3.426   7.932  1.1891 -0.8461 -0.0903
  100SAPS  C21510074   0.546   3.257   7.997 -0.5982  0.5167  0.6181
  100SAPS  H15R10075   0.464   3.327   8.022 -2.9066  0.6128 -6.1792
  100SAPS  C21610076   0.534   3.103   8.019 -0.9943  0.2190 -0.0430
  100SAPS  H16R10077   0.634   3.055   8.013 -0.8559  0.7360 -2.1998
  100SAPS  H16S10078   0.472   3.056   7.940 -0.0262 -0.3436 -0.4769
  100SAPS  C21710079   0.481   3.060   8.158  0.6580  0.7615  0.3019
  100SAPS  H17R10080   0.416   2.970   8.149  2.0269 -0.0946 -1.3312
  100SAPS  H17S10081   0.437   3.144   8.216  0.0726  0.3960  0.3998
  100SAPS  C21810082   0.600   3.017   8.254  0.1420  0.5778  0.2215
  100SAPS  H18R10083   0.668   3.105   8.252  0.8612 -0.0000 -2.7893
  100SAPS  H18S10084   0.653   2.935   8.201  1.0507  1.2169  0.1230
  100SAPS  C21910085   0.552   2.972   8.393  0.0773  0.1017 -0.6267
  100SAPS  H19R10086   0.474   2.894   8.383  0.1723  0.2915 -3.0356
  100SAPS  H19S10087   0.515   3.064   8.443  0.8466  0.5756 -0.9171
  100SAPS  C22010088   0.670   2.919   8.478 -0.1308 -0.0863 -0.6030
  100SAPS  H20R10089   0.715   2.829   8.430  2.0256  0.9621 -0.5980
  100SAPS  H20S10090   0.635   2.900   8.582  0.9971 -1.3193 -0.4440
  100SAPS  H20T10091   0.756   2.988   8.479  2.5243 -3.2931  1.1899
  100SAPS   C3310092   0.954   3.752   6.975  0.1681  0.5880  0.7202
  100SAPS   H3X10093   0.858   3.700   6.952  1.2579 -2.1588  2.2173
  100SAPS   H3Y10094   0.930   3.837   7.042 -2.4015 -1.3541  2.3841
  100SAPS   C3410095   1.049   3.652   7.050 -0.2043  0.4647 -0.3898
  100SAPS   H4X10096   1.142   3.713   7.057 -0.0296  0.0708  0.8028
  100SAPS   H4Y10097   1.070   3.570   6.978 -1.0327 -2.0691  2.1712
  100SAPS   C3510098   1.001   3.607   7.179  0.2151  0.2649  0.4418
  100SAPS   H5X10099   1.084   3.544   7.219 -1.7305 -4.4429 -2.4490
  100SAPS   H5Y10100   0.909   3.547   7.159  0.8679 -1.4739  2.5468
  100SAPS   C3610101   0.968   3.723   7.274 -0.1835  0.4602  0.0058
  100SAPS   H6X10102   0.864   3.745   7.241 -0.6025 -1.6081 -0.1077
  100SAPS   H6Y10103   1.024   3.818   7.256 -0.7338  0.1505 -3.9300
  100SAPS   C3710104   0.974   3.683   7.424  0.4071 -0.7600 -0.0100
  100SAPS   H7X10105   1.071   3.632   7.446 -0.2008 -2.5203 -1.3207
  100SAPS   H7Y10106   0.889   3.618   7.453  0.1243  0.3489  1.7141
  100SAPS   C3810107   0.980   3.804   7.519  0.3063  0.7353 -0.6568
  100SAPS   H8X10108   0.881   3.851   7.498 -0.3727 -0.2295  0.3533
  100SAPS   H8Y10109   1.067   3.866   7.488  2.1541 -2.0393 -1.2059
  100SAPS   C3910110   0.977   3.754   7.665  0.2554  0.6337  0.1685
  100SAPS   H9X10111   0.920   3.659   7.675 -0.3572  1.2677  3.1780
  100SAPS   H9Y10112   0.917   3.821   7.729 -0.4803  0.7202 -0.5958
  100SAPS  C31010113   1.114   3.738   7.734 -0.1430 -0.2731 -0.3750
  100SAPS  H10X10114   1.162   3.837   7.723  0.9159 -0.8209 -0.8094
  100SAPS  H10Y10115   1.177   3.661   7.683  0.5983 -1.0050  1.6230
  100SAPS  C31110116   1.095   3.708   7.875  0.9324 -0.5013 -0.1841
  100SAPS  H11X10117   1.043   3.610   7.884 -0.3100  0.3704  2.3897
  100SAPS  H11Y10118   1.035   3.786   7.926  2.4434  0.9758 -0.6405
  100SAPS  C31210119   1.232   3.694   7.935 -0.1395 -0.1469  0.3773
  100SAPS  H12X10120   1.273   3.797   7.925 -0.2340 -0.3408 -2.1517
  100SAPS  H12Y10121   1.290   3.627   7.868  2.3511  3.3109 -1.0873
  100SAPS  C31310122   1.235   3.661   8.095  0.1022  0.4377  0.5068
  100SAPS  H13X10123   1.340   3.649   8.129 -0.1631 -0.0437  1.1572
  100SAPS  H13Y10124   1.203   3.556   8.110 -4.6673  1.7171  0.1507
  100SAPS  C31410125   1.164   3.760   8.177  0.2181 -0.7832 -0.3042
  100SAPS  H14X10126   1.056   3.781   8.160  0.1176  0.9153  2.1780
  100SAPS  H14Y10127   1.207   3.858   8.150  0.0903 -0.5415  0.3637
  100SAPS  C31510128   1.192   3.734   8.320 -0.7288  0.9518  0.6749
  100SAPS  H15X10129   1.301   3.751   8.332 -0.8703  0.5264  2.7699
  100SAPS  H15Y10130   1.173   3.627   8.342  0.7975  0.5907  0.2989
  100SAPS  C31610131   1.108   3.818   8.423 -0.0579  0.4028  0.9729
  100SAPS  H16X10132   0.999   3.802   8.412  0.2369  0.1065 -1.9499
  100SAPS  H16Y10133   1.117   3.928   8.414 -1.3053  0.3516 -1.2489
  100SAPS  C31710134   1.146   3.786   8.568 -0.8416 -0.4690 -0.4805
  100SAPS  H17X10135   1.257   3.785   8.573 -0.7611  1.7265 -1.5435
  100SAPS  H17Y10136   1.108   3.690   8.609  1.9320 -0.6627  1.8187
  100SAPS  C31810137   1.093   3.898   8.668 -0.1119 -0.2620  0.7135
  100SAPS  H18X10138   1.109   3.870   8.774  2.2376 -1.7251  0.0126
  100SAPS  H18Y10139   0.988   3.928   8.649  0.2874 -0.2093 -1.6033
  100SAPS  H18Z10140   1.147   3.993   8.646  0.0283 -0.4300  0.3247
  101OSM      N10141   6.638   3.123  10.905 -0.7613 -0.3387  0.6432
  101OSM    C1510142   6.780   3.085  10.870  0.4052 -0.1582  0.0845
  101OSM   H15A10143   6.807   2.988  10.908 -1.4871 -0.8709 -0.3278
  101OSM   H15B10144   6.856   3.142  10.922  0.0833 -0.8658  1.3453
  101OSM   H15C10145   6.805   3.096  10.765 -1.0139 -0.3214 -0.2827
  101OSM    C1410146   6.609   3.062  11.036 -0.7011 -0.0582  0.6344
  101OSM   H14A10147   6.685   3.089  11.107  0.2276 -0.5117 -0.1749
  101OSM   H14B10148   6.610   2.954  11.024  1.7692  0.1643 -1.5695
  101OSM   H14C10149   6.511   3.090  11.072 -0.4413  1.3966  0.2441
  101OSM    C1310150   6.630   3.274  10.914  0.2322 -1.2273  0.2666
  101OSM   H13A10151   6.680   3.316  11.000  1.6895  1.8352 -1.9514
  101OSM   H13B10152   6.529   3.310  10.919  0.4267  0.0672 -3.6367
  101OSM   H13C10153   6.665   3.320  10.823 -0.9755 -1.5525 -0.3702
  101OSM    C1210154   6.530   3.073  10.798 -0.2571 -0.2277  0.5163
  101OSM   H12A10155   6.546   2.971  10.767 -1.9319 -0.7028  1.1473
  101OSM   H12B10156   6.557   3.123  10.707  1.1039 -0.5475  0.7270
  101OSM    C1110157   6.375   3.091  10.842  0.8238  0.5306  0.4545
  101OSM   H11A10158   6.360   3.029  10.933 -0.9738 -1.0940 -0.8821
  101OSM   H11B10159   6.317   3.050  10.756  0.4703  2.7980 -0.4117
  101OSM      P10160   6.327   3.329  10.755  0.3140  0.3411 -0.2538
  101OSM    O1310161   6.190   3.336  10.708 -0.0504  0.3141 -0.0443
  101OSM    O1410162   6.375   3.456  10.809  0.6860  0.4679 -0.0268
  101OSM    O1110163   6.416   3.289  10.633 -0.0041  0.1263  0.2540
  101OSM    O1210164   6.347   3.226  10.866 -0.2902  0.0664 -0.5032
  101OSM    C1S10165   6.358   3.314  10.504 -0.2915  0.1751  0.3063
  101OSM    H1S10166   6.279   3.392  10.506 -1.4436 -0.8780 -2.1868
  101OSM    H1T10167   6.309   3.222  10.466  0.2611  0.0503 -0.1172
  101OSM     NF10168   6.422   3.395  10.279 -0.5983  0.0263 -0.4915
  101OSM    HNF10169   6.435   3.329  10.205 -2.9573 -0.7570 -0.2647
  101OSM    C2S10170   6.480   3.354  10.404 -0.3481  0.0755  0.3745
  101OSM    H2S10171   6.537   3.438  10.448  2.7054 -0.6046 -2.0831
  101OSM    C3S10172   6.586   3.237  10.397  0.6534  0.2248 -0.0357
  101OSM    H3S10173   6.534   3.146  10.360 -2.6631  1.7760  0.6170
  101OSM     O310174   6.647   3.211  10.524 -0.4353  0.4303 -0.8398
  101OSM    HO310175   6.598   3.273  10.579  0.1259  2.3529 -2.4376
  101OSM    C4S10176   6.689   3.250  10.283  0.1247 -0.8138  0.0994
  101OSM    H4S10177   6.653   3.229  10.181 -1.7922 -2.2519  1.0470
  101OSM    C5S10178   6.815   3.306  10.297  0.6209 -0.2490  0.5877
  101OSM    H5S10179   6.847   3.329  10.399 -3.3587  1.4575  1.5583
  101OSM    C6S10180   6.910   3.340  10.182  0.0259  0.3209 -0.1836
  101OSM    H6S10181   7.005   3.284  10.198 -0.0741 -0.5427 -2.5397
  101OSM    H6T10182   6.936   3.448  10.180  2.1069 -0.1664 -1.1658
  101OSM    C7S10183   6.862   3.303  10.039 -0.5709  0.1875 -0.3059
  101OSM    H7S10184   6.764   3.356  10.033 -1.2228 -0.7566  1.4637
  101OSM    H7T10185   6.850   3.194  10.023 -1.4533  0.2702 -0.2383
  101OSM    C8S10186   6.965   3.357   9.934 -0.2243 -0.6618  0.3189
  101OSM    H8S10187   7.057   3.296   9.950 -0.4129 -1.1051 -0.2396
  101OSM    H8T10188   6.989   3.465   9.942  1.5931 -1.0031 -0.4784
  101OSM    C9S10189   6.911   3.330   9.790  0.7819 -0.5211  0.1514
  101OSM    H9S10190   6.816   3.386   9.786  1.4424  0.6330  0.2177
  101OSM    H9T10191   6.900   3.222   9.771  1.4040 -0.9608  2.1357
  101OSM   C10S10192   6.997   3.382   9.684  0.3289  1.0125 -0.1512
  101OSM   H10S10193   7.097   3.332   9.687 -0.3577 -0.5363 -1.6768
  101OSM   H10T10194   7.008   3.492   9.694  0.2127  1.0967 -0.9127
  101OSM   C11S10195   6.928   3.344   9.544  0.2217  0.4799 -0.1773
  101OSM   H11S10196   6.860   3.425   9.508 -0.2065  0.8184  1.3558
  101OSM   H11T10197   6.868   3.252   9.561 -0.8810  0.7825 -2.2606
  101OSM   C12S10198   7.036   3.312   9.450 -0.1619 -0.9309 -0.4652
  101OSM   H12S10199   7.119   3.250   9.491  1.4031  0.8259 -0.8509
  101OSM   H12T10200   7.082   3.411   9.424 -1.2797 -0.1628  0.4496
  101OSM   C13S10201   6.988   3.251   9.314  0.1045 -0.4309 -0.1000
  101OSM   H13S10202   6.954   3.148   9.338 -1.2105  0.4834  2.0811
  101OSM   H13T10203   7.085   3.236   9.260  0.4209 -2.3230  0.9425
  101OSM   C14S10204   6.900   3.334   9.223  0.2174  0.0121 -0.6322
  101OSM   H14S10205   6.934   3.439   9.224  2.0632 -0.4979  3.9152
  101OSM   H14T10206   6.796   3.332   9.261  1.0248  0.7909  1.7237
  101OSM   C15S10207   6.886   3.277   9.082 -0.0823  0.6268 -0.4712
  101OSM   H15S10208   6.809   3.343   9.037  0.4539 -1.1010 -4.1146
  101OSM   H15T10209   6.849   3.174   9.100 -1.5595  1.0350 -1.0853
  101OSM   C16S10210   7.001   3.289   8.988 -0.1218 -0.9020 -1.0415
  101OSM   H16S10211   7.069   3.207   9.019 -2.7440 -2.5068  0.6242
  101OSM   H16T10212   7.052   3.386   9.010  0.2697 -1.0064 -1.4850
  101OSM   C17S10213   6.958   3.279   8.842 -0.4521  0.3847 -0.6567
  101OSM   H17S10214   6.914   3.182   8.811  0.0362 -0.1854  0.4346
  101OSM   H17T10215   7.051   3.288   8.781 -0.5497 -1.1832 -1.0457
  101OSM   C18S10216   6.872   3.403   8.794 -0.3096 -0.4968  0.4565
  101OSM   H18S10217   6.940   3.487   8.768 -1.9696  0.4239 -1.0347
  101OSM   H18T10218   6.805   3.444   8.872  1.2572 -0.2214  1.6686
  101OSM   H18U10219   6.807   3.372   8.708 -2.0922 -0.4615  1.7655
  101OSM    C1F10220   6.340   3.498  10.268  0.1694 -0.3972 -0.1917
  101OSM     OF10221   6.323   3.582  10.357  0.3727 -0.3141 -0.4161
  101OSM    C2F10222   6.294   3.512  10.128 -0.3063  0.2738 -0.7092
  101OSM    H2F10223   6.279   3.417  10.072 -0.6871 -0.8160  1.2174
  101OSM    H2G10224   6.367   3.571  10.069  0.6347  1.6069  1.7400
  101OSM    C3F10225   6.163   3.588  10.125 -0.0201  0.5357 -0.5210
  101OSM    H3F10226   6.176   3.696  10.146 -0.4774  0.7013 -1.0611
  101OSM    H3G10227   6.090   3.549  10.199  0.3001  1.2803  0.1949
  101OSM    C4F10228   6.092   3.585   9.988 -0.0549  0.1598  0.5393
  101OSM    H4F10229   6.158   3.613   9.903 -3.1179 -1.5498 -2.5477
  101OSM    H4G10230   6.010   3.659   9.980 -2.4853 -2.4930  0.0863
  101OSM    C5F10231   6.029   3.453   9.949  0.1153 -0.1510  0.4213
  101OSM    H5F10232   5.928   3.447   9.994 -0.6778  0.5409 -1.2080
  101OSM    H5G10233   6.095   3.369   9.978 -0.4729 -0.5784  0.5235
  101OSM    C6F10234   6.014   3.461   9.797  0.2074  0.1942 -0.1894
  101OSM    H6F10235   6.117   3.459   9.755  0.8814 -0.2760  1.4561
  101OSM    H6G10236   5.963   3.553   9.760 -0.1528 -0.1745 -0.6086
  101OSM    C7F10237   5.942   3.334   9.739  0.0657 -0.7756 -0.5890
  101OSM    H7F10238   6.003   3.244   9.762  0.9399  0.0630  0.4230
  101OSM    H7G10239   5.932   3.362   9.632 -0.2334  1.0597 -0.0982
  101OSM    C8F10240   5.803   3.298   9.801  0.3449  0.0900  0.4656
  101OSM    H8F10241   5.833   3.259   9.900  1.5478 -1.5343 -0.5071
  101OSM    H8G10242   5.755   3.221   9.736 -0.8503 -0.6248  2.1689
  101OSM    C9F10243   5.698   3.413   9.805  1.1267 -0.6595  0.3051
  101OSM    H9F10244   5.727   3.497   9.870 -0.7506 -0.1409  0.5131
  101OSM   C10F10245   5.580   3.427   9.749 -0.2064  0.2031  0.1097
  101OSM   H10F10246   5.533   3.525   9.762 -0.2802  0.0535  1.0391
  101OSM   C11F10247   5.509   3.329   9.652  0.3596  0.0983  0.6172
  101OSM   H11F10248   5.403   3.309   9.677  0.0237 -0.0680 -0.8769
  101OSM   H11G10249   5.566   3.234   9.640  0.4490  0.3447 -1.1778
  101OSM   C12F10250   5.499   3.394   9.507 -0.1491  0.3401  0.5030
  101OSM   H12F10251   5.567   3.480   9.490 -0.1324  0.2178 -0.0545
  101OSM   H12G10252   5.392   3.424   9.504  0.1891  1.6094  0.6298
  101OSM   C13F10253   5.514   3.299   9.393  0.5147 -0.4695  0.1457
  101OSM   H13F10254   5.433   3.223   9.394  2.3358 -2.4630  1.0273
  101OSM   H13G10255   5.607   3.238   9.398  0.1085 -1.0216  1.2024
  101OSM   C14F10256   5.515   3.364   9.261 -0.3884  0.1788 -0.6166
  101OSM   H14F10257   5.584   3.450   9.253  2.9779 -2.2222  1.3362
  101OSM   H14G10258   5.413   3.400   9.237 -1.2460 -1.1667  0.8343
  101OSM   C15F10259   5.562   3.256   9.155  0.3651  0.0343 -0.6081
  101OSM   H15F10260   5.485   3.178   9.134 -0.2489  0.5198 -0.1956
  101OSM   H15G10261   5.647   3.201   9.201 -0.0938 -0.7219 -0.6524
  101OSM   C16F10262   5.604   3.325   9.023  0.6095 -0.3191  0.3245
  101OSM   H16F10263   5.704   3.365   9.048  0.7113 -0.4707  0.1626
  101OSM   H16G10264   5.530   3.406   9.004  1.0075  0.3824  1.6903
  101OSM   C17F10265   5.624   3.228   8.906 -0.3568  0.6697  0.2870
  101OSM   H17F10266   5.693   3.144   8.929  0.1107  0.7356 -0.8560
  101OSM   H17G10267   5.676   3.284   8.826 -1.1676  0.7129 -0.2194
  101OSM   C18F10268   5.499   3.162   8.855  0.8383  0.0903 -0.3505
  101OSM   H18F10269   5.449   3.103   8.934  1.2599 -0.1624 -0.2694
  101OSM   H18G10270   5.509   3.095   8.767  0.6300  0.1480 -0.4176
  101OSM   H18H10271   5.427   3.241   8.822 -0.0333 -1.0459 -1.2321
  102OSM      N10272   6.006   2.862  11.046 -0.5561  0.3867  0.1832
  102OSM    C1510273   6.052   2.836  11.188  0.3198  0.5947 -0.6846
  102OSM   H15A10274   5.998   2.750  11.225  1.2877  0.4107  0.3139
  102OSM   H15B10275   6.037   2.927  11.243  0.3107 -1.0369  2.0675
  102OSM   H15C10276   6.156   2.816  11.206  0.0329 -1.5942 -1.2746
  102OSM    C1410277   5.867   2.914  11.055  0.0053 -0.2157 -0.1978
  102OSM   H14A10278   5.865   3.021  11.071 -1.2485 -0.1921 -0.4634
  102OSM   H14B10279   5.815   2.870  11.139  1.3164  1.7982  1.7058
  102OSM   H14C10280   5.819   2.890  10.961 -3.8519 -0.8580  1.8339
  102OSM    C1310281   6.094   2.971  10.990 -0.5838  0.5456 -0.1590
  102OSM   H13A10282   6.196   2.939  11.004 -0.0454  2.6281  0.8966
  102OSM   H13B10283   6.073   3.067  11.035 -1.2216  1.7734 -2.9323
  102OSM   H13C10284   6.087   2.978  10.882  3.8587  0.6502 -0.5102
  102OSM    C1210285   6.011   2.733  10.961 -0.4187  0.0450  0.4879
  102OSM   H12A10286   5.996   2.757  10.857  0.7339 -2.6036 -0.3388
  102OSM   H12B10287   5.935   2.663  10.993 -1.0222 -0.4942 -2.0204
  102OSM    C1110288   6.146   2.651  10.966 -0.1548  0.2906  0.1504
  102OSM   H11A10289   6.119   2.554  10.920 -0.1382  1.1632 -1.7552
  102OSM   H11B10290   6.175   2.647  11.073  0.2953 -0.6377 -0.0027
  102OSM      P10291   6.314   2.641  10.770  0.0383  0.6701 -0.4529
  102OSM    O1310292   6.393   2.727  10.684 -0.1404 -0.3171 -0.1568
  102OSM    O1410293   6.387   2.527  10.835  1.1675 -0.4626 -0.4853
  102OSM    O1110294   6.191   2.592  10.689  0.1307  0.2358  0.0049
  102OSM    O1210295   6.246   2.726  10.886  0.2198 -0.4724  0.2455
  102OSM    C1S10296   6.107   2.685  10.608  0.3579 -0.7950 -1.0140
  102OSM    H1S10297   6.118   2.790  10.643  1.1981 -1.2394  0.0791
  102OSM    H1T10298   5.998   2.669  10.624  0.2474  1.4968  0.8550
  102OSM     NF10299   6.064   2.785  10.381  0.9361  0.6956  0.1647
  102OSM    HNF10300   5.997   2.752  10.314 -0.0811  1.0313  1.0061
  102OSM    C2S10301   6.136   2.679  10.456 -0.6772  0.5615  0.3724
  102OSM    H2S10302   6.243   2.703  10.438 -0.2754 -0.4015  1.4472
  102OSM    C3S10303   6.107   2.534  10.407 -0.5919 -0.6477  0.8652
  102OSM    H3S10304   6.004   2.495  10.426 -0.3109 -2.4403 -1.1383
  102OSM     O310305   6.206   2.449  10.462  0.1710 -0.3635 -0.3800
  102OSM    HO310306   6.235   2.512  10.529 -0.1355 -0.4581 -0.1529
  102OSM    C4S10307   6.119   2.532  10.260  0.1807  0.2362 -1.4310
  102OSM    H4S10308   6.212   2.576  10.223  1.8547 -0.2352  2.0147
  102OSM    C5S10309   6.040   2.464  10.173  0.1898  0.6335 -1.1218
  102OSM    H5S10310   5.956   2.402  10.206  0.1627  1.1891 -0.1174
  102OSM    C6S10311   6.062   2.454  10.029 -0.1980  0.5912  0.2141
  102OSM    H6S10312   6.131   2.533   9.991 -2.7276  2.2862 -0.9554
  102OSM    H6T10313   5.966   2.498   9.994 -0.0236  1.4976  0.8379
  102OSM    C7S10314   6.123   2.321   9.976 -0.3386 -0.3560  0.9327
  102OSM    H7S10315   6.051   2.241  10.003  0.4965 -1.0774  1.0579
  102OSM    H7T10316   6.211   2.302  10.040  0.3400 -2.1375 -0.4589
  102OSM    C8S10317   6.152   2.307   9.822  0.2059  0.4758 -0.5499
  102OSM    H8S10318   6.135   2.199   9.805  1.6290  0.1904 -0.1847
  102OSM    H8T10319   6.256   2.340   9.802  0.6460  1.1490  2.5845
  102OSM    C9S10320   6.060   2.393   9.722  0.1441 -0.1417  0.2330
  102OSM    H9S10321   6.100   2.496   9.728  0.4058 -0.1353 -1.4040
  102OSM    H9T10322   5.953   2.384   9.752  0.2778 -0.3611  0.6514
  102OSM   C10S10323   6.075   2.354   9.569  0.1389 -0.4049  0.2650
  102OSM   H10S10324   6.036   2.252   9.550 -1.4560  0.0801  0.8902
  102OSM   H10T10325   6.180   2.344   9.534  0.4383  1.2663  0.6470
  102OSM   C11S10326   6.010   2.456   9.484  0.0826  0.1052  0.2953
  102OSM   H11S10327   6.063   2.551   9.507  2.7030 -1.7287  2.0145
  102OSM   H11T10328   5.902   2.472   9.505 -1.2195 -2.1808 -3.9986
  102OSM   C12S10329   6.018   2.401   9.337  0.1195  0.1728 -0.8005
  102OSM   H12S10330   5.957   2.309   9.347  1.1455 -0.4427 -0.1813
  102OSM   H12T10331   6.119   2.365   9.307 -0.1503 -1.2249 -0.0585
  102OSM   C13S10332   5.960   2.502   9.232  0.1144  0.5092 -0.3020
  102OSM   H13S10333   5.998   2.604   9.255 -0.3767  0.7351 -0.4896
  102OSM   H13T10334   5.852   2.507   9.257  0.5633 -1.3384  2.2306
  102OSM   C14S10335   5.995   2.463   9.093  0.2115  0.8603  0.6470
  102OSM   H14S10336   5.935   2.523   9.022  1.6836  1.0880 -0.4017
  102OSM   H14T10337   5.977   2.354   9.082  1.4003  0.8290 -1.0821
  102OSM   C15S10338   6.143   2.473   9.053 -0.1518  0.2558 -0.1144
  102OSM   H15S10339   6.202   2.389   9.096  2.6228  0.9367 -2.3995
  102OSM   H15T10340   6.189   2.565   9.096  0.9367 -0.2538 -0.1606
  102OSM   C16S10341   6.163   2.463   8.905  0.3384  0.0623 -0.1283
  102OSM   H16S10342   6.102   2.545   8.863  0.3532  0.4440  0.5921
  102OSM   H16T10343   6.121   2.369   8.863 -1.7287  1.4425 -1.2106
  102OSM   C17S10344   6.309   2.481   8.867 -0.2466 -0.3505 -0.8225
  102OSM   H17S10345   6.359   2.402   8.926  0.6107 -0.1009 -1.2106
  102OSM   H17T10346   6.339   2.585   8.890 -3.2862  0.5767 -0.7344
  102OSM   C18S10347   6.326   2.461   8.715  0.1970  0.0469 -0.3070
  102OSM   H18S10348   6.283   2.362   8.688 -1.2364 -0.0489  2.2057
  102OSM   H18T10349   6.431   2.458   8.679  0.1214 -1.8703 -0.4289
  102OSM   H18U10350   6.281   2.542   8.653  1.4415 -1.4249 -3.2404
  102OSM    C1F10351   6.082   2.912  10.385 -0.7944 -0.1160 -0.9031
  102OSM     OF10352   6.149   2.956  10.476 -0.3692  0.1977 -0.3695
  102OSM    C2F10353   6.030   2.999  10.277  0.1590  0.7907 -0.3074
  102OSM    H2F10354   5.919   3.000  10.288 -0.1439  1.4921 -3.1360
  102OSM    H2G10355   6.038   2.947  10.179 -2.3437 -2.7790  1.2449
  102OSM    C3F10356   6.072   3.155  10.289 -0.5154  0.2395 -0.8695
  102OSM    H3F10357   6.180   3.162  10.263 -0.4427 -0.6793 -0.8298
  102OSM    H3G10358   6.056   3.178  10.396 -0.3178 -1.9347 -0.3516
  102OSM    C4F10359   5.976   3.226  10.199 -0.1795  0.6869 -0.8042
  102OSM    H4F10360   5.966   3.183  10.097  2.5160  0.0742 -0.8441
  102OSM    H4G10361   6.027   3.323  10.183  0.6202  0.3779 -0.1881
  102OSM    C5F10362   5.844   3.255  10.267  0.1251 -0.0795  0.1531
  102OSM    H5F10363   5.876   3.315  10.355 -1.9353  1.1003  0.1120
  102OSM    H5G10364   5.784   3.163  10.287  0.4960  0.0523  1.9959
  102OSM    C6F10365   5.745   3.327  10.174 -0.4457 -0.2844 -0.0013
  102OSM    H6F10366   5.721   3.257  10.092 -1.7711 -0.5445  0.5998
  102OSM    H6G10367   5.792   3.424  10.145  0.5290  0.4490  3.7236
  102OSM    C7F10368   5.621   3.373  10.250  0.3428  0.7393  0.0131
  102OSM    H7F10369   5.656   3.423  10.343 -2.4143  0.3237  1.3312
  102OSM    H7G10370   5.565   3.278  10.267  1.9311 -0.3212 -0.5793
  102OSM    C8F10371   5.522   3.456  10.179 -0.2883  0.7132 -0.3564
  102OSM    H8F10372   5.502   3.417  10.077  0.4352 -0.1804 -0.1622
  102OSM    H8G10373   5.581   3.550  10.174  2.7493 -1.1289 -0.5131
  102OSM    C9F10374   5.402   3.477  10.264  0.5527  0.0000 -0.4761
  102OSM    H9F10375   5.420   3.512  10.367  2.5994 -1.6296 -0.2513
  102OSM   C10F10376   5.276   3.464  10.216 -0.2225  0.0670 -0.2798
  102OSM   H10F10377   5.198   3.491  10.288  0.2574  0.6829  0.0153
  102OSM   C11F10378   5.224   3.426  10.087  0.3248  0.0664  0.6161
  102OSM   H11F10379   5.119   3.390  10.091  0.0482  0.8053  0.1436
  102OSM   H11G10380   5.272   3.337  10.041  0.4541 -0.8817  2.5196
  102OSM   C12F10381   5.227   3.561  10.008 -0.5645 -0.1285 -0.2052
  102OSM   H12F10382   5.331   3.598   9.996 -0.9455  1.8381  2.0864
  102OSM   H12G10383   5.185   3.650  10.060  0.1667  0.3865 -0.4937
  102OSM   C13F10384   5.186   3.541   9.862 -0.5208 -0.6840  0.4201
  102OSM   H13F10385   5.236   3.462   9.802  0.0124 -0.1437  0.1388
  102OSM   H13G10386   5.207   3.633   9.803 -0.6459  0.0512  1.5025
  102OSM   C14F10387   5.031   3.534   9.833 -0.2144 -0.2576  0.3685
  102OSM   H14F10388   4.980   3.628   9.862 -0.8098 -0.9608  1.6593
  102OSM   H14G10389   4.989   3.447   9.888 -2.0735  1.4227  1.6874
  102OSM   C15F10390   4.984   3.522   9.685  0.7427  0.1216  0.0818
  102OSM   H15F10391   5.033   3.597   9.619  0.6335  2.3762  2.4855
  102OSM   H15G10392   4.874   3.536   9.676  0.9268  0.5626 -1.7349
  102OSM   C16F10393   5.018   3.383   9.635  0.3241  0.0532  0.2032
  102OSM   H16F10394   4.960   3.318   9.705 -0.8488 -2.2585 -2.7803
  102OSM   H16G10395   5.128   3.368   9.642  0.3828 -0.9645 -2.3214
  102OSM   C17F10396   4.977   3.364   9.489  0.7158  0.3217  0.8787
  102OSM   H17F10397   4.879   3.416   9.486  1.1751  1.2032  0.8852
  102OSM   H17G10398   4.965   3.254   9.479  0.5072  0.4127  0.0896
  102OSM   C18F10399   5.068   3.415   9.377  0.6315 -0.1912 -0.3233
  102OSM   H18F10400   5.171   3.374   9.369  0.2791 -0.9824 -0.8585
  102OSM   H18G10401   5.081   3.525   9.390  3.0727 -0.4950  0.0232
  102OSM   H18H10402   5.025   3.398   9.276  0.3704  1.8956 -0.5883
  103OSM      N10403   0.337   6.190  10.793 -0.1109  0.0881 -0.4494
  103OSM    C1510404   0.294   6.305  10.875 -0.4056  0.4966 -0.2622
  103OSM   H15A10405   0.295   6.275  10.978 -0.4483 -0.1185 -0.4350
  103OSM   H15B10406   0.190   6.330  10.864 -0.1463  1.1755 -1.2605
  103OSM   H15C10407   0.361   6.388  10.862 -0.3742  0.3330 -1.2288
  103OSM    C1410408   0.316   6.221  10.651 -0.5750 -0.5302 -0.0231
  103OSM   H14A10409   0.341   6.323  10.623  0.5576 -0.0494  2.5756
  103OSM   H14B10410   0.218   6.186  10.623 -0.6726 -0.4186  0.1790
  103OSM   H14C10411   0.375   6.154  10.591  1.2757  2.0399 -1.1915
  103OSM    C1310412   0.487   6.166  10.810  1.0861  0.4592  0.4317
  103OSM   H13A10413   0.516   6.166  10.914  0.7155  0.3487  0.5356
  103OSM   H13B10414   0.553   6.231  10.754  2.2692 -1.7007 -0.7277
  103OSM   H13C10415   0.507   6.068  10.770 -1.2261  0.1531 -0.0144
  103OSM    C1210416   0.267   6.057  10.847  0.5708 -1.0622 -0.2644
  103OSM   H12A10417   0.164   6.082  10.867  1.4440  0.4854  2.5149
  103OSM   H12B10418   0.298   6.041  10.949 -0.0332  0.7038  0.2162
  103OSM    C1110419   0.272   5.933  10.754  0.3631 -0.0668 -0.1780
  103OSM   H11A10420   0.246   5.965  10.651 -1.9278  0.5556  0.5625
  103OSM   H11B10421   0.196   5.861  10.793  0.8350 -0.4504  0.0404
  103OSM      P10422   0.444   5.786  10.877  0.3267  0.0819  0.2211
  103OSM    O1310423   0.588   5.806  10.916  0.6213  0.2785  0.7351
  103OSM    O1410424   0.344   5.788  10.984 -0.0886 -0.2071  0.4428
  103OSM    O1110425   0.432   5.634  10.830  0.0215 -0.6983  0.3127
  103OSM    O1210426   0.398   5.872  10.751  0.0377 -0.1334  0.3235
  103OSM    C1S10427   0.323   5.574  10.764  0.0107 -0.4256  0.1095
  103OSM    H1S10428   0.229   5.629  10.787  0.2088 -0.1973  0.3840
  103OSM    H1T10429   0.310   5.472  10.806 -4.0874 -0.2676 -0.5968
  103OSM     NF10430   0.231   5.511  10.546  0.2337 -0.1326  0.0786
  103OSM    HNF10431   0.237   5.415  10.522 -1.1856 -0.0376 -0.7141
  103OSM    C2S10432   0.349   5.565  10.614 -0.9923 -0.9109  0.1251
  103OSM    H2S10433   0.360   5.670  10.580 -0.6544 -0.9676  0.0602
  103OSM    C3S10434   0.485   5.492  10.591  0.5939 -0.6408  0.1347
  103OSM    H3S10435   0.472   5.390  10.634  1.0881 -0.7622 -0.0033
  103OSM     O310436   0.599   5.550  10.635 -0.8417 -0.8765  0.4173
  103OSM    HO310437   0.569   5.608  10.705  1.3170  1.9343 -0.8594
  103OSM    C4S10438   0.500   5.477  10.441  0.0930  0.8971 -0.1990
  103OSM    H4S10439   0.466   5.566  10.386 -0.1708  1.3451  0.6829
  103OSM    C5S10440   0.551   5.378  10.366  0.4814 -0.2042 -0.1036
  103OSM    H5S10441   0.579   5.283  10.413  2.6541  0.5965  0.2720
  103OSM    C6S10442   0.559   5.390  10.222 -0.0230  0.1694 -0.1084
  103OSM    H6S10443   0.614   5.302  10.183 -0.0078 -0.4971  1.3880
  103OSM    H6T10444   0.609   5.474  10.168  1.0145 -0.6329 -0.3970
  103OSM    C7S10445   0.411   5.384  10.169 -0.1632  0.2328  0.4029
  103OSM    H7S10446   0.357   5.478  10.194  0.4056  0.6190  0.1756
  103OSM    H7T10447   0.357   5.292  10.201 -0.4819  0.4649  0.5364
  103OSM    C8S10448   0.408   5.379  10.020 -0.4297  1.1662 -0.1570
  103OSM    H8S10449   0.459   5.470   9.982 -0.5947  1.4324  0.2584
  103OSM    H8T10450   0.299   5.377   9.998 -1.3347 -1.8811  3.9983
  103OSM    C9S10451   0.486   5.265   9.939 -0.8414  0.5110  0.0987
  103OSM    H9S10452   0.469   5.163   9.982  0.2793  0.2571 -0.0707
  103OSM    H9T10453   0.594   5.289   9.945 -0.5300 -0.1171 -2.2961
  103OSM   C10S10454   0.448   5.276   9.798  0.4274  0.3721 -0.2568
  103OSM   H10S10455   0.452   5.377   9.752  1.1300 -0.2705 -1.6686
  103OSM   H10T10456   0.342   5.245   9.797  0.3991  0.3511  1.6917
  103OSM   C11S10457   0.529   5.196   9.701  0.6093  1.2956  0.1693
  103OSM   H11S10458   0.525   5.088   9.726 -0.2051  1.2070 -0.3126
  103OSM   H11T10459   0.629   5.242   9.684  0.5155  0.8680 -1.6713
  103OSM   C12S10460   0.461   5.201   9.561  1.4957  0.3396  0.2104
  103OSM   H12S10461   0.450   5.302   9.515  0.6983 -1.2197 -3.2272
  103OSM   H12T10462   0.354   5.175   9.571  1.2311  0.5512 -1.7714
  103OSM   C13S10463   0.511   5.101   9.462 -0.1567  0.0919  0.1859
  103OSM   H13S10464   0.525   5.001   9.507  0.0058 -1.1558 -2.5206
  103OSM   H13T10465   0.609   5.139   9.425 -0.6477  2.9670  1.7045
  103OSM   C14S10466   0.409   5.088   9.345 -0.3175 -0.3653  0.4535
  103OSM   H14S10467   0.384   5.190   9.309  1.8419  0.2029  0.4994
  103OSM   H14T10468   0.318   5.035   9.381 -2.1598  0.7444 -2.3842
  103OSM   C15S10469   0.468   5.017   9.224 -0.4419  0.4282  0.1948
  103OSM   H15S10470   0.394   5.037   9.144 -1.2943 -1.4885  0.4579
  103OSM   H15T10471   0.479   4.907   9.234  0.5149  0.4057 -1.0230
  103OSM   C16S10472   0.604   5.068   9.171 -0.2395 -0.1587  0.1904
  103OSM   H16S10473   0.622   5.017   9.074  0.8880 -2.0091  1.3614
  103OSM   H16T10474   0.689   5.059   9.241  0.3390  2.4785 -0.1072
  103OSM   C17S10475   0.608   5.221   9.128 -0.1882 -0.0253 -0.2382
  103OSM   H17S10476   0.698   5.235   9.064 -1.3405 -1.5807 -2.2525
  103OSM   H17T10477   0.619   5.273   9.226  2.4207  0.8891 -0.9726
  103OSM   C18S10478   0.495   5.274   9.044 -0.1829 -0.1052 -0.8196
  103OSM   H18S10479   0.407   5.270   9.112 -0.4358  0.6023 -1.0962
  103OSM   H18T10480   0.489   5.204   8.958  0.9022 -1.2286  0.0110
  103OSM   H18U10481   0.510   5.372   8.993 -3.1464  1.3659  1.0145
  103OSM    C1F10482   0.114   5.574  10.533 -0.0386  0.3136 -0.2059
  103OSM     OF10483   0.106   5.691  10.571 -0.4101 -0.0606 -0.0446
  103OSM    C2F10484  -0.006   5.505  10.477  0.5525 -0.3359  0.3388
  103OSM    H2F10485  -0.086   5.583  10.470 -0.1329 -0.8009  2.6104
  103OSM    H2G10486  -0.049   5.422  10.536  1.9295 -0.6308  0.9202
  103OSM    C3F10487   0.011   5.457  10.332  0.2723  0.3740  0.4586
  103OSM    H3F10488  -0.084   5.417  10.291  0.7958 -2.8362  2.2111
  103OSM    H3G10489   0.095   5.385  10.330  0.0591  0.1453 -0.3280
  103OSM    C4F10490   0.045   5.576  10.241 -0.7993 -0.5262  0.2640
  103OSM    H4F10491   0.135   5.635  10.270 -1.9937  1.4887 -0.0098
  103OSM    H4G10492  -0.033   5.655  10.241  1.0207  1.3575 -1.2238
  103OSM    C5F10493   0.063   5.529  10.093 -0.3980 -0.1536  0.2776
  103OSM    H5F10494  -0.037   5.510  10.049 -0.5493 -1.8947  1.3140
  103OSM    H5G10495   0.113   5.430  10.089  1.2382  0.7095 -1.0096
  103OSM    C6F10496   0.132   5.637  10.006 -0.0568 -0.4016  0.2569
  103OSM    H6F10497   0.227   5.676  10.049 -0.5420  1.6987 -0.5302
  103OSM    H6G10498   0.057   5.718  10.002  0.6265  0.2324  0.1971
  103OSM    C7F10499   0.153   5.590   9.860  0.0086  0.0844 -0.4361
  103OSM    H7F10500   0.047   5.596   9.825  0.2674  1.2737 -1.0315
  103OSM    H7G10501   0.189   5.485   9.852  1.4071  0.7457 -3.8983
  103OSM    C8F10502   0.250   5.683   9.775  0.0233  0.1394 -0.1416
  103OSM    H8F10503   0.355   5.653   9.796 -0.8327 -2.7302  0.2634
  103OSM    H8G10504   0.232   5.786   9.813  1.0053 -0.1651  1.1633
  103OSM    C9F10505   0.209   5.690   9.627 -0.8321 -0.1583  0.4566
  103OSM    H9F10506   0.222   5.789   9.582 -1.0284 -0.8074 -1.0636
  103OSM   C10F10507   0.157   5.595   9.549  0.8479  0.1530 -0.0486
  103OSM   H10F10508   0.111   5.627   9.454 -0.7265 -0.8537  0.3484
  103OSM   C11F10509   0.130   5.446   9.581 -0.0374  0.0006  0.3981
  103OSM   H11F10510   0.028   5.447   9.624  0.7725 -0.8985  2.4146
  103OSM   H11G10511   0.198   5.397   9.654  0.3200 -1.2141 -0.7404
  103OSM   C12F10512   0.136   5.355   9.455 -0.2735 -0.4858 -0.0915
  103OSM   H12F10513   0.142   5.252   9.495  0.8733  0.1271  1.3649
  103OSM   H12G10514   0.228   5.373   9.395 -0.1048  0.1834  0.3605
  103OSM   C13F10515   0.018   5.376   9.357 -0.9879 -0.3485  0.6426
  103OSM   H13F10516  -0.070   5.349   9.419  0.2695  1.3907  3.2544
  103OSM   H13G10517   0.011   5.484   9.333 -0.3474 -0.1847  1.1797
  103OSM   C14F10518   0.023   5.288   9.232  0.9912 -0.5060  0.6230
  103OSM   H14F10519   0.037   5.182   9.264 -2.0859 -0.1892  3.2101
  103OSM   H14G10520   0.111   5.324   9.174  0.0495 -2.2825 -2.0313
  103OSM   C15F10521  -0.107   5.286   9.147 -0.2862 -0.1561 -0.1145
  103OSM   H15F10522  -0.159   5.384   9.153 -2.0110 -1.1384  1.3483
  103OSM   H15G10523  -0.164   5.214   9.209  2.1154 -0.3178  1.9987
  103OSM   C16F10524  -0.075   5.252   9.000 -0.6670  0.3255 -0.1509
  103OSM   H16F10525  -0.016   5.158   8.995  2.8721  2.4116  0.9428
  103OSM   H16G10526  -0.007   5.329   8.959  0.9998 -0.4449  1.1003
  103OSM   C17F10527  -0.203   5.224   8.911 -0.0543  0.6897 -0.4249
  103OSM   H17F10528  -0.250   5.322   8.889  0.9799  1.2375 -0.2561
  103OSM   H17G10529  -0.280   5.186   8.981  1.4137 -0.5729  0.5455
  103OSM   C18F10530  -0.183   5.129   8.788 -0.2443  0.4300  0.2136
  103OSM   H18F10531  -0.279   5.096   8.743  0.2114  1.8369 -1.8333
  103OSM   H18G10532  -0.111   5.053   8.825 -1.6385  0.1172  2.3743
  103OSM   H18H10533  -0.127   5.182   8.708 -1.3056 -2.0077 -2.2334
  104OSM      N10534   4.091   4.710  10.770  0.9193  0.4915 -0.3850
  104OSM    C1510535   4.117   4.704  10.623  0.2371 -0.1749 -0.0543
  104OSM   H15A10536   4.180   4.787  10.594 -2.8753  2.2520 -0.0915
  104OSM   H15B10537   4.031   4.719  10.560 -1.6274 -0.2941  2.4127
  104OSM   H15C10538   4.158   4.607  10.599 -0.0319 -0.3609  0.2434
  104OSM    C1410539   4.041   4.847  10.806 -0.2208 -0.5162 -0.4089
  104OSM   H14A10540   4.119   4.920  10.789 -0.0829 -0.9130 -1.5795
  104OSM   H14B10541   4.000   4.859  10.904  1.3675  3.2256 -0.1112
  104OSM   H14C10542   3.973   4.880  10.729 -0.8680 -0.0064  0.3860
  104OSM    C1310543   3.971   4.618  10.794  0.4376  0.0076 -0.0715
  104OSM   H13A10544   3.974   4.589  10.898 -1.2980  1.4171  0.4083
  104OSM   H13B10545   3.968   4.538  10.721 -2.8581 -0.9945  1.0498
  104OSM   H13C10546   3.881   4.670  10.764  0.3022  0.5416  1.2179
  104OSM    C1210547   4.215   4.672  10.847 -0.5270  0.2693  0.5893
  104OSM   H12A10548   4.220   4.568  10.820  1.3608  0.3645  0.5017
  104OSM   H12B10549   4.198   4.676  10.953  2.2191  1.3413  1.0450
  104OSM    C1110550   4.351   4.723  10.799  0.0923 -0.3084  0.0879
  104OSM   H11A10551   4.361   4.706  10.690  0.0929  2.8153 -0.4410
  104OSM   H11B10552   4.424   4.659  10.853 -0.1122  0.6347  1.5185
  104OSM      P10553   4.470   4.948  10.760 -0.2826 -0.2526  0.3925
  104OSM    O1310554   4.438   5.095  10.787 -0.2018 -0.5082 -0.0328
  104OSM    O1410555   4.606   4.913  10.815  0.1379  0.2792  0.0975
  104OSM    O1110556   4.458   4.922  10.604 -0.5117 -0.0273 -0.2173
  104OSM    O1210557   4.367   4.854  10.832  0.4812  0.7838  0.8186
  104OSM    C1S10558   4.350   4.989  10.535  0.6029  0.3287  0.2331
  104OSM    H1S10559   4.357   5.100  10.543 -0.8302  0.4264  0.3071
  104OSM    H1T10560   4.252   4.954  10.574  1.6357 -1.3973  1.3255
  104OSM     NF10561   4.255   5.065  10.331 -0.1452  0.7765  0.3019
  104OSM    HNF10562   4.175   5.021  10.289  0.9811 -1.2194  0.1928
  104OSM    C2S10563   4.354   4.972  10.385  0.0340  0.1845 -0.3448
  104OSM    H2S10564   4.457   5.004  10.356 -0.1565  1.4221  0.3096
  104OSM    C3S10565   4.333   4.825  10.342  0.3942 -0.3674  0.1780
  104OSM    H3S10566   4.242   4.785  10.393 -0.4347  0.9375 -0.2444
  104OSM     O310567   4.441   4.744  10.396  0.2678 -0.5324 -0.3803
  104OSM    HO310568   4.465   4.788  10.478  2.5914 -2.5901  0.1269
  104OSM    C4S10569   4.311   4.815  10.195 -0.2017  0.9615  0.3912
  104OSM    H4S10570   4.205   4.831  10.168 -0.1387  2.1480  0.8054
  104OSM    C5S10571   4.407   4.792  10.097  0.8708 -0.3104 -0.3654
  104OSM    H5S10572   4.512   4.778  10.128  1.2844 -0.7388 -1.9419
  104OSM    C6S10573   4.371   4.768   9.951  0.7170 -0.2305 -0.3465
  104OSM    H6S10574   4.264   4.746   9.930  0.9323 -0.0961 -1.6340
  104OSM    H6T10575   4.434   4.684   9.914 -0.8817 -2.2484  1.3819
  104OSM    C7S10576   4.393   4.899   9.873  0.1795  0.9383 -0.3306
  104OSM    H7S10577   4.490   4.944   9.901  1.2397 -0.2212 -1.9976
  104OSM    H7T10578   4.314   4.973   9.899 -0.9262 -0.6389  0.9272
  104OSM    C8S10579   4.394   4.884   9.721 -0.3887  0.5991  0.2496
  104OSM    H8S10580   4.306   4.826   9.685  1.5799 -0.9716 -2.2148
  104OSM    H8T10581   4.481   4.819   9.698 -1.5004 -0.9357  0.2465
  104OSM    C9S10582   4.377   5.021   9.646 -0.9222 -0.5836 -0.1958
  104OSM    H9S10583   4.474   5.056   9.607 -1.2969  2.7281  1.6509
  104OSM    H9T10584   4.328   5.097   9.711  0.0689  0.0026 -0.1325
  104OSM   C10S10585   4.282   5.015   9.526  0.2932 -0.8648  0.1696
  104OSM   H10S10586   4.265   5.120   9.496  1.4528 -1.8383 -4.2645
  104OSM   H10T10587   4.187   4.965   9.557  0.0724  0.0602  0.9683
  104OSM   C11S10588   4.345   4.933   9.415 -0.2709  0.4030  0.1029
  104OSM   H11S10589   4.381   4.835   9.454 -3.3909  0.3799  3.2612
  104OSM   H11T10590   4.435   4.995   9.398  2.2537 -2.9189  0.9253
  104OSM   C12S10591   4.256   4.914   9.292  0.4714 -0.1615  0.1638
  104OSM   H12S10592   4.213   5.012   9.263 -2.5091 -1.6811 -0.7984
  104OSM   H12T10593   4.169   4.858   9.332  0.9142 -0.1675  1.1227
  104OSM   C13S10594   4.317   4.844   9.177  0.3972  0.2144  0.1951
  104OSM   H13S10595   4.337   4.742   9.216 -0.8534 -0.0476  0.1599
  104OSM   H13T10596   4.410   4.898   9.151  0.6963 -0.5961 -0.4371
  104OSM   C14S10597   4.220   4.845   9.060  0.1531  0.2974 -0.3896
  104OSM   H14S10598   4.125   4.812   9.106  1.5470 -0.2618  2.1454
  104OSM   H14T10599   4.256   4.778   8.979  2.4708  0.6033  0.3521
  104OSM   C15S10600   4.185   4.973   8.992 -0.3925 -0.4732 -0.0151
  104OSM   H15S10601   4.277   5.023   8.954 -0.3351 -1.3840 -1.0943
  104OSM   H15T10602   4.126   5.046   9.052 -1.3632 -0.9710 -0.3549
  104OSM   C16S10603   4.100   4.955   8.861  0.0147  0.1671  0.3743
  104OSM   H16S10604   4.107   5.057   8.817  3.9791  0.2072  0.9048
  104OSM   H16T10605   3.992   4.938   8.883  0.3519  0.3077  2.1783
  104OSM   C17S10606   4.164   4.858   8.761 -1.2109  1.6864 -0.0726
  104OSM   H17S10607   4.121   4.759   8.786  1.3161  0.5481 -0.0800
  104OSM   H17T10608   4.275   4.851   8.770 -1.3192  0.4476  0.3444
  104OSM   C18S10609   4.125   4.894   8.609 -0.5159  0.1201 -0.5618
  104OSM   H18S10610   4.145   5.003   8.598 -0.6368  0.2660  0.5960
  104OSM   H18T10611   4.016   4.878   8.595 -0.5130 -2.3400  1.8389
  104OSM   H18U10612   4.194   4.843   8.539 -0.3771  0.0631 -0.3827
  104OSM    C1F10613   4.253   5.194  10.320  0.2525  0.3874 -0.2682
  104OSM     OF10614   4.335   5.270  10.372 -0.1127 -0.1761 -0.4255
  104OSM    C2F10615   4.130   5.250  10.241  0.8717  0.1064 -0.0244
  104OSM    H2F10616   4.096   5.344  10.289 -1.5806 -0.2049 -1.0932
  104OSM    H2G10617   4.046   5.178  10.253  2.0547 -0.9810  2.1812
  104OSM    C3F10618   4.160   5.255  10.091  0.1318 -0.2712  0.7517
  104OSM    H3F10619   4.164   5.151  10.052 -0.6471 -0.1810  0.4219
  104OSM    H3G10620   4.256   5.308  10.073 -0.8737  0.7822 -1.7203
  104OSM    C4F10621   4.057   5.330  10.018 -0.0141 -0.1290  1.1815
  104OSM    H4F10622   4.029   5.426  10.067 -1.8287  0.0316 -0.1617
  104OSM    H4G10623   3.963   5.272  10.008 -0.8245  1.1242  1.3718
  104OSM    C5F10624   4.114   5.369   9.881 -0.0546  0.1798 -0.1278
  104OSM    H5F10625   4.183   5.292   9.841  0.7245  0.3791  0.8129
  104OSM    H5G10626   4.166   5.463   9.906  3.1821 -1.6388  0.2461
  104OSM    C6F10627   4.001   5.411   9.790 -0.4679 -0.0329 -0.6116
  104OSM    H6F10628   3.916   5.444   9.853 -0.1493  1.0959 -0.7616
  104OSM    H6G10629   3.971   5.324   9.728 -2.9117 -1.0646  1.9340
  104OSM    C7F10630   4.035   5.514   9.689  0.2986 -0.2350 -0.5216
  104OSM    H7F10631   4.057   5.612   9.737 -4.4826  0.8536 -0.3279
  104OSM    H7G10632   3.945   5.558   9.641 -0.3748  0.3513  1.2168
  104OSM    C8F10633   4.141   5.483   9.586 -0.1765 -0.1545  0.2029
  104OSM    H8F10634   4.231   5.455   9.646  1.7783 -0.5012 -2.7859
  104OSM    H8G10635   4.167   5.564   9.514  1.1263 -3.2010 -2.8641
  104OSM    C9F10636   4.088   5.363   9.511  0.5024 -1.2007  0.1641
  104OSM    H9F10637   4.070   5.266   9.560 -0.2008 -0.9367  0.4310
  104OSM   C10F10638   4.045   5.362   9.386 -0.0608  0.2064 -0.0279
  104OSM   H10F10639   4.015   5.265   9.344  1.9586  0.1724 -1.4606
  104OSM   C11F10640   4.035   5.482   9.295  0.1165 -0.5123 -0.6630
  104OSM   H11F10641   4.044   5.577   9.352 -2.3464 -1.1459  0.9161
  104OSM   H11G10642   3.940   5.477   9.238  0.1084 -0.0594 -0.6870
  104OSM   C12F10643   4.146   5.496   9.184  0.5316 -0.5047 -0.0880
  104OSM   H12F10644   4.246   5.511   9.231  1.7068 -4.7902 -0.9495
  104OSM   H12G10645   4.114   5.587   9.129 -3.1231 -1.6409  0.0569
  104OSM   C13F10646   4.154   5.377   9.087 -0.0490  0.2443  0.3783
  104OSM   H13F10647   4.053   5.335   9.065 -0.1061 -0.0305  1.1181
  104OSM   H13G10648   4.217   5.295   9.128  1.3611  0.5210 -1.1971
  104OSM   C14F10649   4.223   5.428   8.958 -0.1405 -0.0453 -0.4601
  104OSM   H14F10650   4.321   5.474   8.984 -1.7651  2.7739  0.8386
  104OSM   H14G10651   4.162   5.507   8.910  2.2264  1.6218 -0.8111
  104OSM   C15F10652   4.265   5.323   8.861 -0.9361  0.0086 -0.2852
  104OSM   H15F10653   4.182   5.261   8.821  0.8105 -2.4266 -0.1949
  104OSM   H15G10654   4.342   5.259   8.909  0.3386  2.7155  1.4325
  104OSM   C16F10655   4.344   5.387   8.742 -0.4366 -0.0983  0.3200
  104OSM   H16F10656   4.284   5.467   8.695  0.9390  2.4681  2.7269
  104OSM   H16G10657   4.344   5.309   8.663 -1.0624 -0.6723  0.8724
  104OSM   C17F10658   4.487   5.430   8.785 -0.7228 -0.6765  0.1340
  104OSM   H17F10659   4.533   5.351   8.848 -0.3283 -0.7962 -0.3056
  104OSM   H17G10660   4.483   5.519   8.851  0.4168  0.4838 -1.3725
  104OSM   C18F10661   4.581   5.465   8.672 -0.0545  1.1788  0.4380
  104OSM   H18F10662   4.685   5.490   8.702 -0.2537  1.3180  1.0275
  104OSM   H18G10663   4.543   5.554   8.617 -1.1878  0.1763 -0.4078
  104OSM   H18H10664   4.572   5.379   8.602  2.5019 -0.3211  1.8626
  105OSM      N10665   4.776   4.533  11.179 -0.2412  0.1736 -0.2297
  105OSM    C1510666   4.729   4.664  11.233 -0.4776  0.0329  0.6619
  105OSM   H15A10667   4.810   4.732  11.247  0.3161 -0.5989 -0.7243
  105OSM   H15B10668   4.662   4.657  11.317 -1.7966 -1.8000 -0.4830
  105OSM   H15C10669   4.675   4.706  11.149 -0.9104 -1.3419  0.2241
  105OSM    C1410670   4.876   4.573  11.071  1.0547  0.1484  0.3367
  105OSM   H14A10671   4.944   4.491  11.054  0.8549  0.1988 -0.6873
  105OSM   H14B10672   4.936   4.659  11.100  0.3552  0.8769 -0.3617
  105OSM   H14C10673   4.826   4.600  10.980  0.4265 -1.3832  0.2170
  105OSM    C1310674   4.853   4.467  11.292  0.6707  0.2422  0.0989
  105OSM   H13A10675   4.815   4.485  11.391 -1.4486 -0.1634 -0.5930
  105OSM   H13B10676   4.954   4.503  11.301  0.9384 -0.2940 -0.7107
  105OSM   H13C10677   4.852   4.361  11.271 -1.8875  0.0451  0.9613
  105OSM    C1210678   4.667   4.435  11.124 -0.0003 -0.4156  0.8918
  105OSM   H12A10679   4.590   4.424  11.199 -1.8014 -1.9404 -1.1401
  105OSM   H12B10680   4.708   4.335  11.117  1.9845  0.2928  2.0208
  105OSM    C1110681   4.599   4.479  10.992  0.2486 -0.5497 -0.2855
  105OSM   H11A10682   4.567   4.584  11.008 -0.1926 -0.5397 -1.2095
  105OSM   H11B10683   4.503   4.428  10.972 -0.2311  0.6130 -0.9978
  105OSM      P10684   4.743   4.341  10.827  0.4582 -0.3608 -0.5544
  105OSM    O1310685   4.887   4.355  10.819  0.2592 -0.1591 -0.3331
  105OSM    O1410686   4.688   4.229  10.908  0.3705 -0.3304  0.3842
  105OSM    O1110687   4.689   4.323  10.674 -0.5425  0.2583 -0.1398
  105OSM    O1210688   4.681   4.471  10.877 -0.5523  0.6037 -0.3402
  105OSM    C1S10689   4.698   4.435  10.592  0.1397  0.5392 -0.1799
  105OSM    H1S10690   4.805   4.458  10.571  0.4659 -0.0266  0.8444
  105OSM    H1T10691   4.655   4.526  10.639  0.4935 -1.0006  3.2542
  105OSM     NF10692   4.634   4.523  10.364  0.6646 -0.6364 -0.0582
  105OSM    HNF10693   4.565   4.595  10.368  1.3313 -0.0186  0.3083
  105OSM    C2S10694   4.612   4.415  10.462  0.2487 -0.0248  0.0911
  105OSM    H2S10695   4.655   4.329  10.407 -0.9648 -0.0874 -0.7583
  105OSM    C3S10696   4.466   4.391  10.505  0.7756  0.4346  0.5542
  105OSM    H3S10697   4.426   4.484  10.552  0.2488 -0.4041  1.7877
  105OSM     O310698   4.442   4.285  10.601 -0.1352 -0.0769  0.0786
  105OSM    HO310699   4.531   4.257  10.624  1.1005  3.3956 -0.2275
  105OSM    C4S10700   4.388   4.349  10.381  0.0405 -0.6141 -0.4614
  105OSM    H4S10701   4.407   4.246  10.347  1.7665  0.3638 -2.5962
  105OSM    C5S10702   4.289   4.427  10.316  1.4686  0.5572 -0.0615
  105OSM    H5S10703   4.272   4.529  10.354 -0.3267  0.0248  0.5936
  105OSM    C6S10704   4.201   4.386  10.201 -0.2123 -0.2939  0.5071
  105OSM    H6S10705   4.128   4.467  10.180  0.5086 -0.4548 -2.8816
  105OSM    H6T10706   4.136   4.297  10.214  1.0096 -1.0750  1.3856
  105OSM    C7S10707   4.276   4.348  10.069 -0.6193 -0.7147 -0.5238
  105OSM    H7S10708   4.354   4.272  10.091  0.3208  0.0121 -1.2984
  105OSM    H7T10709   4.317   4.440  10.022 -2.1852 -0.2218 -0.9404
  105OSM    C8S10710   4.179   4.286   9.973  0.4500 -0.2732 -0.4838
  105OSM    H8S10711   4.100   4.361   9.949  0.0969 -0.6503 -0.5170
  105OSM    H8T10712   4.140   4.194  10.022 -1.1996  0.7882  0.2759
  105OSM    C9S10713   4.230   4.255   9.836  0.7101 -0.4993  0.0013
  105OSM    H9S10714   4.156   4.188   9.786  1.0732 -0.6923 -0.2852
  105OSM    H9T10715   4.329   4.208   9.854  1.6552  1.4441  0.0070
  105OSM   C10S10716   4.259   4.385   9.755 -0.4278 -0.7591 -0.5111
  105OSM   H10S10717   4.345   4.436   9.802 -0.1718 -2.7764  1.2480
  105OSM   H10T10718   4.168   4.449   9.756  0.4591  0.5036  0.6689
  105OSM   C11S10719   4.299   4.341   9.605  0.4822 -0.1619 -0.2280
  105OSM   H11S10720   4.207   4.296   9.562 -0.4650 -1.8408  3.3563
  105OSM   H11T10721   4.385   4.271   9.608  0.2196 -0.4536  0.5664
  105OSM   C12S10722   4.343   4.463   9.522 -0.1367 -0.5096 -0.3903
  105OSM   H12S10723   4.430   4.514   9.569  0.2192 -1.8621  0.4257
  105OSM   H12T10724   4.257   4.533   9.519  0.4848  0.3685  1.7525
  105OSM   C13S10725   4.396   4.438   9.382 -0.4547  0.5730  0.2457
  105OSM   H13S10726   4.479   4.366   9.390 -0.5565  0.3295 -0.7867
  105OSM   H13T10727   4.439   4.531   9.340  0.5374  0.7096  1.5584
  105OSM   C14S10728   4.307   4.373   9.274  0.2507  0.4588 -0.6465
  105OSM   H14S10729   4.276   4.267   9.288  2.4401 -0.1068  0.1329
  105OSM   H14T10730   4.376   4.381   9.187  2.5211 -0.8402  0.9787
  105OSM   C15S10731   4.190   4.467   9.234  0.0825  0.5997  0.8539
  105OSM   H15S10732   4.228   4.572   9.239  2.3487 -0.1933  0.8367
  105OSM   H15T10733   4.106   4.450   9.305  0.0607  0.6084  0.8318
  105OSM   C16S10734   4.133   4.436   9.098 -0.4926  0.2216 -0.1898
  105OSM   H16S10735   4.114   4.327   9.091 -0.6353  0.2931 -0.9593
  105OSM   H16T10736   4.217   4.462   9.030  1.1856  0.1877  1.8426
  105OSM   C17S10737   4.000   4.504   9.051  0.1880 -0.2884  0.1021
  105OSM   H17S10738   4.024   4.607   9.085  1.7423 -0.1233 -1.4403
  105OSM   H17T10739   3.926   4.459   9.121  1.3601 -1.5750  0.5344
  105OSM   C18S10740   3.962   4.485   8.903 -0.8337 -0.1387  0.4962
  105OSM   H18S10741   3.870   4.548   8.907 -1.0110 -0.4217  0.9166
  105OSM   H18T10742   3.942   4.378   8.878  3.1652 -0.8695  0.1695
  105OSM   H18U10743   4.033   4.536   8.834 -1.7588  2.6726  1.5563
  105OSM    C1F10744   4.753   4.557  10.311  0.4244 -0.0688 -0.3178
  105OSM     OF10745   4.855   4.504  10.342 -0.0535  0.0827 -0.5158
  105OSM    C2F10746   4.755   4.658  10.209  0.0237  0.6094 -0.0239
  105OSM    H2F10747   4.720   4.749  10.262 -1.6984 -0.6382  1.0548
  105OSM    H2G10748   4.678   4.623  10.136 -0.1702  1.2222 -0.1160
  105OSM    C3F10749   4.893   4.665  10.136 -0.5312  0.0649 -0.3336
  105OSM    H3F10750   4.910   4.573  10.075  0.6073  0.6992 -0.9943
  105OSM    H3G10751   4.971   4.657  10.216 -0.3789 -2.5249 -0.6738
  105OSM    C4F10752   4.922   4.784  10.051  0.1009 -0.5127  0.5935
  105OSM    H4F10753   5.020   4.775  10.001 -1.2366  0.4202 -2.2999
  105OSM    H4G10754   4.918   4.879  10.108 -0.7590 -0.2148  0.0474
  105OSM    C5F10755   4.817   4.793   9.936 -0.1696  0.5984 -1.0332
  105OSM    H5F10756   4.716   4.798   9.981  0.9668 -2.3403  2.0984
  105OSM    H5G10757   4.826   4.692   9.891  3.0820  0.8151 -0.9735
  105OSM    C6F10758   4.847   4.911   9.836  0.3557  0.0001  0.6668
  105OSM    H6F10759   4.956   4.916   9.812 -0.0680 -1.1829 -1.6281
  105OSM    H6G10760   4.820   5.001   9.895  1.0248  0.1073  0.8171
  105OSM    C7F10761   4.769   4.906   9.696 -0.6209 -0.0521  0.4308
  105OSM    H7F10762   4.830   4.978   9.637  0.6066 -1.5411 -0.1730
  105OSM    H7G10763   4.668   4.951   9.701  0.8043  3.6523 -2.3541
  105OSM    C8F10764   4.768   4.759   9.626 -0.1521 -0.2405 -0.3632
  105OSM    H8F10765   4.720   4.680   9.688  3.1679 -1.9291  0.1586
  105OSM    H8G10766   4.875   4.730   9.617  0.6666  2.8509 -1.5460
  105OSM    C9F10767   4.697   4.746   9.492  0.2365  0.4131 -0.5777
  105OSM    H9F10768   4.595   4.705   9.491  0.8166 -1.0551 -0.6006
  105OSM   C10F10769   4.756   4.754   9.371  0.6689  0.6101  0.2711
  105OSM   H10F10770   4.706   4.711   9.283  2.3598 -1.6880  0.3842
  105OSM   C11F10771   4.900   4.787   9.350  0.7709 -0.4897  0.2798
  105OSM   H11F10772   4.971   4.781   9.435 -1.6361 -1.4582  2.2745
  105OSM   H11G10773   4.904   4.894   9.319  0.3481 -0.9028 -1.2408
  105OSM   C12F10774   4.965   4.696   9.250  0.7149  0.1141 -0.3001
  105OSM   H12F10775   4.919   4.696   9.149  0.3111  0.5300 -0.1183
  105OSM   H12G10776   4.954   4.595   9.294  0.0068  0.7409  0.9973
  105OSM   C13F10777   5.116   4.727   9.228  0.1930 -0.4973  0.0682
  105OSM   H13F10778   5.180   4.718   9.318 -1.2215 -0.7056  1.0668
  105OSM   H13G10779   5.115   4.835   9.204  0.5399 -0.9103 -1.8828
  105OSM   C14F10780   5.189   4.653   9.114 -0.7390  0.3734 -0.0346
  105OSM   H14F10781   5.109   4.626   9.042 -0.3024 -1.0488 -0.0025
  105OSM   H14G10782   5.231   4.560   9.158 -0.9233  0.1729 -0.2886
  105OSM   C15F10783   5.302   4.738   9.053 -0.7675 -0.1423 -0.1381
  105OSM   H15F10784   5.372   4.775   9.131  0.5724 -0.1817 -1.3065
  105OSM   H15G10785   5.258   4.831   9.010  2.2339  0.3700 -2.1972
  105OSM   C16F10786   5.385   4.662   8.948 -0.3654  0.2785  0.0280
  105OSM   H16F10787   5.311   4.627   8.873  0.1627  1.7059 -1.1951
  105OSM   H16G10788   5.440   4.575   8.990  0.7921  1.1198  0.2903
  105OSM   C17F10789   5.490   4.749   8.879  0.0681 -0.3141 -0.1917
  105OSM   H17F10790   5.444   4.841   8.836  0.0966 -0.6014 -0.8361
  105OSM   H17G10791   5.542   4.697   8.796 -0.1128 -1.1133  0.1984
  105OSM   C18F10792   5.608   4.795   8.974  0.0633 -1.3057 -0.3269
  105OSM   H18F10793   5.680   4.859   8.919  0.5341 -0.2401  1.4550
  105OSM   H18G10794   5.637   4.705   9.033  2.0978  0.5350  1.5767
  105OSM   H18H10795   5.574   4.865   9.054 -0.1276 -0.7970 -0.8568
  106OSM      N10796   5.752   2.329  10.970  0.8266 -0.0649 -0.7262
  106OSM    C1510797   5.648   2.303  10.872  0.8937  0.4837  0.1822
  106OSM   H15A10798   5.614   2.392  10.820 -1.2978  2.0408  3.9909
  106OSM   H15B10799   5.557   2.266  10.918  1.3215 -2.1105 -1.0096
  106OSM   H15C10800   5.689   2.236  10.799  2.5969  0.2697  1.3082
  106OSM    C1410801   5.712   2.454  11.057 -1.0193  0.5843 -0.2049
  106OSM   H14A10802   5.763   2.471  11.151 -1.9377  0.5379  0.3127
  106OSM   H14B10803   5.605   2.452  11.077 -0.7471 -0.4250  1.2644
  106OSM   H14C10804   5.730   2.534  10.987  1.5214 -1.2215 -1.7023
  106OSM    C1310805   5.780   2.224  11.078 -0.5314  0.5300 -0.4493
  106OSM   H13A10806   5.831   2.142  11.031 -0.1691  0.5612 -0.1092
  106OSM   H13B10807   5.691   2.185  11.127 -1.2010  1.4426 -0.9069
  106OSM   H13C10808   5.852   2.255  11.152 -0.8093 -1.3845  0.6653
  106OSM    C1210809   5.877   2.354  10.894 -0.3784 -0.0210  0.1025
  106OSM   H12A10810   5.924   2.263  10.861  1.3385  0.4163  1.3422
  106OSM   H12B10811   5.938   2.403  10.968  0.5618  1.4423 -1.6047
  106OSM    C1110812   5.872   2.453  10.779  0.0865  0.1043  0.8383
  106OSM   H11A10813   5.807   2.403  10.705 -0.3786 -3.7035  3.6362
  106OSM   H11B10814   5.974   2.465  10.736 -0.3999  0.7501 -0.1330
  106OSM      P10815   5.727   2.668  10.743 -0.0865  0.1993  0.1458
  106OSM    O1310816   5.592   2.608  10.739  0.7099 -0.7501 -0.2235
  106OSM    O1410817   5.750   2.810  10.780 -0.4884 -0.5727  0.1185
  106OSM    O1110818   5.781   2.638  10.596  0.0884  0.7923  0.6339
  106OSM    O1210819   5.820   2.573  10.826  0.0413 -0.2800 -0.1760
  106OSM    C1S10820   5.714   2.696  10.479 -0.0830 -0.7702 -0.4497
  106OSM    H1S10821   5.772   2.785  10.445 -0.0781 -1.0244 -1.1289
  106OSM    H1T10822   5.608   2.722  10.497 -0.2916 -0.4686 -2.0205
  106OSM     NF10823   5.661   2.679  10.246  0.1585 -0.3003  0.2768
  106OSM    HNF10824   5.563   2.696  10.235  0.1589 -1.8284 -2.5412
  106OSM    C2S10825   5.696   2.600  10.360  0.0394 -0.7284  0.5010
  106OSM    H2S10826   5.799   2.560  10.345  1.0740  1.6760  0.8881
  106OSM    C3S10827   5.602   2.481  10.401 -0.0766  0.1150  0.5919
  106OSM    H3S10828   5.514   2.524  10.453  0.1416  0.5631  0.5951
  106OSM     O310829   5.676   2.391  10.489  0.0650 -0.0493  0.8259
  106OSM    HO310830   5.717   2.454  10.548 -2.5859  1.5557  1.0580
  106OSM    C4S10831   5.557   2.410  10.274  0.2404 -0.0412 -0.4163
  106OSM    H4S10832   5.464   2.451  10.233  1.0904  0.5238 -1.8144
  106OSM    C5S10833   5.617   2.314  10.199 -0.0215  0.6188  0.0194
  106OSM    H5S10834   5.712   2.270  10.234  0.3969  2.0737  0.8069
  106OSM    C6S10835   5.560   2.254  10.077 -0.0457  0.0961  0.9005
  106OSM    H6S10836   5.462   2.302  10.056  0.4618  1.2674  1.1851
  106OSM    H6T10837   5.543   2.144  10.084 -0.2786  0.1974  1.9953
  106OSM    C7S10838   5.642   2.298   9.951  0.4554 -0.0589  0.3190
  106OSM    H7S10839   5.750   2.280   9.969  0.4390 -0.9888 -0.4216
  106OSM    H7T10840   5.628   2.397   9.903  3.1715 -1.0877 -2.8145
  106OSM    C8S10841   5.592   2.204   9.836  0.2571 -0.4006  1.2543
  106OSM    H8S10842   5.484   2.221   9.816 -0.1780 -3.1053  1.1223
  106OSM    H8T10843   5.599   2.101   9.874 -0.7383 -1.3154 -0.9322
  106OSM    C9S10844   5.679   2.218   9.709 -0.2354 -0.1112  0.0497
  106OSM    H9S10845   5.786   2.209   9.735 -0.3353 -0.5853  0.2978
  106OSM    H9T10846   5.678   2.324   9.677 -0.2953  0.1119  0.7973
  106OSM   C10S10847   5.640   2.128   9.594  0.8456  0.3683 -0.6206
  106OSM   H10S10848   5.530   2.135   9.577  0.4520 -0.6913  1.3341
  106OSM   H10T10849   5.663   2.025   9.627  1.1367  0.7313  0.3305
  106OSM   C11S10850   5.715   2.161   9.460  0.3686  0.6225 -0.0639
  106OSM   H11S10851   5.821   2.186   9.485  0.3655  1.3646 -0.7445
  106OSM   H11T10852   5.672   2.253   9.414 -0.0431  1.2004  1.4521
  106OSM   C12S10853   5.710   2.050   9.346 -0.9871  0.3454 -0.0977
  106OSM   H12S10854   5.606   2.014   9.338  0.3846 -4.2065  1.1048
  106OSM   H12T10855   5.774   1.964   9.377 -1.0290  0.3666  0.0452
  106OSM   C13S10856   5.745   2.111   9.210 -0.2064 -0.5283  0.1455
  106OSM   H13S10857   5.849   2.151   9.213 -0.6844  0.7397  0.0309
  106OSM   H13T10858   5.671   2.191   9.186  0.2396  0.3432  1.6322
  106OSM   C14S10859   5.739   2.012   9.096  0.0665 -0.1846  0.9631
  106OSM   H14S10860   5.631   2.000   9.073 -0.2608  2.2012  1.1459
  106OSM   H14T10861   5.778   1.919   9.143  2.9547  0.3331 -0.3119
  106OSM   C15S10862   5.810   2.049   8.961  0.7867 -0.6772 -0.4613
  106OSM   H15S10863   5.781   2.156   8.957 -0.2959 -0.9432  0.0956
  106OSM   H15T10864   5.779   1.998   8.868  0.0345  1.1092 -1.2096
  106OSM   C16S10865   5.958   2.036   8.965 -0.0651  0.4129 -0.8501
  106OSM   H16S10866   5.992   1.932   8.983 -0.9519  0.5371  1.6312
  106OSM   H16T10867   5.993   2.085   9.058 -1.2817 -0.0982 -0.0999
  106OSM   C17S10868   6.032   2.088   8.837  0.1807  0.0719  0.6612
  106OSM   H17S10869   5.986   2.189   8.832  0.6915  0.3935  2.2490
  106OSM   H17T10870   6.003   2.045   8.739  0.7279  4.5780 -1.5844
  106OSM   C18S10871   6.188   2.095   8.833  0.1051 -0.5169 -0.6103
  106OSM   H18S10872   6.220   2.183   8.774  0.0078  2.2137  3.2080
  106OSM   H18T10873   6.236   2.000   8.800  0.4311 -0.5895  0.0561
  106OSM   H18U10874   6.216   2.115   8.939 -3.6781  1.4043  0.1250
  106OSM    C1F10875   5.747   2.752  10.166  0.2543  0.4494  0.1500
  106OSM     OF10876   5.867   2.743  10.189  0.0183  0.1393  0.0493
  106OSM    C2F10877   5.688   2.841  10.059 -0.2673  0.0051  0.5497
  106OSM    H2F10878   5.667   2.941  10.103  0.2561 -0.2526  1.3856
  106OSM    H2G10879   5.588   2.793  10.043  0.1469 -0.0860 -1.9349
  106OSM    C3F10880   5.776   2.856   9.936  0.3878 -0.1426 -0.2903
  106OSM    H3F10881   5.877   2.895   9.961  0.0352 -0.5139  1.7797
  106OSM    H3G10882   5.722   2.928   9.872  2.8858  1.7423 -0.3361
  106OSM    C4F10883   5.793   2.732   9.845 -0.3725  0.2265  0.0272
  106OSM    H4F10884   5.694   2.693   9.811 -0.1635 -0.2619 -0.0316
  106OSM    H4G10885   5.830   2.645   9.904  1.2605  1.2390  0.5253
  106OSM    C5F10886   5.883   2.736   9.723 -0.1785 -0.5223  0.0523
  106OSM    H5F10887   5.910   2.632   9.693 -0.1687 -0.3860 -0.4129
  106OSM    H5G10888   5.981   2.784   9.743  0.9606 -1.1863 -3.5172
  106OSM    C6F10889   5.817   2.811   9.604 -0.4727  0.1799 -0.3242
  106OSM    H6F10890   5.706   2.812   9.602 -0.5330 -1.1499  0.9647
  106OSM    H6G10891   5.868   2.765   9.516  0.9237 -0.9167  1.0204
  106OSM    C7F10892   5.858   2.964   9.595  0.4607  0.2705 -0.1839
  106OSM    H7F10893   5.965   2.986   9.577  0.6873 -1.0983 -0.5615
  106OSM    H7G10894   5.829   3.012   9.691 -1.0715 -0.2258 -0.3805
  106OSM    C8F10895   5.775   3.028   9.486 -0.1594  0.0980  0.4052
  106OSM    H8F10896   5.780   3.137   9.509 -1.7324  0.1574  0.5565
  106OSM    H8G10897   5.666   3.004   9.487 -0.5853  1.9005 -0.3723
  106OSM    C9F10898   5.841   2.999   9.348 -0.1260 -0.1486  0.2019
  106OSM    H9F10899   5.810   2.911   9.289 -0.5110  0.6722 -0.8232
  106OSM   C10F10900   5.915   3.086   9.278 -0.3287 -1.1532  0.6012
  106OSM   H10F10901   5.950   3.054   9.179 -0.9736 -0.7302  0.2316
  106OSM   C11F10902   5.961   3.215   9.340 -0.6301  0.0658 -0.0128
  106OSM   H11F10903   6.031   3.184   9.422  1.1315  0.6859 -1.2474
  106OSM   H11G10904   5.876   3.274   9.382 -0.1824 -0.4217  1.6434
  106OSM   C12F10905   6.047   3.309   9.247 -0.3204  0.8481  0.0533
  106OSM   H12F10906   5.977   3.370   9.187 -0.9901 -1.0945 -1.1882
  106OSM   H12G10907   6.108   3.246   9.178  2.9409  0.5710  3.0445
  106OSM   C13F10908   6.142   3.394   9.333 -0.6190 -0.7230 -0.4468
  106OSM   H13F10909   6.223   3.338   9.384 -0.5836 -0.6438 -0.4175
  106OSM   H13G10910   6.083   3.446   9.412 -0.8895  0.8103 -1.6338
  106OSM   C14F10911   6.215   3.509   9.259  0.2082 -0.5109  0.0024
  106OSM   H14F10912   6.141   3.591   9.250  0.0229 -0.7932 -1.1958
  106OSM   H14G10913   6.251   3.470   9.161  0.4335  0.0434 -0.1346
  106OSM   C15F10914   6.331   3.568   9.337  0.5368  0.4471  0.7091
  106OSM   H15F10915   6.378   3.651   9.281 -0.5018  0.6616  0.1351
  106OSM   H15G10916   6.421   3.503   9.341 -0.5634 -1.0859  1.1539
  106OSM   C16F10917   6.283   3.620   9.471 -0.0997 -0.1827  0.0417
  106OSM   H16F10918   6.232   3.541   9.531  0.6216  0.2941  1.3081
  106OSM   H16G10919   6.212   3.702   9.450  2.2145  1.8923  0.1530
  106OSM   C17F10920   6.398   3.668   9.559  0.7040 -0.1960  0.0477
  106OSM   H17F10921   6.422   3.769   9.520  1.4044 -1.7182 -3.6673
  106OSM   H17G10922   6.480   3.596   9.543  0.9160 -0.1463  0.9197
  106OSM   C18F10923   6.363   3.679   9.709 -0.8116 -0.0856 -0.6388
  106OSM   H18F10924   6.287   3.760   9.715  0.2954  1.1547 -2.6311
  106OSM   H18G10925   6.458   3.705   9.761  1.0117 -2.5129 -2.6194
  106OSM   H18H10926   6.326   3.583   9.750  0.3022 -1.0854 -1.9246
  107OSM      N10927   5.790   0.743  10.825  0.1499 -0.2601  0.1144
  107OSM    C1510928   5.649   0.689  10.807  0.5876  0.2994 -0.3873
  107OSM   H15A10929   5.661   0.588  10.773  0.1546  0.8294 -2.1293
  107OSM   H15B10930   5.604   0.739  10.723  1.0113  0.5548 -0.4634
  107OSM   H15C10931   5.580   0.709  10.888 -0.1411 -2.8707 -0.1805
  107OSM    C1410932   5.775   0.894  10.831 -0.2701  0.3357 -0.4072
  107OSM   H14A10933   5.877   0.929  10.843  0.6365 -1.4398 -2.4260
  107OSM   H14B10934   5.717   0.912  10.919 -0.0040 -3.5371  0.6530
  107OSM   H14C10935   5.732   0.928  10.738  0.0206 -0.8410 -0.9934
  107OSM    C1310936   5.843   0.704  10.952 -0.2531  0.4461  0.2390
  107OSM   H13A10937   5.859   0.597  10.954 -0.6414  0.3990  0.7863
  107OSM   H13B10938   5.777   0.727  11.035 -0.6638 -2.1722  0.6960
  107OSM   H13C10939   5.939   0.752  10.966  0.5743 -0.9411 -0.6200
  107OSM    C1210940   5.865   0.703  10.703  0.6699 -0.3691 -0.0538
  107OSM   H12A10941   5.801   0.733  10.622  0.4438  1.7396  0.8594
  107OSM   H12B10942   5.876   0.595  10.704  2.2552 -0.2275  0.8148
  107OSM    C1110943   6.005   0.749  10.691 -0.7213  0.1846 -0.3226
  107OSM   H11A10944   5.999   0.859  10.707  0.1104  0.4188 -1.4909
  107OSM   H11B10945   6.045   0.752  10.587  1.4876 -1.2174  0.4658
  107OSM      P10946   6.225   0.742  10.822 -0.0332 -0.0756  0.6339
  107OSM    O1310947   6.227   0.882  10.861 -0.0773 -0.4143 -0.1141
  107OSM    O1410948   6.279   0.641  10.920 -0.2665 -0.4669  0.3975
  107OSM    O1110949   6.288   0.741  10.680 -0.4491  0.2380  0.4666
  107OSM    O1210950   6.088   0.682  10.787 -0.3911 -0.5080 -0.0659
  107OSM    C1S10951   6.333   0.622  10.613 -0.2313 -0.3629 -0.0527
  107OSM    H1S10952   6.254   0.544  10.616  0.4623 -1.0340  0.8716
  107OSM    H1T10953   6.434   0.592  10.650 -0.7354  0.4733  2.0129
  107OSM     NF10954   6.346   0.538  10.378  0.1964 -0.0708 -0.2332
  107OSM    HNF10955   6.433   0.493  10.360  0.7182  1.1525 -0.7769
  107OSM    C2S10956   6.349   0.662  10.458  0.0735  0.3746 -0.1418
  107OSM    H2S10957   6.258   0.725  10.443 -1.2668 -1.2197  1.0303
  107OSM    C3S10958   6.483   0.738  10.431  0.3663 -0.5056  0.4741
  107OSM    H3S10959   6.560   0.677  10.484  0.8601  0.3237  0.7166
  107OSM     O310960   6.480   0.870  10.481  0.3581 -0.2232  0.5884
  107OSM    HO310961   6.410   0.875  10.547 -0.5943  0.5161 -0.4703
  107OSM    C4S10962   6.508   0.748  10.281  0.7136 -0.6189  0.3317
  107OSM    H4S10963   6.430   0.793  10.218  1.5816  0.4989  0.0285
  107OSM    C5S10964   6.629   0.712  10.228 -0.3178  0.1330 -1.4414
  107OSM    H5S10965   6.705   0.677  10.299 -1.0687  2.5112  0.6242
  107OSM    C6S10966   6.664   0.734  10.082 -0.7041 -0.2246  0.7213
  107OSM    H6S10967   6.766   0.696  10.060 -0.2250  1.7534 -0.6287
  107OSM    H6T10968   6.665   0.844  10.065 -0.5995 -0.8556 -4.2027
  107OSM    C7S10969   6.569   0.667   9.988 -0.6144  0.0134 -0.2576
  107OSM    H7S10970   6.469   0.714   9.994 -0.9196 -0.8704  2.0543
  107OSM    H7T10971   6.550   0.562  10.018  1.1758  0.3034  2.1005
  107OSM    C8S10972   6.614   0.679   9.836 -0.4920 -0.1515 -0.9801
  107OSM    H8S10973   6.715   0.634   9.833 -0.3350  0.1612 -0.4600
  107OSM    H8T10974   6.627   0.787   9.812 -2.7757  0.3144 -0.2977
  107OSM    C9S10975   6.526   0.608   9.739  0.4296 -0.5087 -0.3026
  107OSM    H9S10976   6.459   0.688   9.700  0.0126  0.0929  1.6036
  107OSM    H9T10977   6.468   0.520   9.777  0.4367 -0.0827  0.7051
  107OSM   C10S10978   6.586   0.559   9.613  0.0124 -0.0383 -0.2382
  107OSM   H10S10979   6.674   0.495   9.633  0.2102  0.2900 -0.0502
  107OSM   H10T10980   6.606   0.649   9.551 -1.4578  0.9167  0.6300
  107OSM   C11S10981   6.494   0.463   9.530 -0.1355  0.4188  0.4225
  107OSM   H11S10982   6.389   0.500   9.524 -0.6746 -1.3426 -1.9785
  107OSM   H11T10983   6.491   0.367   9.584  1.2104  0.5156  0.6813
  107OSM   C12S10984   6.555   0.426   9.397 -0.8660  0.3446  0.0500
  107OSM   H12S10985   6.531   0.318   9.389  2.0322 -0.2488 -1.4303
  107OSM   H12T10986   6.665   0.424   9.415 -0.4716  1.5464 -2.0681
  107OSM   C13S10987   6.491   0.496   9.278 -0.1173  0.7281  0.0604
  107OSM   H13S10988   6.514   0.602   9.304 -1.0167  0.8134  0.5301
  107OSM   H13T10989   6.382   0.478   9.267 -0.4581  2.0138  1.1841
  107OSM   C14S10990   6.572   0.465   9.153  0.4545 -0.2510 -0.1165
  107OSM   H14S10991   6.515   0.489   9.061 -0.9830 -2.0831  0.2716
  107OSM   H14T10992   6.588   0.355   9.153  0.4443 -0.2519 -0.3629
  107OSM   C15S10993   6.707   0.534   9.145  1.3076 -0.2490  0.0890
  107OSM   H15S10994   6.741   0.552   9.249 -0.8661  1.5209  0.5468
  107OSM   H15T10995   6.703   0.638   9.105  1.9332 -1.1310 -2.3927
  107OSM   C16S10996   6.808   0.460   9.058 -0.4931  0.0735 -0.0918
  107OSM   H16S10997   6.846   0.368   9.107 -1.8428 -0.9964 -1.0202
  107OSM   H16T10998   6.896   0.526   9.046 -1.8501  2.0947  0.7081
  107OSM   C17S10999   6.752   0.435   8.916 -0.5146  0.2347  0.1147
  107OSM   H17S11000   6.706   0.529   8.877 -2.2463  0.1628  1.8745
  107OSM   H17T11001   6.660   0.375   8.934 -1.2227  1.2949  0.0454
  107OSM   C18S11002   6.863   0.377   8.823  0.5769  0.3846 -0.4225
  107OSM   H18S11003   6.882   0.273   8.857 -1.1289  1.2302  3.3551
  107OSM   H18T11004   6.948   0.447   8.838  1.1942 -0.7164  1.4102
  107OSM   H18U11005   6.830   0.360   8.719  2.1775 -2.1705 -0.5567
  107OSM    C1F11006   6.228   0.481  10.345 -0.6127  0.4785  0.1363
  107OSM     OF11007   6.117   0.509  10.392 -0.2265  0.7615 -0.5143
  107OSM    C2F11008   6.252   0.372  10.245 -0.6629  0.2686 -0.1291
  107OSM    H2F11009   6.287   0.284  10.302  0.7886  2.0924  1.8870
  107OSM    H2G11010   6.342   0.396  10.185 -0.0857  0.5522  0.8458
  107OSM    C3F11011   6.125   0.355  10.157  0.1228  0.2988  0.0416
  107OSM    H3F11012   6.111   0.442  10.089 -2.4896  0.5861  0.8727
  107OSM    H3G11013   6.032   0.343  10.217  0.5035  1.5589  0.8990
  107OSM    C4F11014   6.143   0.235  10.061 -0.4959 -0.2467 -0.6525
  107OSM    H4F11015   6.046   0.199  10.020 -0.5213  0.4475 -1.2206
  107OSM    H4G11016   6.189   0.153  10.120  0.1014  0.9486  0.5738
  107OSM    C5F11017   6.237   0.273   9.949 -0.2355 -0.1679 -0.7098
  107OSM    H5F11018   6.335   0.293   9.997  0.6798 -1.4086 -2.0109
  107OSM    H5G11019   6.188   0.362   9.905  0.7321  1.6231  1.7102
  107OSM    C6F11020   6.261   0.173   9.840 -1.1156  0.0624 -0.0736
  107OSM    H6F11021   6.336   0.227   9.779  1.0377 -1.9587  0.6839
  107OSM    H6G11022   6.162   0.166   9.790 -0.2851 -3.5419 -1.3219
  107OSM    C7F11023   6.302   0.037   9.892 -0.3208 -0.3652 -0.2275
  107OSM    H7F11024   6.229  -0.003   9.965  0.8272  0.9344  1.6819
  107OSM    H7G11025   6.402   0.047   9.941 -0.5193 -0.9723  0.3057
  107OSM    C8F11026   6.310  -0.059   9.774  0.7788  0.2887 -0.0422
  107OSM    H8F11027   6.355  -0.157   9.803 -0.1719  0.4533  2.0617
  107OSM    H8G11028   6.370  -0.007   9.696 -0.7716 -0.3452 -1.6826
  107OSM    C9F11029   6.174  -0.092   9.722  0.4368 -0.5370  0.3276
  107OSM    H9F11030   6.090  -0.083   9.792  0.0808 -0.8242 -0.0547
  107OSM   C10F11031   6.145  -0.104   9.590  0.5097  0.0301 -0.0700
  107OSM   H10F11032   6.041  -0.122   9.560  0.6231  1.9144 -1.7569
  107OSM   C11F11033   6.242  -0.114   9.478 -0.3939  0.6307 -0.8070
  107OSM   H11F11034   6.210  -0.209   9.431  1.4816 -0.3330 -0.1689
  107OSM   H11G11035   6.347  -0.132   9.507 -1.4354 -2.8447  1.0250
  107OSM   C12F11036   6.238   0.014   9.382  0.2081  0.0369  0.6424
  107OSM   H12F11037   6.244   0.105   9.447  2.4008  0.7392 -0.4769
  107OSM   H12G11038   6.143   0.017   9.325  0.9748  0.3399 -0.6362
  107OSM   C13F11039   6.347   0.009   9.281  1.0415  0.2158 -0.5862
  107OSM   H13F11040   6.439   0.039   9.336 -0.5112 -0.8192  2.6675
  107OSM   H13G11041   6.338   0.098   9.215  1.9318 -0.3281 -1.4493
  107OSM   C14F11042   6.366  -0.118   9.199 -0.0011  0.0350  0.8178
  107OSM   H14F11043   6.384  -0.203   9.269 -1.7448 -0.8165  0.2597
  107OSM   H14G11044   6.465  -0.116   9.147  0.9253  2.3589  2.5710
  107OSM   C15F11045   6.241  -0.143   9.112  0.1280  0.5076  0.0672
  107OSM   H15F11046   6.229  -0.058   9.042 -2.5729  0.8710  0.9377
  107OSM   H15G11047   6.151  -0.167   9.172  0.9290  2.7685  2.2596
  107OSM   C16F11048   6.253  -0.272   9.025 -0.5088 -0.5836  0.7210
  107OSM   H16F11049   6.285  -0.357   9.089  1.1985 -1.0080 -0.6618
  107OSM   H16G11050   6.332  -0.254   8.948  0.2126  0.0495  1.5969
  107OSM   C17F11051   6.119  -0.323   8.950  0.0159 -0.0090  0.1367
  107OSM   H17F11052   6.150  -0.395   8.870 -0.8168  0.3947 -0.5589
  107OSM   H17G11053   6.069  -0.243   8.891  0.7967 -0.0056 -0.5276
  107OSM   C18F11054   6.018  -0.389   9.046 -0.6771 -0.7676 -0.4283
  107OSM   H18F11055   5.968  -0.482   9.012 -3.5914  0.7244 -0.4339
  107OSM   H18G11056   5.946  -0.311   9.081 -0.9090 -0.2504 -1.9898
  107OSM   H18H11057   6.075  -0.417   9.137 -0.9081 -3.1615 -0.9901
  108OSM      N11058   3.491   4.284  11.103  0.2808  0.1655 -0.3020
  108OSM    C1511059   3.570   4.265  11.231  0.2019 -0.3520 -0.3949
  108OSM   H15A11060   3.534   4.332  11.308 -1.6259 -2.4653  0.6692
  108OSM   H15B11061   3.676   4.272  11.211  0.1002  0.7862 -0.5871
  108OSM   H15C11062   3.548   4.167  11.271  1.5160 -1.4113 -2.1865
  108OSM    C1411063   3.500   4.426  11.070  0.1660  0.4329 -0.1422
  108OSM   H14A11064   3.601   4.447  11.036  0.7743 -2.1734 -0.0605
  108OSM   H14B11065   3.473   4.493  11.150 -0.9168  1.5256 -1.3950
  108OSM   H14C11066   3.444   4.456  10.982 -1.6652 -2.6443 -0.0698
  108OSM    C1311067   3.563   4.196  11.005 -0.2318 -0.1979  0.7905
  108OSM   H13A11068   3.516   4.197  10.908 -0.4244 -2.1100  0.8600
  108OSM   H13B11069   3.564   4.092  11.032 -1.3704 -0.6573 -0.8715
  108OSM   H13C11070   3.661   4.239  10.985  0.5699 -1.5794  1.6528
  108OSM    C1211071   3.351   4.243  11.128  0.9808  0.5693  0.3027
  108OSM   H12A11072   3.300   4.307  11.199 -0.7691 -0.2396 -0.2011
  108OSM   H12B11073   3.345   4.146  11.174 -2.0142  0.6035  0.1096
  108OSM    C1111074   3.260   4.241  11.001  0.1036  0.2988  0.5388
  108OSM   H11A11075   3.264   4.344  10.959  0.7179  0.0263 -0.0837
  108OSM   H11B11076   3.159   4.224  11.044 -0.3731 -0.8551 -0.9795
  108OSM      P11077   3.260   3.997  10.925  0.0293  0.0369  0.3563
  108OSM    O1311078   3.358   3.908  10.868  0.4366  0.1294 -0.4470
  108OSM    O1411079   3.238   3.983  11.070  0.0682 -0.7891 -0.5092
  108OSM    O1111080   3.113   3.976  10.865  0.5358 -0.0974  0.4267
  108OSM    O1211081   3.296   4.151  10.893  0.3966  0.0372 -0.0699
  108OSM    C1S11082   3.063   4.031  10.743 -0.4838  0.0477  0.4403
  108OSM    H1S11083   3.102   4.135  10.735 -1.7237  0.5489  0.8827
  108OSM    H1T11084   2.953   4.033  10.759 -0.4817 -2.8097  1.0488
  108OSM     NF11085   3.060   4.030  10.497 -0.6617  0.0879  0.5535
  108OSM    HNF11086   2.968   4.001  10.474 -1.2560  2.6843 -0.4265
  108OSM    C2S11087   3.109   3.955  10.612  0.3384 -0.4787 -0.3722
  108OSM    H2S11088   3.219   3.963  10.612  0.2717  0.6654 -1.2794
  108OSM    C3S11089   3.067   3.803  10.616  0.2787 -0.5623 -0.7805
  108OSM    H3S11090   2.957   3.790  10.623  0.5340 -1.6064  1.5386
  108OSM     O311091   3.114   3.740  10.739 -0.2371 -0.4573  0.4706
  108OSM    HO311092   3.175   3.805  10.773  0.2256 -0.1003 -1.0065
  108OSM    C4S11093   3.118   3.736  10.487  0.2344 -0.0809 -0.0068
  108OSM    H4S11094   3.227   3.724  10.481  0.2899 -0.8153  1.9517
  108OSM    C5S11095   3.050   3.687  10.391  0.2269  0.2730 -0.4941
  108OSM    H5S11096   2.940   3.692  10.394  0.3308  2.4628  0.2670
  108OSM    C6S11097   3.102   3.628  10.262  0.7206 -0.5616 -0.1129
  108OSM    H6S11098   3.023   3.659  10.191  0.1678  0.8613  1.1133
  108OSM    H6T11099   3.086   3.518  10.274  0.3852 -0.7726 -2.2935
  108OSM    C7S11100   3.242   3.656  10.210 -0.0953 -0.1523  0.3270
  108OSM    H7S11101   3.284   3.582  10.138 -1.6987 -0.0616 -0.7393
  108OSM    H7T11102   3.317   3.661  10.291 -0.6102  2.5925  0.6832
  108OSM    C8S11103   3.252   3.796  10.145 -0.3349 -0.2643  0.4512
  108OSM    H8S11104   3.251   3.867  10.230  2.6010 -1.7474  1.7757
  108OSM    H8T11105   3.166   3.812  10.076 -0.6071  1.5383  1.1907
  108OSM    C9S11106   3.371   3.810  10.058  0.4680 -0.3417  0.4647
  108OSM    H9S11107   3.459   3.749  10.091  1.5200  0.8526 -0.0749
  108OSM    H9T11108   3.409   3.913  10.042  0.8980 -0.2231  2.1282
  108OSM   C10S11109   3.348   3.746   9.914 -0.1478  0.1709  0.4147
  108OSM   H10S11110   3.252   3.784   9.873  1.3423  1.8183 -1.6281
  108OSM   H10T11111   3.342   3.638   9.942  3.1133 -0.5147 -1.2818
  108OSM   C11S11112   3.471   3.773   9.825  0.3187  0.3036  0.1470
  108OSM   H11S11113   3.553   3.714   9.870 -1.3370 -2.0734  0.1712
  108OSM   H11T11114   3.501   3.880   9.826  3.2443 -0.4314 -2.5281
  108OSM   C12S11115   3.451   3.715   9.683  0.3309  0.5336  0.3690
  108OSM   H12S11116   3.361   3.759   9.634 -0.7211 -0.0559  1.7441
  108OSM   H12T11117   3.405   3.616   9.702  0.1340  0.8166  1.4000
  108OSM   C13S11118   3.580   3.729   9.603 -0.0124  0.0078  0.3673
  108OSM   H13S11119   3.669   3.701   9.663  1.7919  1.8835 -1.3548
  108OSM   H13T11120   3.587   3.837   9.579  1.1259  0.2077  1.5778
  108OSM   C14S11121   3.558   3.664   9.463 -0.9201 -0.0309 -0.0736
  108OSM   H14S11122   3.461   3.686   9.415 -0.5245  0.8700 -0.4533
  108OSM   H14T11123   3.558   3.552   9.461 -0.1566 -0.0062 -1.6423
  108OSM   C15S11124   3.658   3.724   9.362  0.4304 -0.1032 -0.0807
  108OSM   H15S11125   3.764   3.718   9.395 -0.0553  2.2742  2.0752
  108OSM   H15T11126   3.638   3.833   9.354  2.9002  0.4250  0.3077
  108OSM   C16S11127   3.636   3.671   9.216  0.0016  0.1810 -0.1093
  108OSM   H16S11128   3.527   3.660   9.198  0.1728 -1.2006 -0.3494
  108OSM   H16T11129   3.690   3.574   9.206  0.8410  0.5178  1.0554
  108OSM   C17S11130   3.693   3.765   9.105  0.5158  0.0140  0.4713
  108OSM   H17S11131   3.797   3.795   9.130  0.9360 -0.4152 -0.7250
  108OSM   H17T11132   3.635   3.859   9.092  1.3577  0.4165 -0.4350
  108OSM   C18S11133   3.706   3.701   8.963 -0.5382 -0.9693  0.0706
  108OSM   H18S11134   3.612   3.643   8.949 -1.0332  0.3482 -2.5332
  108OSM   H18T11135   3.789   3.628   8.953 -0.9689 -1.1867 -2.3146
  108OSM   H18U11136   3.705   3.777   8.882 -1.2715 -0.5509  0.4656
  108OSM    C1F11137   3.111   4.148  10.458 -0.5961  0.1107 -0.2675
  108OSM     OF11138   3.225   4.190  10.496  0.4275  0.3396 -0.2130
  108OSM    C2F11139   3.033   4.222  10.352 -0.2330 -0.1182 -0.1535
  108OSM    H2F11140   3.066   4.328  10.350  0.0069 -0.1867  0.3711
  108OSM    H2G11141   2.928   4.214  10.387 -0.3791 -1.6378 -0.8777
  108OSM    C3F11142   3.073   4.165  10.213  0.9667  0.3349 -0.6285
  108OSM    H3F11143   3.044   4.058  10.216 -1.2762  0.9683  1.8966
  108OSM    H3G11144   3.182   4.176  10.192  0.5684  0.9894 -2.4367
  108OSM    C4F11145   3.007   4.242  10.097 -0.7488  0.2587 -0.0886
  108OSM    H4F11146   3.042   4.347  10.086  1.1306 -0.3201  0.1397
  108OSM    H4G11147   2.899   4.256  10.118 -0.8011 -0.0135 -0.1766
  108OSM    C5F11148   3.021   4.162   9.965 -0.2324 -0.3116 -0.2984
  108OSM    H5F11149   2.947   4.195   9.891 -0.5993  3.1481  1.5331
  108OSM    H5G11150   3.011   4.053   9.988  0.9426 -0.1328  1.1912
  108OSM    C6F11151   3.164   4.157   9.902 -0.7573 -0.4756 -0.0111
  108OSM    H6F11152   3.241   4.124   9.976 -1.1678  3.1546  2.1127
  108OSM    H6G11153   3.204   4.252   9.861  0.4624 -2.0362 -2.6276
  108OSM    C7F11154   3.167   4.056   9.792  0.4123  0.0475  0.5387
  108OSM    H7F11155   3.099   3.974   9.822  1.0462 -0.5955  0.2261
  108OSM    H7G11156   3.265   4.007   9.772  1.2163  0.0114  4.2357
  108OSM    C8F11157   3.112   4.110   9.656 -0.4433 -0.0098  0.0198
  108OSM    H8F11158   3.025   4.179   9.669  0.2209  0.5717  1.5087
  108OSM    H8G11159   3.092   4.018   9.597  1.0210 -0.9427  0.9449
  108OSM    C9F11160   3.212   4.206   9.593  0.0338 -0.2611 -0.5415
  108OSM    H9F11161   3.199   4.307   9.633 -3.0190 -0.1872 -1.5297
  108OSM   C10F11162   3.307   4.171   9.506  0.0118  0.0450  0.3766
  108OSM   H10F11163   3.374   4.251   9.468  1.5797 -1.8671 -1.0012
  108OSM   C11F11164   3.330   4.028   9.450 -0.5856 -0.2135 -0.2964
  108OSM   H11F11165   3.295   3.954   9.525  0.4157  1.5814  1.9879
  108OSM   H11G11166   3.440   4.011   9.443 -0.1442  2.5244 -0.4142
  108OSM   C12F11167   3.271   3.985   9.318 -0.7515  0.9988 -0.1260
  108OSM   H12F11168   3.163   3.958   9.318 -0.6319  0.5096 -0.4672
  108OSM   H12G11169   3.327   3.895   9.285 -0.5314  0.4925  1.5555
  108OSM   C13F11170   3.283   4.097   9.209  0.3532  1.0260 -0.4592
  108OSM   H13F11171   3.378   4.155   9.202 -0.8053  2.7686 -2.5491
  108OSM   H13G11172   3.206   4.172   9.237 -0.6155 -0.8875  2.2148
  108OSM   C14F11173   3.262   4.033   9.074  0.2426 -0.2180 -0.0442
  108OSM   H14F11174   3.165   3.979   9.079 -0.4257  0.9042 -0.5975
  108OSM   H14G11175   3.341   3.957   9.058  0.2872 -0.3748  0.9379
  108OSM   C15F11176   3.257   4.134   8.951 -0.2466  1.2732  0.8244
  108OSM   H15F11177   3.342   4.204   8.965  0.0112  0.9944  0.6615
  108OSM   H15G11178   3.159   4.183   8.968 -1.9114 -1.7721  0.4016
  108OSM   C16F11179   3.266   4.061   8.813 -0.4243 -0.3102 -0.9933
  108OSM   H16F11180   3.278   4.142   8.739  0.9610  0.3878 -0.0132
  108OSM   H16G11181   3.176   4.000   8.789 -1.4995 -0.0482  2.0490
  108OSM   C17F11182   3.395   3.976   8.796  0.1642 -0.0483  0.1201
  108OSM   H17F11183   3.381   3.893   8.868 -0.5782 -0.3754 -0.3975
  108OSM   H17G11184   3.487   4.031   8.827 -0.8935  0.6872  2.0759
  108OSM   C18F11185   3.427   3.920   8.663 -0.1259 -0.2603  0.4607
  108OSM   H18F11186   3.433   4.006   8.593  2.9681 -0.5308  0.3019
  108OSM   H18G11187   3.360   3.837   8.633 -0.5201  0.1906  0.0925
  108OSM   H18H11188   3.534   3.890   8.663  0.3463  1.3265  1.0665
  109OSM      N11189   3.428   5.211  10.693  0.0498 -0.2620 -0.4604
  109OSM    C1511190   3.411   5.171  10.553 -0.5203  0.1195  0.3443
  109OSM   H15A11191   3.310   5.148  10.521 -0.9506  3.0596 -0.4867
  109OSM   H15B11192   3.468   5.081  10.536  1.6454  1.1866  1.7033
  109OSM   H15C11193   3.440   5.244  10.480  1.0547 -1.4075 -0.5689
  109OSM    C1411194   3.352   5.335  10.694  0.1234 -0.5873 -0.0187
  109OSM   H14A11195   3.416   5.415  10.661 -0.4011 -0.2639 -0.2589
  109OSM   H14B11196   3.324   5.365  10.795 -1.4809  0.2831 -0.7002
  109OSM   H14C11197   3.261   5.318  10.638  0.1907 -0.2000 -0.2446
  109OSM    C1311198   3.370   5.117  10.794 -0.4897  0.3787  0.1420
  109OSM   H13A11199   3.434   5.032  10.810 -1.3985 -0.4869 -0.7219
  109OSM   H13B11200   3.275   5.083  10.757 -0.7623 -0.6380  1.7612
  109OSM   H13C11201   3.355   5.168  10.888  0.8930  2.0571 -0.5157
  109OSM    C1211202   3.575   5.241  10.725 -0.2576 -0.0478 -0.7079
  109OSM   H12A11203   3.580   5.257  10.832 -0.9681  0.3715 -0.7336
  109OSM   H12B11204   3.594   5.336  10.678  1.6853 -0.8317 -1.5553
  109OSM    C1111205   3.676   5.127  10.684  0.3296  0.3320 -0.5634
  109OSM   H11A11206   3.642   5.069  10.595  0.1870 -0.2853 -0.1084
  109OSM   H11B11207   3.674   5.057  10.770  0.1700 -0.9442 -1.5895
  109OSM      P11208   3.911   5.147  10.572  0.1575 -0.3139 -0.6116
  109OSM    O1311209   4.033   5.213  10.617 -0.1826 -0.2611  0.0817
  109OSM    O1411210   3.924   4.999  10.557 -0.2172 -0.0515  0.0223
  109OSM    O1111211   3.856   5.205  10.443  0.2525  0.7179 -0.0257
  109OSM    O1211212   3.801   5.179  10.680 -0.2756  0.2564 -0.4309
  109OSM    C1S11213   3.833   5.349  10.435  0.2802  0.8621 -0.0210
  109OSM    H1S11214   3.928   5.406  10.433  0.5537  0.3685 -1.3339
  109OSM    H1T11215   3.772   5.392  10.517  2.0819  1.4509  1.0384
  109OSM     NF11216   3.744   5.525  10.277  0.3602  0.3029 -0.0608
  109OSM    HNF11217   3.657   5.553  10.317  1.4710 -0.9265  3.4430
  109OSM    C2S11218   3.765   5.386  10.297  0.0770 -0.1137  0.7602
  109OSM    H2S11219   3.824   5.356  10.208 -0.3101 -0.8035  0.7335
  109OSM    C3S11220   3.632   5.298  10.291  0.0525 -0.3302 -0.1705
  109OSM    H3S11221   3.570   5.360  10.358  0.1238  0.0640 -0.4691
  109OSM     O311222   3.632   5.161  10.338  0.5277  0.2546  0.0790
  109OSM    HO311223   3.716   5.161  10.386  0.4189  2.0202  0.2742
  109OSM    C4S11224   3.576   5.301  10.147 -0.1821 -0.3674  0.3264
  109OSM    H4S11225   3.496   5.374  10.132 -1.2396 -1.1637  1.9902
  109OSM    C5S11226   3.610   5.226  10.044  0.4541 -0.2075  0.3823
  109OSM    H5S11227   3.688   5.149  10.053 -0.2008 -1.1007 -1.2661
  109OSM    C6S11228   3.548   5.244   9.911  0.3462 -0.3528  0.2749
  109OSM    H6S11229   3.454   5.303   9.923  0.1953 -0.5190 -0.0903
  109OSM    H6T11230   3.526   5.144   9.869 -2.2869  1.6338 -3.4449
  109OSM    C7S11231   3.628   5.327   9.813  0.9109  0.6957 -0.3493
  109OSM    H7S11232   3.723   5.276   9.787  2.0314  0.7829  3.2209
  109OSM    H7T11233   3.661   5.425   9.854  1.1610  0.7727 -0.7331
  109OSM    C8S11234   3.553   5.342   9.676 -0.4219 -0.4255 -0.6757
  109OSM    H8S11235   3.480   5.425   9.689 -1.6542 -1.6145  0.1113
  109OSM    H8T11236   3.508   5.242   9.661 -0.1172 -0.5100 -1.0372
  109OSM    C9S11237   3.654   5.368   9.565 -0.0185  0.5852  0.1708
  109OSM    H9S11238   3.708   5.273   9.544 -0.5216  0.1359  0.8692
  109OSM    H9T11239   3.727   5.437   9.611  1.7974 -0.6434 -0.8125
  109OSM   C10S11240   3.590   5.417   9.435  0.2138  0.4504 -0.2377
  109OSM   H10S11241   3.520   5.503   9.440 -1.6725 -0.9918 -1.1724
  109OSM   H10T11242   3.527   5.333   9.400 -0.6685  1.6343 -1.5414
  109OSM   C11S11243   3.686   5.449   9.323  0.1160 -0.1404  0.4273
  109OSM   H11S11244   3.757   5.364   9.310 -0.3126 -0.6118  1.1696
  109OSM   H11T11245   3.752   5.530   9.360 -1.4133  1.4644 -0.2769
  109OSM   C12S11246   3.621   5.501   9.190 -0.2277 -0.4009 -0.2192
  109OSM   H12S11247   3.549   5.578   9.224  0.4121  1.5811 -3.1327
  109OSM   H12T11248   3.571   5.413   9.144  2.8232 -1.0368 -2.4846
  109OSM   C13S11249   3.715   5.552   9.086  0.1483  0.7590 -0.3822
  109OSM   H13S11250   3.800   5.602   9.137  0.3890  0.1375 -0.1741
  109OSM   H13T11251   3.677   5.635   9.022 -1.0533  0.4521 -0.0732
  109OSM   C14S11252   3.769   5.440   8.994 -0.1875  0.4409  0.0898
  109OSM   H14S11253   3.680   5.386   8.956  0.6805 -1.8687  1.2150
  109OSM   H14T11254   3.834   5.365   9.043 -0.8898 -1.0631 -1.2562
  109OSM   C15S11255   3.846   5.497   8.869  0.2157  0.8571 -0.1177
  109OSM   H15S11256   3.932   5.561   8.901 -0.5142  1.6987  0.1777
  109OSM   H15T11257   3.782   5.569   8.813 -1.7839  1.0530  2.3362
  109OSM   C16S11258   3.895   5.386   8.782  1.0612  0.0489  0.3784
  109OSM   H16S11259   3.802   5.330   8.757  0.6005  1.4806 -1.2655
  109OSM   H16T11260   3.970   5.323   8.834 -1.2283 -1.7215  1.6094
  109OSM   C17S11261   3.953   5.450   8.644  0.1206  0.1277 -0.0830
  109OSM   H17S11262   4.053   5.494   8.663  0.6470 -0.9394 -0.3096
  109OSM   H17T11263   3.880   5.522   8.601 -0.1862  0.5046  1.0509
  109OSM   C18S11264   3.977   5.339   8.537  0.5087  0.2322 -0.6586
  109OSM   H18S11265   4.022   5.247   8.579 -0.5588 -0.0750 -0.1568
  109OSM   H18T11266   4.047   5.374   8.458  2.6030 -0.0773  1.0137
  109OSM   H18U11267   3.879   5.314   8.490  0.9075 -1.9573 -0.3641
  109OSM    C1F11268   3.843   5.607  10.255  0.6775 -0.5269 -0.4847
  109OSM     OF11269   3.957   5.571  10.256  0.1456  0.1329  0.0312
  109OSM    C2F11270   3.809   5.748  10.228  0.3290  0.6345  0.0004
  109OSM    H2F11271   3.837   5.799  10.323  1.6814 -0.8321  0.4119
  109OSM    H2G11272   3.703   5.763  10.199  1.3124  1.0497 -3.6793
  109OSM    C3F11273   3.903   5.796  10.114  0.6852  0.2715  0.1578
  109OSM    H3F11274   4.008   5.766  10.135  0.2237 -1.1308  0.5880
  109OSM    H3G11275   3.898   5.905  10.096 -1.6079  0.3988  1.3536
  109OSM    C4F11276   3.868   5.735   9.976 -0.4814  0.7569  1.4886
  109OSM    H4F11277   3.834   5.630   9.993 -1.7280  1.0985  1.1539
  109OSM    H4G11278   3.954   5.737   9.906  0.0300 -3.0137  1.8911
  109OSM    C5F11279   3.760   5.814   9.896  0.2543 -0.2366  0.2383
  109OSM    H5F11280   3.810   5.913   9.884  0.5427 -0.3824  0.2354
  109OSM    H5G11281   3.667   5.824   9.956 -1.1613 -2.2531 -1.5423
  109OSM    C6F11282   3.732   5.766   9.753  0.1262  0.0281 -0.3502
  109OSM    H6F11283   3.644   5.821   9.712 -0.5497 -1.7089 -1.2788
  109OSM    H6G11284   3.706   5.658   9.751 -0.4389  0.1673 -0.6465
  109OSM    C7F11285   3.841   5.823   9.663 -0.0857  0.7146 -1.1713
  109OSM    H7F11286   3.942   5.793   9.698 -0.4246  0.5467 -0.3220
  109OSM    H7G11287   3.847   5.934   9.663 -2.1531  0.8394 -0.9876
  109OSM    C8F11288   3.826   5.768   9.519 -0.1342  0.2128 -0.3976
  109OSM    H8F11289   3.834   5.658   9.504  1.1886  0.5368 -2.3314
  109OSM    H8G11290   3.914   5.812   9.467 -0.4520  0.8478 -0.4089
  109OSM    C9F11291   3.706   5.815   9.450  0.3485  0.3677  0.6521
  109OSM    H9F11292   3.611   5.780   9.493 -0.0615  0.5435 -0.1071
  109OSM   C10F11293   3.700   5.894   9.337 -0.2310 -0.1361 -0.2822
  109OSM   H10F11294   3.603   5.926   9.296 -2.1653  0.7918  4.7171
  109OSM   C11F11295   3.815   5.952   9.265  0.2686 -1.1680  0.4601
  109OSM   H11F11296   3.908   5.910   9.308  1.3303 -0.0945 -0.7393
  109OSM   H11G11297   3.817   6.062   9.280  0.4947 -1.2903  1.3452
  109OSM   C12F11298   3.832   5.929   9.112 -0.3089  0.1710 -0.2117
  109OSM   H12F11299   3.859   5.823   9.090  0.8206  0.8606 -2.2726
  109OSM   H12G11300   3.927   5.979   9.086  0.0361 -0.9078 -1.0785
  109OSM   C13F11301   3.718   5.974   9.024 -0.8596  0.2227 -0.3223
  109OSM   H13F11302   3.690   6.079   9.050 -1.0797 -0.0555  0.5536
  109OSM   H13G11303   3.626   5.914   9.041 -1.3061  1.0281  0.1243
  109OSM   C14F11304   3.747   5.960   8.877 -0.8675  0.3396  0.1510
  109OSM   H14F11305   3.729   5.854   8.847  1.0979  0.1698 -0.4951
  109OSM   H14G11306   3.857   5.965   8.859 -0.8514 -1.7636 -0.4391
  109OSM   C15F11307   3.662   6.060   8.789 -1.1469  0.3019 -0.0838
  109OSM   H15F11308   3.672   6.157   8.842  0.2807  0.4318 -0.5660
  109OSM   H15G11309   3.559   6.021   8.784 -1.4059  0.8557  0.8337
  109OSM   C16F11310   3.719   6.068   8.646 -0.3057  0.0569  0.1588
  109OSM   H16F11311   3.711   5.974   8.587  0.1138 -0.3038  0.6832
  109OSM   H16G11312   3.827   6.087   8.664 -0.1894 -0.2142 -0.2310
  109OSM   C17F11313   3.668   6.181   8.556 -0.7958  0.4260 -0.2950
  109OSM   H17F11314   3.687   6.275   8.612 -1.0989 -0.5069  1.4411
  109OSM   H17G11315   3.557   6.175   8.544 -0.6347  0.0967 -1.6650
  109OSM   C18F11316   3.727   6.180   8.413  0.2707 -0.2978  0.1980
  109OSM   H18F11317   3.704   6.267   8.347  2.0898  0.5904  0.6957
  109OSM   H18G11318   3.690   6.087   8.365 -0.3476 -0.3911  0.8316
  109OSM   H18H11319   3.837   6.167   8.404  0.1861  1.1540 -3.7069
  110OSM      N11320   5.697   5.165  10.943 -0.0202  0.2415  0.1393
  110OSM    C1511321   5.689   5.085  11.069  0.4611  0.0932  0.0414
  110OSM   H15A11322   5.787   5.048  11.096  1.0164 -0.1455 -2.1706
  110OSM   H15B11323   5.617   5.005  11.060 -0.1263  0.5816  0.4533
  110OSM   H15C11324   5.663   5.147  11.152  2.8999 -0.1435  1.0272
  110OSM    C1411325   5.760   5.299  10.970  0.1776  0.0501  0.3247
  110OSM   H14A11326   5.857   5.294  11.018  0.3183 -1.3107 -0.0948
  110OSM   H14B11327   5.694   5.364  11.026 -1.0083 -0.5484 -0.3501
  110OSM   H14C11328   5.785   5.355  10.881 -2.4585  0.2484 -0.3331
  110OSM    C1311329   5.775   5.090  10.845  0.0726 -0.1861 -0.3403
  110OSM   H13A11330   5.802   5.150  10.759  0.2289  2.6114  1.5831
  110OSM   H13B11331   5.718   5.007  10.807 -0.1710 -0.4728  0.6346
  110OSM   H13C11332   5.864   5.051  10.892 -1.0610 -0.0229  2.0287
  110OSM    C1211333   5.567   5.189  10.888 -0.0062  0.4241  0.0400
  110OSM   H12A11334   5.577   5.271  10.819 -0.6100  1.5415  1.2521
  110OSM   H12B11335   5.497   5.228  10.961 -0.9898 -1.1235 -0.0486
  110OSM    C1111336   5.487   5.076  10.816 -0.0501  0.2595 -0.2128
  110OSM   H11A11337   5.536   5.047  10.721  0.8811 -2.1512  0.9521
  110OSM   H11B11338   5.394   5.128  10.786  0.6747  2.1121  0.6719
  110OSM      P11339   5.513   4.820  10.881  0.1301  0.1801  0.3618
  110OSM    O1311340   5.663   4.815  10.890  0.5212 -0.6103 -0.0015
  110OSM    O1411341   5.435   4.731  10.975 -0.1385 -0.2958  0.6313
  110OSM    O1111342   5.466   4.800  10.736 -0.0993  0.3558 -0.2807
  110OSM    O1211343   5.462   4.970  10.905  0.0348  0.1841  0.2042
  110OSM    C1S11344   5.333   4.801  10.695 -0.1774 -0.2207  0.7413
  110OSM    H1S11345   5.277   4.891  10.728 -0.0312 -0.2126  0.9683
  110OSM    H1T11346   5.274   4.712  10.727 -2.1677 -0.3063 -2.8657
  110OSM     NF11347   5.187   4.829  10.493  1.2681  0.2056  0.2176
  110OSM    HNF11348   5.141   4.759  10.439 -0.6372 -0.5908  2.7872
  110OSM    C2S11349   5.324   4.807  10.534 -0.2443  0.3385  0.0188
  110OSM    H2S11350   5.386   4.885  10.484 -1.8885  1.4299 -0.3739
  110OSM    C3S11351   5.380   4.668  10.491 -0.1509  0.4518  0.1158
  110OSM    H3S11352   5.317   4.578  10.510  2.9065 -1.6897  0.3828
  110OSM     O311353   5.506   4.638  10.539  0.1738 -0.0897 -0.1397
  110OSM    HO311354   5.519   4.684  10.622 -2.7538  0.2108  0.2196
  110OSM    C4S11355   5.396   4.679  10.338 -0.6232 -0.2669 -0.8130
  110OSM    H4S11356   5.416   4.781  10.300  3.3382 -1.4024 -1.9971
  110OSM    C5S11357   5.378   4.578  10.248 -0.3182 -0.0993 -0.5728
  110OSM    H5S11358   5.336   4.482  10.281  0.4308 -0.5047 -0.7801
  110OSM    C6S11359   5.390   4.594  10.101 -0.4675 -0.1176  0.2976
  110OSM    H6S11360   5.463   4.514  10.076 -1.2513 -1.6164  2.6429
  110OSM    H6T11361   5.434   4.693  10.077  2.9878 -1.6322  0.0638
  110OSM    C7S11362   5.268   4.555  10.018  0.2910  0.0382 -0.1901
  110OSM    H7S11363   5.185   4.610  10.068 -1.3795 -3.0543  0.6088
  110OSM    H7T11364   5.251   4.445  10.019  1.0876 -0.0808  0.8483
  110OSM    C8S11365   5.270   4.569   9.865 -0.7986 -0.0425  0.1613
  110OSM    H8S11366   5.356   4.516   9.820 -0.5550 -0.2817  0.9051
  110OSM    H8T11367   5.286   4.679   9.864 -1.4684  0.0724  1.3782
  110OSM    C9S11368   5.136   4.535   9.804  0.2724 -0.4788  0.1693
  110OSM    H9S11369   5.062   4.605   9.850 -1.5111 -1.8129 -0.6076
  110OSM    H9T11370   5.102   4.434   9.835 -0.7338 -0.4653 -0.8544
  110OSM   C10S11371   5.125   4.546   9.649  0.3034  0.2105 -0.3771
  110OSM   H10S11372   5.152   4.647   9.612  0.5663  0.8544  1.5232
  110OSM   H10T11373   5.016   4.532   9.630  0.1017  0.2296  0.7310
  110OSM   C11S11374   5.210   4.449   9.568  0.6086  0.3925 -0.0704
  110OSM   H11S11375   5.301   4.418   9.625 -0.5056 -2.0833  0.4382
  110OSM   H11T11376   5.237   4.504   9.476  1.5623 -0.3109 -0.2194
  110OSM   C12S11377   5.135   4.324   9.528  0.0939  0.4091  0.2469
  110OSM   H12S11378   5.036   4.361   9.494  0.4871 -1.7954 -3.6271
  110OSM   H12T11379   5.119   4.255   9.613  0.4823 -0.5226 -0.4200
  110OSM   C13S11380   5.191   4.241   9.411 -0.3635  0.1767 -0.5493
  110OSM   H13S11381   5.117   4.160   9.391 -0.9913  0.4008  0.8114
  110OSM   H13T11382   5.282   4.181   9.431  0.8282  1.4109 -2.1283
  110OSM   C14S11383   5.201   4.320   9.277  0.0264 -0.7882 -0.1734
  110OSM   H14S11384   5.284   4.393   9.274 -1.6863  1.3096  1.6024
  110OSM   H14T11385   5.111   4.381   9.252 -0.9187 -1.7330  0.8902
  110OSM   C15S11386   5.210   4.226   9.157  0.4996  0.0374 -0.8095
  110OSM   H15S11387   5.108   4.184   9.151  0.0357  0.8487  1.0273
  110OSM   H15T11388   5.272   4.138   9.187 -0.1702 -0.2928 -0.3870
  110OSM   C16S11389   5.276   4.295   9.034  0.0791 -0.0441  0.5607
  110OSM   H16S11390   5.367   4.343   9.076  0.3514 -1.8756  2.1350
  110OSM   H16T11391   5.202   4.367   8.992 -0.8469 -1.3980 -0.1780
  110OSM   C17S11392   5.310   4.190   8.926  0.5032  0.0820  0.0508
  110OSM   H17S11393   5.215   4.153   8.881  0.2432  1.7545 -0.7802
  110OSM   H17T11394   5.373   4.111   8.973 -0.9654 -0.5420  1.0203
  110OSM   C18S11395   5.390   4.257   8.812 -0.7704 -0.2979 -0.5773
  110OSM   H18S11396   5.329   4.342   8.775  0.9581  0.8273 -0.8942
  110OSM   H18T11397   5.411   4.186   8.730 -2.6830 -0.9610 -0.5093
  110OSM   H18U11398   5.480   4.311   8.850 -0.5834 -2.4308  2.1832
  110OSM    C1F11399   5.118   4.941  10.512  0.3712 -0.4395  0.0565
  110OSM     OF11400   5.173   5.044  10.547  0.3765  0.5339 -0.4390
  110OSM    C2F11401   4.965   4.948  10.497 -0.0327 -0.9134 -0.5013
  110OSM    H2F11402   4.930   4.992  10.593 -2.2481  0.5979 -1.9520
  110OSM    H2G11403   4.927   4.843  10.495  0.5385 -1.1098 -1.2109
  110OSM    C3F11404   4.912   5.032  10.382 -0.8322 -0.6683  0.3727
  110OSM    H3F11405   4.946   4.992  10.284  1.6801  0.3861  0.7465
  110OSM    H3G11406   4.950   5.135  10.401  0.4034 -1.0004 -0.2084
  110OSM    C4F11407   4.761   5.035  10.375  0.1645  0.3021  0.0964
  110OSM    H4F11408   4.720   5.010  10.475  0.7019 -3.0579 -0.4937
  110OSM    H4G11409   4.743   4.948  10.310  0.4715 -0.5581  1.1466
  110OSM    C5F11410   4.697   5.172  10.337 -0.1812 -0.5808 -0.7909
  110OSM    H5F11411   4.746   5.252  10.397  0.2453 -1.0413 -0.5259
  110OSM    H5G11412   4.588   5.167  10.359 -0.1300 -0.2495 -0.4577
  110OSM    C6F11413   4.724   5.213  10.196  0.4825  0.0563  0.7335
  110OSM    H6F11414   4.729   5.124  10.129  1.5993  0.2499  0.5634
  110OSM    H6G11415   4.818   5.270  10.188  0.4450  0.3414  2.2427
  110OSM    C7F11416   4.629   5.326  10.148 -0.1508  0.9472 -0.1028
  110OSM    H7F11417   4.644   5.411  10.217  0.1096  1.3177 -0.6129
  110OSM    H7G11418   4.525   5.289  10.152  0.8488 -1.9630  0.3560
  110OSM    C8F11419   4.658   5.361   9.991  0.5886  0.3268 -0.6920
  110OSM    H8F11420   4.760   5.404   9.988  1.3236 -1.2911  0.8599
  110OSM    H8G11421   4.582   5.433   9.953 -0.5774 -0.2063  0.6007
  110OSM    C9F11422   4.658   5.250   9.893  0.5599  0.5046 -0.7227
  110OSM    H9F11423   4.622   5.150   9.921 -0.4375  0.3644 -2.3814
  110OSM   C10F11424   4.677   5.267   9.761 -0.0101 -0.0671 -0.0225
  110OSM   H10F11425   4.684   5.178   9.697 -0.8779 -0.5957  0.6281
  110OSM   C11F11426   4.701   5.401   9.696 -1.0552  0.7726  0.4528
  110OSM   H11F11427   4.786   5.402   9.624  0.8457  0.9706  2.6333
  110OSM   H11G11428   4.725   5.481   9.769  0.0580 -0.7810  1.8266
  110OSM   C12F11429   4.568   5.449   9.633 -0.3499 -0.3726  0.3213
  110OSM   H12F11430   4.585   5.553   9.598  0.7099 -0.1873  1.3774
  110OSM   H12G11431   4.488   5.460   9.710 -0.0966 -0.2269  0.5631
  110OSM   C13F11432   4.522   5.366   9.514  0.5440 -0.1255  0.1640
  110OSM   H13F11433   4.418   5.395   9.486  0.3377 -1.4797 -0.5138
  110OSM   H13G11434   4.514   5.261   9.548  1.5113 -0.1315  0.3875
  110OSM   C14F11435   4.608   5.359   9.386 -0.0692  0.5370 -0.2307
  110OSM   H14F11436   4.703   5.311   9.419 -1.5719 -0.5909  2.6757
  110OSM   H14G11437   4.632   5.463   9.353 -0.3838  1.3167  1.9225
  110OSM   C15F11438   4.541   5.280   9.274  0.0836 -0.3851  0.0007
  110OSM   H15F11439   4.450   5.341   9.254  0.8251  0.7431  0.0117
  110OSM   H15G11440   4.530   5.173   9.302  2.0769 -0.3704  0.9145
  110OSM   C16F11441   4.623   5.292   9.143 -0.0597 -0.2210 -0.4178
  110OSM   H16F11442   4.729   5.313   9.169  0.6806 -1.6591 -2.1888
  110OSM   H16G11443   4.588   5.384   9.091  1.8824 -1.0395 -3.3133
  110OSM   C17F11444   4.606   5.171   9.048  0.4874 -0.4028  0.4366
  110OSM   H17F11445   4.654   5.208   8.954 -2.0589 -1.8149 -1.4976
  110OSM   H17G11446   4.501   5.153   9.016  0.7567  2.2137 -2.2360
  110OSM   C18F11447   4.674   5.048   9.093  0.1626  0.3231  0.6151
  110OSM   H18F11448   4.638   4.965   9.028  0.7456 -0.3431  1.1458
  110OSM   H18G11449   4.636   5.023   9.194 -0.6275  1.3257  0.5761
  110OSM   H18H11450   4.785   5.037   9.095  0.0419 -0.5861  3.5931
  111OSM      N11451   5.646   1.593  11.156  0.0439 -0.2061  0.3940
  111OSM    C1511452   5.621   1.727  11.083  0.3410  0.0936  0.0338
  111OSM   H15A11453   5.569   1.726  10.988  2.7482  1.1264 -1.3383
  111OSM   H15B11454   5.706   1.793  11.070 -0.9073  2.0429  1.4561
  111OSM   H15C11455   5.559   1.785  11.150 -1.0424 -2.2812  0.8788
  111OSM    C1411456   5.688   1.610  11.298  0.0921  0.0340  0.4642
  111OSM   H14A11457   5.722   1.519  11.345  3.5264  1.3117  0.5988
  111OSM   H14B11458   5.613   1.658  11.360 -3.2011 -1.3976 -2.2847
  111OSM   H14C11459   5.776   1.673  11.296 -1.1024  1.7359  0.4746
  111OSM    C1311460   5.518   1.515  11.160 -0.2541 -0.3508 -0.6473
  111OSM   H13A11461   5.433   1.562  11.206  0.7860  0.0271  0.9357
  111OSM   H13B11462   5.533   1.421  11.211  0.5211  1.8897  3.5023
  111OSM   H13C11463   5.495   1.497  11.056  0.0079 -1.5116 -0.5176
  111OSM    C1211464   5.755   1.522  11.083  0.0609 -0.4055  0.2739
  111OSM   H12A11465   5.771   1.421  11.118 -0.2274 -0.5672 -0.0642
  111OSM   H12B11466   5.848   1.574  11.100 -0.9921  1.5939  0.0630
  111OSM    C1111467   5.743   1.514  10.934 -0.0359 -0.3965  0.6597
  111OSM   H11A11468   5.764   1.614  10.889 -1.3726 -0.4113 -0.0376
  111OSM   H11B11469   5.640   1.486  10.903  0.3795  0.5989 -1.7398
  111OSM      P11470   5.850   1.346  10.777  0.3801  0.1401  0.4509
  111OSM    O1311471   5.978   1.278  10.767 -0.2172  0.1188 -0.3904
  111OSM    O1411472   5.723   1.265  10.774  1.0318  0.7318  0.7209
  111OSM    O1111473   5.839   1.465  10.676 -0.1775  0.1994  0.0333
  111OSM    O1211474   5.844   1.418  10.910  0.0414 -0.0173  0.3809
  111OSM    C1S11475   5.870   1.433  10.540  0.3507 -1.0583  0.0444
  111OSM    H1S11476   5.795   1.361  10.499 -1.5490  0.6906  0.3640
  111OSM    H1T11477   5.972   1.391  10.529  0.5438 -0.2577 -1.3310
  111OSM     NF11478   5.890   1.492  10.297  0.2633  0.2961  0.1991
  111OSM    HNF11479   5.983   1.519  10.273  0.5639 -1.8973 -1.1958
  111OSM    C2S11480   5.852   1.548  10.432 -0.9686 -0.4127 -0.3687
  111OSM    H2S11481   5.748   1.587  10.443 -0.9655 -1.0276  2.3148
  111OSM    C3S11482   5.949   1.668  10.468 -0.1754 -0.6873 -0.6971
  111OSM    H3S11483   6.054   1.634  10.455  0.8206  2.0053 -0.0729
  111OSM     O311484   5.942   1.720  10.602 -0.1763  0.0938  0.0033
  111OSM    HO311485   5.902   1.651  10.656  1.5135 -0.3289  0.7451
  111OSM    C4S11486   5.924   1.777  10.359  0.6242  0.9317 -0.5328
  111OSM    H4S11487   5.820   1.782  10.323  0.1241 -0.1552  0.7027
  111OSM    C5S11488   6.014   1.853  10.293 -0.6634  0.5042  0.3526
  111OSM    H5S11489   6.121   1.833  10.305  0.2950  5.2065  0.4025
  111OSM    C6S11490   5.981   1.962  10.197  0.5284  0.1859 -0.0165
  111OSM    H6S11491   6.048   1.955  10.108 -0.1897 -1.4681 -0.4484
  111OSM    H6T11492   6.000   2.064  10.237  0.4245  1.1065 -2.1858
  111OSM    C7S11493   5.841   1.961  10.135  0.1211 -0.0952  0.3727
  111OSM    H7S11494   5.838   2.054  10.074 -0.3514 -1.5896 -1.9363
  111OSM    H7T11495   5.769   1.974  10.219  3.0569 -0.5866  3.0516
  111OSM    C8S11496   5.802   1.848  10.037  0.4305  0.3869 -0.0315
  111OSM    H8S11497   5.697   1.860  10.003  0.1499 -0.9258  0.3199
  111OSM    H8T11498   5.802   1.754  10.098  1.1735 -1.5975 -2.9879
  111OSM    C9S11499   5.895   1.826   9.913 -0.0028 -0.2769  0.2823
  111OSM    H9S11500   5.869   1.730   9.865 -0.0002  0.9396 -2.2139
  111OSM    H9T11501   6.001   1.824   9.946 -0.5210  0.6027  2.0485
  111OSM   C10S11502   5.875   1.946   9.818  0.2834  1.0180  0.0844
  111OSM   H10S11503   5.874   2.040   9.876 -0.3909  2.1647 -1.7319
  111OSM   H10T11504   5.773   1.939   9.775 -0.0698 -0.5987  1.1383
  111OSM   C11S11505   5.982   1.966   9.710  0.2269  0.0479 -0.6357
  111OSM   H11S11506   6.085   1.963   9.752 -0.9800  1.0565  2.4981
  111OSM   H11T11507   5.963   2.061   9.656 -4.2643 -0.7395 -0.6115
  111OSM   C12S11508   5.978   1.867   9.595  0.5062 -0.2169 -0.0256
  111OSM   H12S11509   5.871   1.858   9.567  0.1014 -1.0621  1.6805
  111OSM   H12T11510   6.011   1.768   9.634 -0.5904 -0.2260  0.9257
  111OSM   C13S11511   6.059   1.914   9.473 -0.4025  0.2496 -0.6761
  111OSM   H13S11512   6.146   1.974   9.505 -0.5948  0.2055 -0.0723
  111OSM   H13T11513   6.007   1.987   9.407 -2.8644 -1.1893 -0.4053
  111OSM   C14S11514   6.098   1.798   9.383 -0.6582 -0.3620  0.0575
  111OSM   H14S11515   6.023   1.716   9.384 -1.0047 -0.0715 -1.3637
  111OSM   H14T11516   6.190   1.761   9.433 -0.1996  0.3108 -0.2780
  111OSM   C15S11517   6.123   1.842   9.238 -0.0003  0.4251 -0.3973
  111OSM   H15S11518   6.196   1.927   9.238  1.9288 -1.1746 -1.4819
  111OSM   H15T11519   6.022   1.879   9.212 -0.8556 -1.1869  0.5774
  111OSM   C16S11520   6.152   1.732   9.134 -1.4574 -0.0500 -0.8824
  111OSM   H16S11521   6.238   1.672   9.172 -0.7443  0.6626 -1.3585
  111OSM   H16T11522   6.188   1.790   9.046 -2.8476  1.0083 -0.7662
  111OSM   C17S11523   6.033   1.646   9.098 -0.0094  0.1857  0.3012
  111OSM   H17S11524   5.954   1.722   9.083  0.5760  0.8106  0.3552
  111OSM   H17T11525   6.022   1.571   9.179 -1.6106 -0.1201 -0.1736
  111OSM   C18S11526   6.056   1.569   8.962 -0.1760  0.0175 -0.3754
  111OSM   H18S11527   6.068   1.639   8.876 -0.4897  0.6504  0.0886
  111OSM   H18T11528   5.979   1.494   8.934  0.1504 -0.4265 -0.0809
  111OSM   H18U11529   6.147   1.507   8.974 -0.9747 -1.8367 -3.4103
  111OSM    C1F11530   5.816   1.406  10.228  0.3019  0.9885 -0.0007
  111OSM     OF11531   5.714   1.360  10.275 -0.0117 -0.1836  0.4396
  111OSM    C2F11532   5.865   1.360  10.093  0.2971  0.3223 -0.0554
  111OSM    H2F11533   5.882   1.250  10.088  0.8237  0.3720  0.4885
  111OSM    H2G11534   5.965   1.401  10.066  0.3274  0.0948 -0.2880
  111OSM    C3F11535   5.767   1.391   9.981  0.4368  0.3233 -0.8310
  111OSM    H3F11536   5.731   1.496   9.989 -0.9101 -0.2364  0.7389
  111OSM    H3G11537   5.680   1.324   9.999  0.0667  0.7027 -1.1762
  111OSM    C4F11538   5.820   1.383   9.838  0.4112 -0.0525  0.0214
  111OSM    H4F11539   5.844   1.275   9.823 -1.5793 -0.5798  0.4769
  111OSM    H4G11540   5.906   1.452   9.826  0.2076  0.4563  1.3566
  111OSM    C5F11541   5.719   1.419   9.728 -0.0914 -0.1581 -0.1133
  111OSM    H5F11542   5.731   1.521   9.685  1.1310  0.6725  2.1390
  111OSM    H5G11543   5.623   1.416   9.784  1.2413  0.5996  2.2930
  111OSM    C6F11544   5.725   1.316   9.614 -0.1197 -0.4079 -0.3495
  111OSM    H6F11545   5.641   1.335   9.544 -0.7046  0.4419  0.5782
  111OSM    H6G11546   5.720   1.212   9.651 -0.1122 -0.3675 -0.2342
  111OSM    C7F11547   5.845   1.348   9.523 -0.9075  0.2974  0.0416
  111OSM    H7F11548   5.924   1.286   9.570  1.6576  4.0181  0.8028
  111OSM    H7G11549   5.871   1.456   9.523  0.7645 -0.1014  0.1633
  111OSM    C8F11550   5.837   1.302   9.372 -0.0099  0.6462  0.6441
  111OSM    H8F11551   5.754   1.361   9.329  0.0133  0.1070 -0.1482
  111OSM    H8G11552   5.802   1.196   9.373  3.3398 -0.5473  2.4324
  111OSM    C9F11553   5.966   1.313   9.299 -0.0857 -0.3862  0.4533
  111OSM    H9F11554   6.022   1.391   9.353 -1.2989 -0.1198  1.3463
  111OSM   C10F11555   6.024   1.239   9.197  0.0641 -0.4549 -0.1905
  111OSM   H10F11556   6.128   1.267   9.174 -0.0379  0.7485  0.7504
  111OSM   C11F11557   5.974   1.111   9.125  0.0034  0.8075  0.3183
  111OSM   H11F11558   5.888   1.079   9.187  0.3081 -1.0158 -0.1722
  111OSM   H11G11559   6.046   1.028   9.141 -1.5474 -0.4535  0.8098
  111OSM   C12F11560   5.938   1.132   8.978  0.0825  0.6687 -0.5820
  111OSM   H12F11561   5.864   1.214   8.967 -0.9931 -0.3503 -1.1298
  111OSM   H12G11562   5.886   1.038   8.948  2.7740 -1.0594 -0.0755
  111OSM   C13F11563   6.054   1.173   8.883 -0.4484  0.0926  0.0075
  111OSM   H13F11564   6.134   1.095   8.887  1.4311  1.8500 -1.8041
  111OSM   H13G11565   6.101   1.265   8.923 -1.4551  1.0257 -0.9304
  111OSM   C14F11566   6.015   1.179   8.744  0.0443 -0.3137 -0.4979
  111OSM   H14F11567   5.927   1.241   8.718  2.0316  1.6926 -2.6508
  111OSM   H14G11568   5.989   1.076   8.712 -1.0210 -0.0844 -0.3863
  111OSM   C15F11569   6.144   1.222   8.664  0.3737 -0.2555 -0.2895
  111OSM   H15F11570   6.155   1.143   8.587  2.5417  1.1426 -1.4741
  111OSM   H15G11571   6.237   1.218   8.725 -1.5374  0.7304  2.8356
  111OSM   C16F11572   6.117   1.367   8.606 -0.8092  0.1027  0.9770
  111OSM   H16F11573   6.056   1.431   8.674 -0.2259  1.4400  0.2494
  111OSM   H16G11574   6.059   1.362   8.511  0.0441  0.8899  0.4109
  111OSM   C17F11575   6.248   1.440   8.586 -0.0793 -0.4257  0.3150
  111OSM   H17F11576   6.315   1.385   8.516  0.7869  0.2635  0.5920
  111OSM   H17G11577   6.308   1.451   8.679 -0.1557  1.5555  0.1621
  111OSM   C18F11578   6.230   1.582   8.541 -0.4061 -0.0341 -0.4736
  111OSM   H18F11579   6.323   1.629   8.502  0.9161 -2.1541  0.0011
  111OSM   H18G11580   6.189   1.649   8.620 -0.9382 -0.8415 -0.0499
  111OSM   H18H11581   6.151   1.587   8.463  0.7813  1.6446 -1.5973
  112OSM      N11582   6.733   5.622  11.124  0.1982  0.4030 -0.5397
  112OSM    C1511583   6.669   5.572  10.997  0.5931  0.2020  0.0122
  112OSM   H15A11584   6.706   5.474  10.967 -2.4174 -0.8528 -0.3837
  112OSM   H15B11585   6.682   5.650  10.923  0.4606  0.4114  0.2135
  112OSM   H15C11586   6.562   5.564  11.010  0.7891  0.8809  2.0901
  112OSM    C1411587   6.659   5.551  11.237 -0.1278  0.1819 -0.1581
  112OSM   H14A11588   6.676   5.445  11.228 -2.1540 -0.2998  1.3958
  112OSM   H14B11589   6.553   5.564  11.221  0.2872  2.7813 -1.1744
  112OSM   H14C11590   6.690   5.598  11.329 -0.0827  1.0771 -0.6151
  112OSM    C1311591   6.881   5.587  11.125 -0.4544  0.7359 -0.5207
  112OSM   H13A11592   6.934   5.652  11.058  0.0812  2.5444  1.5757
  112OSM   H13B11593   6.892   5.480  11.115 -2.2086  0.4175  0.6694
  112OSM   H13C11594   6.917   5.603  11.226  0.0626  0.1453 -0.6117
  112OSM    C1211595   6.705   5.771  11.133  0.5959  0.0844 -0.2773
  112OSM   H12A11596   6.752   5.803  11.225  0.7057  3.0026 -1.3058
  112OSM   H12B11597   6.599   5.789  11.143  0.5510  0.8594 -1.9596
  112OSM    C1111598   6.757   5.868  11.020  1.3086  0.3632  0.9686
  112OSM   H11A11599   6.857   5.827  10.996  1.5344 -0.3693  3.0100
  112OSM   H11B11600   6.780   5.970  11.059  0.6703  0.5473  0.8708
  112OSM      P11601   6.524   5.947  10.938 -0.1947  0.3804 -0.7318
  112OSM    O1311602   6.446   5.886  11.046 -0.3422  0.6203  0.2054
  112OSM    O1411603   6.547   6.093  10.951  0.0692  0.3921  0.0066
  112OSM    O1111604   6.444   5.915  10.805 -0.0254 -0.2313  0.0065
  112OSM    O1211605   6.660   5.864  10.914 -0.1473 -0.7514 -0.6375
  112OSM    C1S11606   6.482   5.976  10.684  0.3249 -0.5853 -0.1741
  112OSM    H1S11607   6.591   5.998  10.685  0.6702 -1.8258 -3.6936
  112OSM    H1T11608   6.430   6.074  10.679  0.0517 -0.7859 -1.6959
  112OSM     NF11609   6.477   5.978  10.438  0.5388  0.0661  0.6267
  112OSM    HNF11610   6.396   6.014  10.392  2.1394 -0.3047 -2.6523
  112OSM    C2S11611   6.447   5.894  10.554 -0.0057 -0.8014 -0.1232
  112OSM    H2S11612   6.523   5.813  10.554 -0.4523 -1.2301 -1.4582
  112OSM    C3S11613   6.308   5.833  10.549  0.3158 -0.0826  0.1197
  112OSM    H3S11614   6.237   5.912  10.514 -1.5108 -2.2069 -1.1161
  112OSM     O311615   6.258   5.797  10.681 -0.1929 -0.7328 -0.0050
  112OSM    HO311616   6.334   5.821  10.735 -1.1680 -0.2556  1.1881
  112OSM    C4S11617   6.308   5.724  10.446 -0.3668  0.6429  0.0347
  112OSM    H4S11618   6.265   5.750  10.348  0.1169 -1.3767 -0.7268
  112OSM    C5S11619   6.332   5.591  10.455 -0.3489 -0.8844  0.3921
  112OSM    H5S11620   6.348   5.564  10.560  0.0911 -1.7451  0.1046
  112OSM    C6S11621   6.305   5.488  10.346 -1.1704 -0.8104  0.4697
  112OSM    H6S11622   6.265   5.398  10.397 -1.3118 -0.1195  1.5935
  112OSM    H6T11623   6.397   5.461  10.289 -1.0861  0.2775  0.0781
  112OSM    C7S11624   6.207   5.527  10.225 -0.0189  0.2728 -0.6128
  112OSM    H7S11625   6.261   5.581  10.144  1.6102  0.8247  0.7962
  112OSM    H7T11626   6.129   5.596  10.264 -0.1480 -0.1243 -0.1653
  112OSM    C8S11627   6.138   5.411  10.156  0.0031  0.3984 -0.0011
  112OSM    H8S11628   6.069   5.351  10.220  0.6884  0.0749  0.4346
  112OSM    H8T11629   6.212   5.336  10.122 -0.9215  0.0097 -1.1970
  112OSM    C9S11630   6.051   5.456  10.035  0.5857  0.3496  0.3536
  112OSM    H9S11631   6.123   5.483   9.955 -0.8871 -0.2512 -1.2070
  112OSM    H9T11632   5.987   5.545  10.053  1.3625  1.2271 -1.1343
  112OSM   C10S11633   5.965   5.347   9.971 -0.6962  0.4057 -0.5373
  112OSM   H10S11634   5.872   5.320  10.025  0.0327  0.5177  0.7946
  112OSM   H10T11635   6.024   5.253   9.970 -1.7033 -0.2148 -1.8666
  112OSM   C11S11636   5.928   5.377   9.824  0.0123 -0.5605 -0.2800
  112OSM   H11S11637   6.006   5.426   9.761  1.6215 -1.4486  0.9703
  112OSM   H11T11638   5.846   5.452   9.827 -0.3103 -0.8979 -0.6703
  112OSM   C12S11639   5.871   5.259   9.743 -0.6001  0.2501 -0.7546
  112OSM   H12S11640   5.767   5.235   9.772 -0.4236 -1.4535 -1.5111
  112OSM   H12T11641   5.937   5.170   9.746  0.5777  1.1362  0.2736
  112OSM   C13S11642   5.858   5.302   9.599  0.2736 -0.7774  0.0118
  112OSM   H13S11643   5.952   5.348   9.563 -0.0323  1.2106  1.7060
  112OSM   H13T11644   5.780   5.381   9.599  2.3204  1.3163  1.2863
  112OSM   C14S11645   5.828   5.188   9.500  0.2035  0.0892  0.1172
  112OSM   H14S11646   5.738   5.131   9.529 -0.3754 -0.2299 -2.2223
  112OSM   H14T11647   5.916   5.120   9.494 -0.7493 -1.1161 -0.3541
  112OSM   C15S11648   5.811   5.244   9.360 -0.1764 -0.2328 -0.2854
  112OSM   H15S11649   5.917   5.269   9.341 -0.8873  2.4760 -0.7865
  112OSM   H15T11650   5.753   5.339   9.364  0.0371 -0.0228 -1.9570
  112OSM   C16S11651   5.747   5.154   9.256  0.6555 -0.2852 -0.0566
  112OSM   H16S11652   5.653   5.121   9.306  1.9278 -2.4932  0.9169
  112OSM   H16T11653   5.819   5.075   9.229  0.7470 -0.1462 -0.2203
  112OSM   C17S11654   5.713   5.239   9.129  0.5629 -0.7765 -0.5898
  112OSM   H17S11655   5.799   5.304   9.101 -0.7421  0.7983 -1.0431
  112OSM   H17T11656   5.629   5.301   9.169  0.0340 -1.3679 -0.7781
  112OSM   C18S11657   5.667   5.162   9.009  0.4170 -0.2897 -0.9831
  112OSM   H18S11658   5.567   5.118   9.026  0.9180 -1.2615 -0.4957
  112OSM   H18T11659   5.747   5.090   8.980  1.8112  1.3535 -1.3033
  112OSM   H18U11660   5.640   5.219   8.918 -2.2275  0.9191  0.5052
  112OSM    C1F11661   6.597   6.004  10.394  0.2092  0.3522 -0.2608
  112OSM     OF11662   6.690   5.970  10.464 -0.5558 -0.0343  0.6116
  112OSM    C2F11663   6.610   6.075  10.262 -0.0983  0.2880  0.2013
  112OSM    H2F11664   6.680   6.161  10.262 -0.4190  0.5658 -1.0519
  112OSM    H2G11665   6.509   6.108  10.229  0.3808  1.8849  0.2901
  112OSM    C3F11666   6.678   5.984  10.159 -0.5612  0.0043 -0.7092
  112OSM    H3F11667   6.781   5.971  10.198 -1.1703 -2.9118  0.0590
  112OSM    H3G11668   6.696   6.033  10.062  2.9194  0.4255  0.0935
  112OSM    C4F11669   6.599   5.852  10.125  0.2783 -0.0353  0.0627
  112OSM    H4F11670   6.548   5.801  10.210 -1.2109 -0.0940 -0.8322
  112OSM    H4G11671   6.663   5.773  10.080  0.5698 -0.2815  0.9166
  112OSM    C5F11672   6.494   5.881  10.016  0.1687  0.0354 -0.3197
  112OSM    H5F11673   6.557   5.911   9.930  0.2076 -1.0508 -0.6825
  112OSM    H5G11674   6.427   5.962  10.051 -0.4868 -0.3946 -0.5536
  112OSM    C6F11675   6.425   5.759   9.965 -0.5018  0.0168 -0.1138
  112OSM    H6F11676   6.358   5.721  10.045  0.8188  1.0378  1.4820
  112OSM    H6G11677   6.500   5.680   9.948  1.4138  2.0042 -1.1517
  112OSM    C7F11678   6.341   5.781   9.836  0.0838 -0.0838 -0.1883
  112OSM    H7F11679   6.288   5.878   9.831 -0.1631 -0.1919  0.2976
  112OSM    H7G11680   6.275   5.692   9.833 -0.3276  0.2192 -0.1356
  112OSM    C8F11681   6.420   5.777   9.700 -0.0445 -0.1833  0.0026
  112OSM    H8F11682   6.499   5.854   9.699  1.4678 -1.6217  2.7821
  112OSM    H8G11683   6.354   5.806   9.615  0.5381  2.0573  0.2886
  112OSM    C9F11684   6.494   5.649   9.681 -0.3236 -0.0427 -0.3889
  112OSM    H9F11685   6.588   5.639   9.737 -1.9497 -1.2358  2.2423
  112OSM   C10F11686   6.460   5.553   9.592  0.5428 -0.9863 -0.2545
  112OSM   H10F11687   6.525   5.465   9.585  1.1485 -0.5136 -0.7107
  112OSM   C11F11688   6.343   5.550   9.500  0.3053  0.0171 -0.2677
  112OSM   H11F11689   6.272   5.626   9.538 -0.5406 -0.5644 -0.6589
  112OSM   H11G11690   6.299   5.448   9.508 -1.1085  0.6235 -0.1415
  112OSM   C12F11691   6.385   5.582   9.357 -0.1732 -0.4234  0.1532
  112OSM   H12F11692   6.469   5.515   9.328 -0.3337  0.0263 -1.4072
  112OSM   H12G11693   6.429   5.683   9.349 -0.6819 -0.3317 -1.9529
  112OSM   C13F11694   6.267   5.577   9.267  0.3342 -0.4192  0.5570
  112OSM   H13F11695   6.194   5.658   9.287  1.7926  0.2797  3.3847
  112OSM   H13G11696   6.216   5.483   9.295  3.4583 -1.9599  1.3719
  112OSM   C14F11697   6.312   5.560   9.117 -0.9993  0.3832  0.3105
  112OSM   H14F11698   6.371   5.466   9.115  1.7052  2.0278 -0.8555
  112OSM   H14G11699   6.390   5.633   9.085  1.1960 -2.9495 -2.3486
  112OSM   C15F11700   6.192   5.560   9.018  0.0930  0.6066 -0.3028
  112OSM   H15F11701   6.128   5.649   9.039 -2.4126 -1.1935 -0.0596
  112OSM   H15G11702   6.128   5.478   9.056  2.0467 -0.6437  0.3522
  112OSM   C16F11703   6.238   5.550   8.878 -0.4316  0.7998 -0.1460
  112OSM   H16F11704   6.307   5.464   8.864 -3.9437 -1.7248 -2.7789
  112OSM   H16G11705   6.298   5.641   8.857  0.0900  1.0978  2.4510
  112OSM   C17F11706   6.129   5.536   8.779 -0.2750 -0.7098 -0.9446
  112OSM   H17F11707   6.076   5.634   8.779 -1.0011 -1.0980 -1.8531
  112OSM   H17G11708   6.063   5.449   8.800 -1.6237  0.8003  1.3824
  112OSM   C18F11709   6.189   5.533   8.637  0.9901  0.0587 -0.2343
  112OSM   H18F11710   6.111   5.511   8.561  1.4289 -0.0702 -0.6501
  112OSM   H18G11711   6.269   5.457   8.628  1.0933  0.4745 -3.7034
  112OSM   H18H11712   6.242   5.628   8.614 -0.5229  1.1407  0.6735
  113OSM      N11713   2.875   2.739  11.250 -0.2218 -0.7212  0.1036
  113OSM    C1511714   2.876   2.893  11.267  0.3928  0.4678  0.6047
  113OSM   H15A11715   2.865   2.909  11.373  1.3877  1.6550  0.5493
  113OSM   H15B11716   2.802   2.939  11.203  1.1652 -0.1246 -0.7421
  113OSM   H15C11717   2.975   2.926  11.239  0.5019  0.8320  1.4149
  113OSM    C1411718   2.976   2.681  11.346 -0.8636 -0.0031  0.3102
  113OSM   H14A11719   2.956   2.698  11.451 -0.2860 -0.2469  0.4636
  113OSM   H14B11720   3.070   2.733  11.331 -1.3897  0.7464 -0.4521
  113OSM   H14C11721   2.982   2.575  11.329  1.8845  0.2728 -0.6926
  113OSM    C1311722   2.741   2.689  11.285 -0.5042 -0.0705 -0.2489
  113OSM   H13A11723   2.674   2.710  11.203  0.3057 -1.1620 -1.2121
  113OSM   H13B11724   2.699   2.728  11.377 -1.9582 -1.4821 -0.2785
  113OSM   H13C11725   2.735   2.581  11.277 -0.7465 -0.1423  0.7948
  113OSM    C1211726   2.909   2.707  11.104  0.4405 -0.6224  0.5379
  113OSM   H12A11727   2.857   2.775  11.038  0.1619  0.5674  1.9610
  113OSM   H12B11728   2.869   2.610  11.076 -0.9828 -0.4853  2.0200
  113OSM    C1111729   3.064   2.711  11.069 -0.0930  0.1198  0.4568
  113OSM   H11A11730   3.109   2.802  11.113 -0.9187  1.7908 -2.0478
  113OSM   H11B11731   3.073   2.729  10.959 -2.1947 -0.0978  0.2226
  113OSM      P11732   3.105   2.457  11.038  0.3129 -0.2661  0.4328
  113OSM    O1311733   3.211   2.366  11.075 -0.1983  0.0685 -0.2535
  113OSM    O1411734   2.964   2.415  11.066 -0.0843  0.1154 -0.0494
  113OSM    O1111735   3.102   2.488  10.883 -0.1550 -0.3878 -0.6229
  113OSM    O1211736   3.123   2.591  11.114  0.0757  0.0948 -0.1506
  113OSM    C1S11737   3.220   2.495  10.806  0.1171 -0.9401  0.8070
  113OSM    H1S11738   3.269   2.395  10.810 -0.1945 -1.1370 -0.0925
  113OSM    H1T11739   3.286   2.577  10.841 -0.7716  0.5874 -1.0271
  113OSM     NF11740   3.291   2.524  10.569 -0.5354 -0.7127  0.4337
  113OSM    HNF11741   3.307   2.613  10.526  1.7349 -0.9862  0.6268
  113OSM    C2S11742   3.175   2.524  10.661 -0.8331  0.4093  0.0227
  113OSM    H2S11743   3.108   2.438  10.640 -0.4610  0.1982 -0.3161
  113OSM    C3S11744   3.083   2.652  10.646 -0.0079 -0.3166  0.5654
  113OSM    H3S11745   3.142   2.739  10.682  0.1062  0.3119 -1.0895
  113OSM     O311746   2.969   2.660  10.731  0.3979  0.2866 -0.4733
  113OSM    HO311747   2.977   2.590  10.796  1.8431 -0.6971 -1.6908
  113OSM    C4S11748   3.047   2.680  10.500  0.2658  0.6542  0.1673
  113OSM    H4S11749   2.957   2.625  10.469  1.4420 -0.9126 -0.5802
  113OSM    C5S11750   3.094   2.779  10.412  0.1113  0.5301 -0.2934
  113OSM    H5S11751   3.167   2.847  10.459  1.9234 -1.8892  0.5266
  113OSM    C6S11752   3.047   2.799  10.268 -0.1912 -1.0551 -0.3634
  113OSM    H6S11753   2.997   2.898  10.257 -0.0934 -0.6949  2.0944
  113OSM    H6T11754   2.971   2.722  10.241 -0.2446 -1.3087  0.4837
  113OSM    C7S11755   3.172   2.808  10.180 -0.1447 -0.0240 -0.3982
  113OSM    H7S11756   3.217   2.707  10.189 -0.3982 -0.0910  0.1337
  113OSM    H7T11757   3.247   2.887  10.197 -1.5368  1.6625 -1.8280
  113OSM    C8S11758   3.129   2.810  10.027 -0.5718 -0.0144  0.0589
  113OSM    H8S11759   3.062   2.895  10.005  1.2398  1.3047 -0.5445
  113OSM    H8T11760   3.061   2.725  10.007 -0.1697 -0.3559  0.1362
  113OSM    C9S11761   3.243   2.826   9.927 -0.3895 -0.1589 -0.1202
  113OSM    H9S11762   3.310   2.737   9.917 -0.8414 -0.7220  1.6391
  113OSM    H9T11763   3.294   2.916   9.969 -0.2746 -0.5506  0.5905
  113OSM   C10S11764   3.181   2.862   9.787  0.6269  0.6399  0.0896
  113OSM   H10S11765   3.137   2.960   9.815 -0.1278 -0.0768  1.4398
  113OSM   H10T11766   3.102   2.789   9.759 -0.8327  2.0926  0.3506
  113OSM   C11S11767   3.283   2.872   9.670 -0.2644  0.0379  0.8397
  113OSM   H11S11768   3.330   2.771   9.666  0.6279  0.4681  0.2242
  113OSM   H11T11769   3.365   2.938   9.705  0.5204 -1.6717  2.3769
  113OSM   C12S11770   3.231   2.898   9.529  0.6045 -0.0444 -0.2052
  113OSM   H12S11771   3.194   3.001   9.513  1.1340  0.3426  1.0126
  113OSM   H12T11772   3.136   2.841   9.513  0.7418 -0.4755  0.4811
  113OSM   C13S11773   3.331   2.872   9.412  0.2352  0.1908 -0.8025
  113OSM   H13S11774   3.347   2.762   9.418 -0.6997  0.0708 -0.2965
  113OSM   H13T11775   3.428   2.915   9.443  0.1222 -1.8927  2.7060
  113OSM   C14S11776   3.268   2.908   9.277 -0.2296 -0.5328 -0.3999
  113OSM   H14S11777   3.281   3.016   9.254 -2.4133 -0.4907 -1.5851
  113OSM   H14T11778   3.160   2.882   9.272 -0.6976  1.2581  0.1343
  113OSM   C15S11779   3.331   2.829   9.164 -0.3161  0.0754  0.5672
  113OSM   H15S11780   3.338   2.721   9.192  2.7608 -0.7124 -2.8242
  113OSM   H15T11781   3.436   2.860   9.149 -1.1532  3.4221  1.3547
  113OSM   C16S11782   3.252   2.838   9.036 -0.3194 -0.3868 -0.0711
  113OSM   H16S11783   3.233   2.947   9.022  0.6366  0.2600  3.1639
  113OSM   H16T11784   3.161   2.776   9.050 -0.1817 -0.4659  0.5154
  113OSM   C17S11785   3.325   2.776   8.912  0.0675 -0.1189 -0.1391
  113OSM   H17S11786   3.381   2.686   8.946  1.0810 -0.1555 -1.8506
  113OSM   H17T11787   3.399   2.853   8.883  2.6149 -2.6899 -0.7357
  113OSM   C18S11788   3.219   2.745   8.813 -0.0780 -0.0538  0.2494
  113OSM   H18S11789   3.259   2.723   8.711 -1.6872  1.4446 -0.7250
  113OSM   H18T11790   3.145   2.826   8.795 -0.9326 -1.0326 -0.7355
  113OSM   H18U11791   3.175   2.649   8.848  2.4485 -1.7132 -0.9516
  113OSM    C1F11792   3.383   2.430  10.549  0.0062 -0.8122 -0.0681
  113OSM     OF11793   3.407   2.338  10.629  0.2719 -0.1972  0.2054
  113OSM    C2F11794   3.458   2.429  10.419  0.3746 -0.0256 -0.0885
  113OSM    H2F11795   3.522   2.338  10.426  2.3111  1.4292  2.0342
  113OSM    H2G11796   3.527   2.516  10.421 -0.2659  0.4744  0.0259
  113OSM    C3F11797   3.373   2.415  10.290 -0.7621  0.6870  0.1149
  113OSM    H3F11798   3.287   2.487  10.288 -1.5925 -0.0271  4.9565
  113OSM    H3G11799   3.328   2.313  10.290 -1.0896  0.8303  0.8652
  113OSM    C4F11800   3.450   2.411  10.151 -0.8529  0.5124  0.6751
  113OSM    H4F11801   3.544   2.355  10.169 -0.2257  1.5431  0.5740
  113OSM    H4G11802   3.475   2.514  10.118 -0.5203  0.9090  2.1398
  113OSM    C5F11803   3.378   2.341  10.039 -0.1411  0.1258 -0.0321
  113OSM    H5F11804   3.275   2.382  10.032 -0.8241 -1.1896  1.7194
  113OSM    H5G11805   3.368   2.232  10.061 -1.3571  0.1814 -0.2552
  113OSM    C6F11806   3.450   2.356   9.905  0.6399 -0.1384  1.0007
  113OSM    H6F11807   3.539   2.289   9.903  0.0201 -0.9456  0.7858
  113OSM    H6G11808   3.472   2.464   9.890 -0.0809 -0.1665 -0.3454
  113OSM    C7F11809   3.364   2.304   9.793  0.1004  0.1990  0.2325
  113OSM    H7F11810   3.275   2.370   9.781  0.0925  0.2432  0.5258
  113OSM    H7G11811   3.327   2.201   9.809  0.4808 -0.1126 -0.8724
  113OSM    C8F11812   3.436   2.300   9.652 -0.0143  0.5902  0.0254
  113OSM    H8F11813   3.358   2.262   9.583 -0.3821  0.8903  0.2753
  113OSM    H8G11814   3.511   2.218   9.660 -0.3080  0.4160  1.1846
  113OSM    C9F11815   3.509   2.427   9.612  0.1571 -0.4489 -0.1693
  113OSM    H9F11816   3.563   2.474   9.695  0.7628 -1.5930  0.1043
  113OSM   C10F11817   3.500   2.495   9.492  0.4065  0.1591  0.2190
  113OSM   H10F11818   3.567   2.581   9.477  0.6884  0.0736  0.9868
  113OSM   C11F11819   3.410   2.449   9.376  0.5458  0.2473  0.1100
  113OSM   H11F11820   3.366   2.538   9.326  0.1977 -0.0920 -0.1893
  113OSM   H11G11821   3.325   2.387   9.410 -0.2598  0.6277 -1.1723
  113OSM   C12F11822   3.481   2.360   9.273  1.2362  0.6742  0.5264
  113OSM   H12F11823   3.496   2.257   9.313  2.4483  0.6794  0.0914
  113OSM   H12G11824   3.579   2.402   9.242  0.3361  1.7058 -0.9757
  113OSM   C13F11825   3.407   2.348   9.141  0.3999  0.4739 -0.6518
  113OSM   H13F11826   3.397   2.451   9.102  1.0631  0.7918  0.0126
  113OSM   H13G11827   3.302   2.327   9.171  1.4105 -0.6321  2.3915
  113OSM   C14F11828   3.468   2.245   9.039 -0.2114  0.0980  0.3312
  113OSM   H14F11829   3.430   2.148   9.076 -0.2810 -0.4799 -1.2260
  113OSM   H14G11830   3.578   2.237   9.031 -0.3140 -2.5412  1.1603
  113OSM   C15F11831   3.405   2.271   8.899  0.5537  0.1458  0.0059
  113OSM   H15F11832   3.295   2.285   8.903  0.5860  0.7787 -1.0110
  113OSM   H15G11833   3.429   2.184   8.834  0.9055 -0.8492  1.4430
  113OSM   C16F11834   3.464   2.401   8.842  0.1771  0.0638  0.2346
  113OSM   H16F11835   3.574   2.386   8.847 -0.1441 -2.6493  0.3117
  113OSM   H16G11836   3.444   2.494   8.899  1.4605  0.8914 -0.6406
  113OSM   C17F11837   3.409   2.435   8.702  0.0092  0.5950 -0.0501
  113OSM   H17F11838   3.409   2.543   8.678 -2.5026  0.5052 -0.6654
  113OSM   H17G11839   3.302   2.407   8.692  0.5394 -1.0428 -1.4051
  113OSM   C18F11840   3.493   2.358   8.592 -0.7173  0.3682 -0.3555
  113OSM   H18F11841   3.601   2.386   8.595 -1.5152  3.5715  0.8437
  113OSM   H18G11842   3.460   2.397   8.493  1.4960 -1.7174 -1.9780
  113OSM   H18H11843   3.474   2.250   8.610 -0.2467  0.4131  0.4722
  114OSM      N11844   5.065   5.572  11.251  0.0656 -0.2646  0.2383
  114OSM    C1511845   5.093   5.461  11.152  0.0348 -0.2729  0.8044
  114OSM   H15A11846   5.169   5.491  11.081 -0.5395 -0.9785 -0.1133
  114OSM   H15B11847   5.003   5.429  11.102 -0.2865  2.6554 -0.5908
  114OSM   H15C11848   5.137   5.377  11.204 -0.7664 -0.7227  0.7505
  114OSM    C1411849   4.990   5.678  11.173 -0.2224 -0.0175  0.1332
  114OSM   H14A11850   4.898   5.631  11.141 -1.1214  0.4993  1.9136
  114OSM   H14B11851   5.040   5.695  11.079 -0.4134  3.6788  0.6352
  114OSM   H14C11852   4.972   5.773  11.222  2.5828  0.7416 -0.2553
  114OSM    C1311853   4.987   5.518  11.366  0.5666 -0.9439  0.1057
  114OSM   H13A11854   4.987   5.580  11.454  0.7090  0.2117 -0.6881
  114OSM   H13B11855   5.025   5.423  11.401  1.1224 -0.4743  0.8055
  114OSM   H13C11856   4.886   5.515  11.329 -0.5293 -0.0243  2.9172
  114OSM    C1211857   5.197   5.636  11.289 -0.4368  0.2541 -0.0206
  114OSM   H12A11858   5.250   5.565  11.352  0.2908  2.1087  1.5065
  114OSM   H12B11859   5.181   5.722  11.352  1.0450 -0.1702  0.9762
  114OSM    C1111860   5.295   5.676  11.179 -0.1961 -0.5903 -0.1092
  114OSM   H11A11861   5.364   5.753  11.218 -2.3946  0.2444  2.3237
  114OSM   H11B11862   5.238   5.737  11.106 -1.3747 -1.8233 -0.2431
  114OSM      P11863   5.471   5.590  11.019 -0.1305 -0.0921  0.2736
  114OSM    O1311864   5.437   5.702  10.935  0.4619  0.3737 -0.2708
  114OSM    O1411865   5.603   5.588  11.085 -0.3108  0.1841 -0.1016
  114OSM    O1111866   5.460   5.460  10.923 -0.0793  0.3449 -0.7079
  114OSM    O1211867   5.358   5.565  11.119  0.0266 -0.2009  0.0799
  114OSM    C1S11868   5.356   5.461  10.821 -0.7589  0.3597 -0.2236
  114OSM    H1S11869   5.268   5.523  10.850  0.9330  1.6537  2.2866
  114OSM    H1T11870   5.322   5.355  10.828 -0.9221  0.5414  2.1696
  114OSM     NF11871   5.295   5.468  10.584 -0.2274  0.5473 -0.1881
  114OSM    HNF11872   5.310   5.393  10.520 -1.8295  0.3428 -0.3453
  114OSM    C2S11873   5.403   5.500  10.676 -0.1993  0.2225 -0.4670
  114OSM    H2S11874   5.424   5.609  10.671  0.6477  0.1782  1.8485
  114OSM    C3S11875   5.529   5.434  10.633  0.0286  0.1382  0.2927
  114OSM    H3S11876   5.514   5.324  10.627 -0.8206  0.2613  0.0253
  114OSM     O311877   5.645   5.451  10.705  0.1531 -0.1375  0.0316
  114OSM    HO311878   5.629   5.516  10.773  0.3792  0.7168 -0.7185
  114OSM    C4S11879   5.552   5.469  10.485 -0.0140  0.2140 -0.6653
  114OSM    H4S11880   5.530   5.392  10.409  0.8090  0.0028 -0.6964
  114OSM    C5S11881   5.623   5.571  10.441 -0.3375 -0.0330 -0.2008
  114OSM    H5S11882   5.666   5.647  10.507 -0.4074 -0.1322 -0.0390
  114OSM    C6S11883   5.648   5.601  10.294 -0.1088 -0.2584 -0.2946
  114OSM    H6S11884   5.754   5.593  10.260  0.0416 -2.1340  0.5509
  114OSM    H6T11885   5.625   5.709  10.295 -1.2648 -0.4946 -0.9772
  114OSM    C7S11886   5.567   5.526  10.191  0.5837  0.3822 -0.5598
  114OSM    H7S11887   5.461   5.515  10.222  0.0622  1.6803 -1.8283
  114OSM    H7T11888   5.607   5.422  10.189 -0.1268  0.0602  1.0583
  114OSM    C8S11889   5.573   5.603  10.061  0.4756  0.8591 -0.4643
  114OSM    H8S11890   5.682   5.618  10.043  1.3049 -0.6964  2.7526
  114OSM    H8T11891   5.524   5.701  10.071  0.4582  0.7996  0.1056
  114OSM    C9S11892   5.515   5.529   9.938  0.0332  0.3099 -0.3106
  114OSM    H9S11893   5.407   5.506   9.956  0.0462  0.7057  0.2892
  114OSM    H9T11894   5.573   5.437   9.918  0.9322  0.6377  0.7827
  114OSM   C10S11895   5.524   5.619   9.812  0.2266 -0.4071  0.0454
  114OSM   H10S11896   5.625   5.658   9.788 -0.4275  0.4854 -1.3962
  114OSM   H10T11897   5.447   5.699   9.814  2.5818  1.9139  0.4179
  114OSM   C11S11898   5.482   5.544   9.680  0.3906 -0.1030 -0.0336
  114OSM   H11S11899   5.385   5.497   9.709 -0.6266  1.2753 -1.1295
  114OSM   H11T11900   5.556   5.462   9.667  0.9164  0.4339 -0.3998
  114OSM   C12S11901   5.461   5.626   9.556  0.5791 -0.0981 -0.1078
  114OSM   H12S11902   5.554   5.680   9.527  0.1087  1.1620  0.6646
  114OSM   H12T11903   5.386   5.706   9.572  0.1471 -0.6327  0.5676
  114OSM   C13S11904   5.410   5.532   9.447  1.0607 -0.5371  0.3135
  114OSM   H13S11905   5.317   5.485   9.484  0.5980 -2.2156 -2.8109
  114OSM   H13T11906   5.480   5.447   9.431 -0.4752 -1.4337 -1.8920
  114OSM   C14S11907   5.393   5.600   9.308 -0.3702  1.5194 -0.0019
  114OSM   H14S11908   5.487   5.656   9.284  1.7341 -2.6572 -2.1069
  114OSM   H14T11909   5.314   5.678   9.315 -0.7670  1.2339 -1.2085
  114OSM   C15S11910   5.359   5.487   9.207 -0.1067 -0.4438 -0.0595
  114OSM   H15S11911   5.260   5.451   9.242  0.3429 -1.2464  0.3932
  114OSM   H15T11912   5.434   5.406   9.211 -0.6791 -0.9364  0.9178
  114OSM   C16S11913   5.340   5.544   9.070  0.0024 -0.0610  0.5551
  114OSM   H16S11914   5.412   5.626   9.046 -0.1846 -0.0754 -0.0498
  114OSM   H16T11915   5.238   5.585   9.057  0.1376  0.3913  0.9069
  114OSM   C17S11916   5.350   5.451   8.949  0.0268  0.2323 -0.0601
  114OSM   H17S11917   5.263   5.383   8.942 -0.4902  0.7323  1.2372
  114OSM   H17T11918   5.434   5.380   8.960  0.0810  0.2572 -0.3259
  114OSM   C18S11919   5.357   5.523   8.818 -0.7938  0.3620  0.2387
  114OSM   H18S11920   5.448   5.587   8.816  0.0453 -0.8069 -2.8889
  114OSM   H18T11921   5.269   5.588   8.799  0.6578  2.4710  0.5466
  114OSM   H18U11922   5.373   5.455   8.731  1.8625 -1.4136  2.0453
  114OSM    C1F11923   5.177   5.527  10.595 -0.4542  0.1860 -0.1010
  114OSM     OF11924   5.165   5.640  10.647  0.7059 -0.2047  0.1435
  114OSM    C2F11925   5.066   5.462  10.525  0.1865  0.4668 -0.1598
  114OSM    H2F11926   5.000   5.417  10.602  0.9822  0.0359  0.2788
  114OSM    H2G11927   5.108   5.384  10.458 -2.3383 -0.6392 -0.5085
  114OSM    C3F11928   4.981   5.572  10.454  0.5541 -0.0217  0.1459
  114OSM    H3F11929   4.937   5.642  10.529 -0.3564 -2.1599  1.6723
  114OSM    H3G11930   4.888   5.518  10.426  0.2718 -0.0187  1.0432
  114OSM    C4F11931   5.027   5.653  10.327 -0.3480 -0.2015 -0.3177
  114OSM    H4F11932   5.117   5.716  10.342  0.0319 -0.9420  0.4921
  114OSM    H4G11933   4.946   5.724  10.296 -0.2780  0.1365  0.2645
  114OSM    C5F11934   5.054   5.554  10.213 -0.4521 -0.5542 -0.2508
  114OSM    H5F11935   4.964   5.493  10.189 -0.2528 -0.0641 -2.4038
  114OSM    H5G11936   5.127   5.476  10.246 -1.9739 -0.8404  2.5224
  114OSM    C6F11937   5.110   5.611  10.090  0.0941 -0.1281  0.4565
  114OSM    H6F11938   5.138   5.526  10.026 -0.8105 -2.9793  3.7057
  114OSM    H6G11939   5.195   5.675  10.122 -0.8605  1.5468 -0.2920
  114OSM    C7F11940   5.023   5.704  10.010 -0.2911 -0.5354 -0.5495
  114OSM    H7F11941   4.996   5.789  10.078 -0.1666  0.3486 -1.5963
  114OSM    H7G11942   4.927   5.649  10.001  0.1563 -0.9283 -3.1301
  114OSM    C8F11943   5.084   5.756   9.882  0.6939  0.5426  0.4581
  114OSM    H8F11944   5.156   5.839   9.902 -0.5228  1.3900  1.3376
  114OSM    H8G11945   4.995   5.803   9.835  0.1110  0.8740  1.8716
  114OSM    C9F11946   5.136   5.646   9.798 -0.5344  0.1139  0.2993
  114OSM    H9F11947   5.212   5.584   9.848 -3.1830 -3.4730  0.1033
  114OSM   C10F11948   5.100   5.626   9.669  0.1278 -0.9152 -0.0878
  114OSM   H10F11949   5.148   5.539   9.622  1.3024  1.3314 -3.1748
  114OSM   C11F11950   5.004   5.704   9.582  0.1840  0.7857 -0.2146
  114OSM   H11F11951   4.990   5.810   9.613 -1.2762  0.3147  0.7817
  114OSM   H11G11952   4.905   5.654   9.591  1.6622 -1.9468  1.4872
  114OSM   C12F11953   5.046   5.691   9.435  0.6051 -0.4689  0.2992
  114OSM   H12F11954   5.114   5.605   9.415  1.1688 -0.1141  0.6926
  114OSM   H12G11955   5.092   5.789   9.410  0.5146  0.0551  2.1149
  114OSM   C13F11956   4.921   5.666   9.356  0.1328 -0.3504  0.4292
  114OSM   H13F11957   4.846   5.744   9.382  0.5404  0.7666 -1.6439
  114OSM   H13G11958   4.872   5.568   9.373  2.9953 -1.7891  0.7173
  114OSM   C14F11959   4.949   5.676   9.206  0.2451  0.5284  0.5507
  114OSM   H14F11960   4.996   5.579   9.181 -0.8764 -0.2086  1.2459
  114OSM   H14G11961   5.012   5.763   9.176 -0.7943  0.3404 -2.3656
  114OSM   C15F11962   4.813   5.705   9.137 -0.3406 -0.5136 -0.0886
  114OSM   H15F11963   4.781   5.807   9.165  0.3506 -0.4015  0.3032
  114OSM   H15G11964   4.740   5.623   9.156 -0.9339 -0.0093 -0.1836
  114OSM   C16F11965   4.821   5.685   8.987 -0.4435  0.5459 -0.0877
  114OSM   H16F11966   4.719   5.671   8.943 -1.0898  1.1190  1.2046
  114OSM   H16G11967   4.876   5.590   8.969 -0.8327  0.5620 -1.4075
  114OSM   C17F11968   4.881   5.810   8.919 -0.8055 -0.0543  0.4130
  114OSM   H17F11969   4.972   5.841   8.974 -0.0073 -0.5635 -0.6204
  114OSM   H17G11970   4.808   5.891   8.897 -0.2238 -0.1487 -1.9657
  114OSM   C18F11971   4.947   5.769   8.784  0.1366  0.2950 -0.0147
  114OSM   H18F11972   4.977   5.861   8.730  1.2909  0.1495  0.3811
  114OSM   H18G11973   4.884   5.706   8.718 -0.7387  1.4696 -0.3137
  114OSM   H18H11974   5.040   5.710   8.803  0.6574  0.1355 -2.8870
  115OSM      N11975   2.402   4.486  10.922 -0.0956  0.5491 -0.0680
  115OSM    C1511976   2.503   4.403  11.004 -0.1284 -0.1492  0.4138
  115OSM   H15A11977   2.509   4.302  10.967 -2.5105  0.1229 -0.8423
  115OSM   H15B11978   2.478   4.410  11.108 -0.5023 -1.0293  0.3870
  115OSM   H15C11979   2.601   4.446  10.994  0.6215 -1.9572 -0.2039
  115OSM    C1411980   2.409   4.629  10.950  1.0384 -0.1956 -0.0665
  115OSM   H14A11981   2.506   4.668  10.923  2.1362 -2.9999 -0.3316
  115OSM   H14B11982   2.388   4.647  11.055 -0.9219  0.7560 -0.5945
  115OSM   H14C11983   2.343   4.688  10.887  0.7742  2.2861  2.4125
  115OSM    C1311984   2.436   4.468  10.777  0.6505  0.7868  0.6397
  115OSM   H13A11985   2.368   4.526  10.716  0.5242  0.8377  0.8279
  115OSM   H13B11986   2.404   4.368  10.754 -1.0695  1.2804  0.8171
  115OSM   H13C11987   2.532   4.501  10.740  1.7145 -1.0431  1.6902
  115OSM    C1211988   2.264   4.434  10.946  0.2258  0.7741  0.3505
  115OSM   H12A11989   2.267   4.329  10.922 -0.8221  0.9747 -0.6855
  115OSM   H12B11990   2.196   4.465  10.868  0.1692  1.8489  0.8212
  115OSM    C1111991   2.194   4.437  11.083  0.2333 -0.0812  0.1757
  115OSM   H11A11992   2.263   4.405  11.164 -0.8645 -0.7926  0.8453
  115OSM   H11B11993   2.107   4.369  11.097  0.5681 -0.5132  0.1854
  115OSM      P11994   2.028   4.634  11.042 -0.2006  0.2693  0.0686
  115OSM    O1311995   1.912   4.584  11.114  0.0383 -0.2833 -0.2373
  115OSM    O1411996   2.053   4.782  11.040 -0.0681  0.0015  0.1292
  115OSM    O1111997   2.033   4.575  10.894  0.3232 -0.1911  0.0277
  115OSM    O1211998   2.162   4.571  11.107  0.1406 -0.5456  0.5671
  115OSM    C1S11999   2.039   4.658  10.774 -0.0333 -0.5739  0.1219
  115OSM    H1S12000   2.141   4.702  10.781 -0.5481  0.5714  0.5203
  115OSM    H1T12001   1.968   4.744  10.775  0.2703 -0.1815 -3.6934
  115OSM     NF12002   2.051   4.669  10.524  0.3700 -0.3557  0.7037
  115OSM    HNF12003   1.978   4.723  10.483 -0.4706 -1.8955  0.1552
  115OSM    C2S12004   2.010   4.584  10.637 -0.7886  0.4140 -0.2716
  115OSM    H2S12005   2.078   4.496  10.638 -1.4812 -0.1231 -0.2583
  115OSM    C3S12006   1.865   4.539  10.630 -0.1653 -0.0631  0.5568
  115OSM    H3S12007   1.802   4.630  10.625  2.0861  1.4583 -1.5361
  115OSM     O312008   1.833   4.462  10.747  0.1010 -0.6670 -1.0238
  115OSM    HO312009   1.911   4.475  10.801 -0.7309 -0.1578  0.0634
  115OSM    C4S12010   1.853   4.450  10.512  0.6811  0.1667  0.0232
  115OSM    H4S12011   1.937   4.380  10.502 -0.1504 -0.5994 -2.0453
  115OSM    C5S12012   1.753   4.460  10.421  0.6743 -0.3591 -0.1597
  115OSM    H5S12013   1.671   4.531  10.438 -0.9249 -2.3893  0.9125
  115OSM    C6S12014   1.744   4.374  10.298 -0.7971  0.0734  0.4865
  115OSM    H6S12015   1.701   4.424  10.208 -0.9980  1.2748  1.2452
  115OSM    H6T12016   1.672   4.294  10.326  0.3990 -1.2168 -0.0044
  115OSM    C7S12017   1.873   4.308  10.237 -0.5244  0.2831 -0.3184
  115OSM    H7S12018   1.905   4.223  10.301  0.3137  0.9586  0.1678
  115OSM    H7T12019   1.957   4.380  10.236 -1.1093  0.9671 -0.8594
  115OSM    C8S12020   1.863   4.266  10.094  0.0917  0.2468  0.0151
  115OSM    H8S12021   1.966   4.238  10.063 -0.0453 -2.3883  1.7721
  115OSM    H8T12022   1.830   4.348  10.027 -0.5967 -0.6618 -0.7636
  115OSM    C9S12023   1.781   4.135  10.070  0.1352 -0.4023 -0.2084
  115OSM    H9S12024   1.671   4.145  10.076  0.2013  0.5132 -0.4120
  115OSM    H9T12025   1.806   4.059  10.147 -2.9332 -0.1868  1.0461
  115OSM   C10S12026   1.816   4.075   9.925 -0.6417  0.3759  0.4906
  115OSM   H10S12027   1.760   3.979   9.926  1.6823 -1.0327 -0.2555
  115OSM   H10T12028   1.926   4.057   9.917 -0.3162  2.3017  0.4865
  115OSM   C11S12029   1.781   4.153   9.801  0.3298  0.4438 -0.3061
  115OSM   H11S12030   1.849   4.241   9.808 -0.1921  0.7027  2.1335
  115OSM   H11T12031   1.679   4.196   9.801  0.3391  0.4675 -0.9279
  115OSM   C12S12032   1.811   4.067   9.679 -0.2984 -0.4801  0.5289
  115OSM   H12S12033   1.726   3.997   9.664  1.7627 -2.7142 -1.2154
  115OSM   H12T12034   1.902   4.006   9.698 -1.5389 -2.1760  1.1838
  115OSM   C13S12035   1.834   4.144   9.548  0.2311  0.1186  0.2090
  115OSM   H13S12036   1.924   4.206   9.572  0.8472 -0.6151 -0.1930
  115OSM   H13T12037   1.754   4.219   9.529 -0.2182  0.2854  2.6350
  115OSM   C14S12038   1.858   4.060   9.425  0.1686  0.1790 -0.3599
  115OSM   H14S12039   1.775   3.992   9.395  0.9735 -0.3888 -1.3406
  115OSM   H14T12040   1.934   3.981   9.443 -0.1486 -0.1337 -0.3758
  115OSM   C15S12041   1.889   4.147   9.298 -0.6052  0.1446  0.0316
  115OSM   H15S12042   1.912   4.085   9.209 -2.2611 -1.9073  0.9747
  115OSM   H15T12043   1.984   4.197   9.325 -0.5143 -0.6942  1.3399
  115OSM   C16S12044   1.791   4.254   9.263  0.9457 -0.3963  0.1494
  115OSM   H16S12045   1.780   4.320   9.352  0.1551 -0.7575  0.3204
  115OSM   H16T12046   1.694   4.206   9.238 -0.0951  1.8830 -0.3105
  115OSM   C17S12047   1.835   4.347   9.147  0.1485  0.0410  0.2794
  115OSM   H17S12048   1.817   4.287   9.055  0.6100 -0.0557  0.2539
  115OSM   H17T12049   1.943   4.372   9.150  0.1888  0.1990 -1.5232
  115OSM   C18S12050   1.765   4.475   9.136 -0.1750  0.9123  0.2127
  115OSM   H18S12051   1.804   4.543   9.057  1.3188 -0.5233 -0.3153
  115OSM   H18T12052   1.782   4.541   9.225 -0.3622  1.7123 -0.3399
  115OSM   H18U12053   1.662   4.465   9.096  0.2319 -3.3598  0.0338
  115OSM    C1F12054   2.180   4.693  10.490 -0.4059  0.4729 -0.0634
  115OSM     OF12055   2.271   4.618  10.526 -0.2577 -0.6256 -0.0020
  115OSM    C2F12056   2.203   4.818  10.416 -0.8115  0.0742  0.6538
  115OSM    H2F12057   2.311   4.833  10.435 -0.3294 -2.6713  0.2008
  115OSM    H2G12058   2.140   4.902  10.453 -1.7117 -0.0034 -0.6694
  115OSM    C3F12059   2.198   4.782  10.266 -0.1315  0.9032  0.3203
  115OSM    H3F12060   2.095   4.743  10.257  1.1610 -2.7643  0.4661
  115OSM    H3G12061   2.276   4.707  10.241 -0.2961  1.3075 -1.5426
  115OSM    C4F12062   2.204   4.898  10.168  0.1504 -0.1243 -0.3400
  115OSM    H4F12063   2.305   4.943  10.173  0.0879  0.2280 -1.9623
  115OSM    H4G12064   2.140   4.979  10.208  0.0110 -0.7941  0.8047
  115OSM    C5F12065   2.188   4.864  10.018 -0.2202  0.4220 -0.0282
  115OSM    H5F12066   2.081   4.834  10.008  0.3052 -1.1693 -1.0434
  115OSM    H5G12067   2.245   4.771   9.996  1.0715  1.0846  0.5223
  115OSM    C6F12068   2.231   4.972   9.911 -0.2046 -0.3144  0.1207
  115OSM    H6F12069   2.324   5.003   9.963 -1.2571 -0.6242  2.2540
  115OSM    H6G12070   2.162   5.057   9.928 -2.6459 -2.1868 -0.2116
  115OSM    C7F12071   2.256   4.923   9.769 -0.2481  0.0000 -0.0368
  115OSM    H7F12072   2.319   4.832   9.763 -0.1252  0.1891 -1.9794
  115OSM    H7G12073   2.311   4.998   9.709 -1.5705  0.0793 -1.1788
  115OSM    C8F12074   2.129   4.900   9.680  0.0637  0.7805 -0.1422
  115OSM    H8F12075   2.066   4.849   9.756 -0.0057  2.9905  1.3289
  115OSM    H8G12076   2.155   4.843   9.588  0.6252 -1.8539  1.6072
  115OSM    C9F12077   2.053   5.024   9.654 -0.8376  0.1203  0.2263
  115OSM    H9F12078   2.032   5.089   9.740 -0.9313  1.2402 -0.6371
  115OSM   C10F12079   2.026   5.059   9.528  0.0001  0.0559  0.2574
  115OSM   H10F12080   1.975   5.156   9.529  0.2180  0.1778  2.5870
  115OSM   C11F12081   2.050   4.984   9.399 -0.1576 -0.4498  0.2908
  115OSM   H11F12082   2.000   4.886   9.416  0.9263 -0.5032  3.5301
  115OSM   H11G12083   2.156   4.954   9.384 -0.5101 -0.8990 -1.3880
  115OSM   C12F12084   2.004   5.054   9.269 -0.5718 -0.1836  0.0318
  115OSM   H12F12085   1.896   5.077   9.276 -0.7581 -0.8672 -0.5334
  115OSM   H12G12086   2.018   4.979   9.188  0.7207  1.4939 -1.3270
  115OSM   C13F12087   2.082   5.177   9.226 -0.4862 -0.3463  0.5299
  115OSM   H13F12088   2.184   5.134   9.219  0.0547  0.8999  0.6645
  115OSM   H13G12089   2.094   5.250   9.309 -2.2473 -2.2235  2.4813
  115OSM   C14F12090   2.044   5.243   9.088  0.3198 -0.0205  0.0022
  115OSM   H14F12091   1.944   5.291   9.082  0.3320 -0.0574 -0.5812
  115OSM   H14G12092   2.052   5.163   9.010 -1.8386 -1.1105  0.8494
  115OSM   C15F12093   2.141   5.355   9.063 -0.5973 -0.9637  0.0794
  115OSM   H15F12094   2.244   5.312   9.062 -1.0703 -2.1771  1.3790
  115OSM   H15G12095   2.130   5.413   9.157  0.1535 -2.1146  0.9023
  115OSM   C16F12096   2.100   5.436   8.935 -0.2786 -0.1388  0.5209
  115OSM   H16F12097   1.991   5.457   8.930 -0.2600 -0.4528 -1.8825
  115OSM   H16G12098   2.118   5.373   8.845  0.8678  0.9404 -0.0353
  115OSM   C17F12099   2.171   5.578   8.917 -0.0685 -0.2791 -0.8082
  115OSM   H17F12100   2.281   5.567   8.908 -0.0045 -0.0512 -0.3223
  115OSM   H17G12101   2.167   5.626   9.017 -0.6947 -2.3789  0.2143
  115OSM   C18F12102   2.119   5.668   8.804 -0.6785 -0.0433 -0.2357
  115OSM   H18F12103   2.125   5.606   8.712  0.0124  0.5181 -0.5805
  115OSM   H18G12104   2.175   5.762   8.782  1.0701 -1.1125 -0.4676
  115OSM   H18H12105   2.013   5.699   8.811 -0.7902 -0.0462 -1.7206
  116OSM      N12106   4.784   1.357  11.351 -0.4286  0.4140  0.4127
  116OSM    C1512107   4.656   1.423  11.380 -0.2996 -0.8129 -0.3463
  116OSM   H15A12108   4.670   1.511  11.441 -0.1945 -2.0931  1.5249
  116OSM   H15B12109   4.585   1.361  11.432 -3.9584  2.3274 -1.3412
  116OSM   H15C12110   4.609   1.468  11.294  2.4858  2.6676 -0.1885
  116OSM    C1412111   4.858   1.350  11.485  0.0531  0.6436 -0.0926
  116OSM   H14A12112   4.788   1.307  11.555  0.0950 -1.5742 -1.3646
  116OSM   H14B12113   4.892   1.448  11.515  2.1389 -0.3922  1.0318
  116OSM   H14C12114   4.943   1.286  11.465  0.9803  1.7839  0.1692
  116OSM    C1312115   4.753   1.221  11.298  0.0837  0.3061  0.4887
  116OSM   H13A12116   4.844   1.177  11.259 -0.5191 -2.8228  2.3884
  116OSM   H13B12117   4.683   1.239  11.218  2.9918  0.6176 -2.0934
  116OSM   H13C12118   4.710   1.162  11.378 -0.2730  1.8911  1.4932
  116OSM    C1212119   4.868   1.447  11.263  0.6540 -0.1302  0.4644
  116OSM   H12A12120   4.877   1.546  11.305 -3.7894  1.1189 -1.2127
  116OSM   H12B12121   4.814   1.454  11.169  0.0294 -0.1430  0.8174
  116OSM    C1112122   5.021   1.398  11.236 -0.8380  0.0332 -0.2410
  116OSM   H11A12123   5.092   1.397  11.321 -1.2752  1.6973  0.1721
  116OSM   H11B12124   5.066   1.478  11.173  1.6026 -0.6105  0.6450
  116OSM      P12125   5.015   1.258  11.016  0.2102 -0.0188  0.7122
  116OSM    O1312126   4.967   1.120  10.978  0.2298  0.0767  0.0544
  116OSM    O1412127   4.936   1.363  10.953 -0.1664 -0.1203  0.5499
  116OSM    O1112128   5.168   1.274  10.976 -0.0428 -0.6285 -0.5143
  116OSM    O1212129   5.024   1.273  11.168 -0.1175  0.3085 -0.3778
  116OSM    C1S12130   5.203   1.252  10.838  0.2402 -0.1830  0.2831
  116OSM    H1S12131   5.134   1.184  10.783 -0.6185 -0.3775  1.5869
  116OSM    H1T12132   5.304   1.206  10.840 -0.3852 -1.5892  0.2620
  116OSM     NF12133   5.243   1.336  10.610  0.1909 -0.0258  0.0996
  116OSM    HNF12134   5.337   1.346  10.579  0.5599 -1.0438  0.8783
  116OSM    C2S12135   5.223   1.381  10.754 -0.3626 -0.1783 -0.3453
  116OSM    H2S12136   5.134   1.447  10.752 -0.4879 -0.3097  0.6631
  116OSM    C3S12137   5.346   1.453  10.810  0.5009  0.7074  0.5068
  116OSM    H3S12138   5.438   1.393  10.796 -0.9479 -0.9126 -2.5890
  116OSM     O312139   5.333   1.481  10.949 -0.5280 -0.2946 -0.4526
  116OSM    HO312140   5.260   1.430  10.985 -0.9651 -0.0182 -0.9350
  116OSM    C4S12141   5.361   1.584  10.736  0.5228  0.2660  1.3563
  116OSM    H4S12142   5.267   1.642  10.735  0.6580  0.4857  0.2800
  116OSM    C5S12143   5.465   1.643  10.676  0.3771  0.0345 -0.2129
  116OSM    H5S12144   5.558   1.586  10.659  0.3904 -0.4983  1.6166
  116OSM    C6S12145   5.443   1.765  10.593 -0.9755  0.0128 -0.0157
  116OSM    H6S12146   5.523   1.833  10.629 -0.5313  0.0123 -0.9665
  116OSM    H6T12147   5.350   1.820  10.618 -0.9266 -0.0747  0.3554
  116OSM    C7S12148   5.454   1.737  10.439  0.7045  0.4191  0.6425
  116OSM    H7S12149   5.351   1.710  10.405  1.6464 -1.1446 -1.0812
  116OSM    H7T12150   5.523   1.652  10.421 -0.2282 -0.4318  1.0376
  116OSM    C8S12151   5.487   1.854  10.349 -0.1686  0.2561 -0.2295
  116OSM    H8S12152   5.596   1.868  10.365 -0.0382 -2.6456  1.9114
  116OSM    H8T12153   5.425   1.939  10.383  0.9400  0.4873  1.2105
  116OSM    C9S12154   5.465   1.818  10.197  0.7372 -0.0389  0.1917
  116OSM    H9S12155   5.527   1.730  10.169  0.2744 -0.1182 -0.5766
  116OSM    H9T12156   5.513   1.902  10.142  0.5945 -0.5340 -0.7021
  116OSM   C10S12157   5.325   1.800  10.148  0.6804  0.6194  0.1453
  116OSM   H10S12158   5.259   1.864  10.209  0.5124  1.4285 -0.8675
  116OSM   H10T12159   5.296   1.696  10.174 -0.3781  1.3874  2.0511
  116OSM   C11S12160   5.303   1.832   9.998 -0.1336  0.3396  0.1346
  116OSM   H11S12161   5.320   1.941   9.985 -1.0454  0.3086 -1.4422
  116OSM   H11T12162   5.196   1.809   9.977  0.1725 -0.3174 -0.7377
  116OSM   C12S12163   5.390   1.750   9.895 -0.5766  0.4101  0.4488
  116OSM   H12S12164   5.375   1.642   9.914 -2.2107  0.4512 -0.4979
  116OSM   H12T12165   5.497   1.776   9.911 -0.2073 -0.4225 -0.6242
  116OSM   C13S12166   5.357   1.779   9.750  0.0789 -0.1028 -0.4842
  116OSM   H13S12167   5.342   1.889   9.744  0.1526 -0.1188 -0.9530
  116OSM   H13T12168   5.261   1.731   9.723  1.1461 -2.8515  0.4599
  116OSM   C14S12169   5.468   1.725   9.656  0.0091 -0.5194  0.4182
  116OSM   H14S12170   5.490   1.618   9.672 -1.0430 -0.4071  2.7846
  116OSM   H14T12171   5.565   1.772   9.686 -0.9582  1.4159  0.5942
  116OSM   C15S12172   5.444   1.738   9.505  0.4741  0.1858 -0.3058
  116OSM   H15S12173   5.417   1.841   9.472  0.7339  0.1952 -0.4921
  116OSM   H15T12174   5.365   1.668   9.470  0.6172  1.7821 -4.1427
  116OSM   C16S12175   5.571   1.694   9.440 -0.7111  0.4180 -1.4788
  116OSM   H16S12176   5.593   1.588   9.465  1.2625  0.6835 -2.0302
  116OSM   H16T12177   5.652   1.768   9.459  0.3921 -1.4918  1.5401
  116OSM   C17S12178   5.550   1.687   9.287  0.1622  0.2236  0.0790
  116OSM   H17S12179   5.518   1.788   9.252 -2.2002 -0.2630  0.7529
  116OSM   H17T12180   5.473   1.610   9.268  0.3556 -0.2628  1.2782
  116OSM   C18S12181   5.675   1.655   9.212  0.2518 -0.0655 -0.3154
  116OSM   H18S12182   5.748   1.710   9.276  0.5353 -0.5329 -0.2332
  116OSM   H18T12183   5.669   1.689   9.106 -1.0137 -0.0014 -0.2239
  116OSM   H18U12184   5.702   1.547   9.214 -1.7801 -0.6198 -1.5204
  116OSM    C1F12185   5.153   1.286  10.534  0.7859  1.2061  0.6139
  116OSM     OF12186   5.036   1.275  10.563 -0.3307  0.2069  0.2332
  116OSM    C2F12187   5.192   1.235  10.396  0.2226  0.1118 -0.1881
  116OSM    H2F12188   5.191   1.125  10.412  3.2424  0.3224  1.8847
  116OSM    H2G12189   5.294   1.271  10.369 -0.2054  2.5867  1.3308
  116OSM    C3F12190   5.085   1.280  10.297  0.6867 -0.3994 -0.0090
  116OSM    H3F12191   5.100   1.390  10.288  1.0422 -0.5490 -1.4066
  116OSM    H3G12192   4.977   1.260  10.310  0.4503 -0.7552 -2.3510
  116OSM    C4F12193   5.110   1.215  10.156  0.6467 -0.8033  0.5100
  116OSM    H4F12194   5.066   1.113  10.166  0.0619 -0.7321 -1.2889
  116OSM    H4G12195   5.217   1.189  10.135  0.3316 -1.3058 -0.5103
  116OSM    C5F12196   5.036   1.268  10.029  0.3248 -0.1723  0.3376
  116OSM    H5F12197   4.943   1.307  10.076 -0.2433 -2.4848  1.2239
  116OSM    H5G12198   5.021   1.184   9.958  0.7027  0.2134 -0.2035
  116OSM    C6F12199   5.103   1.377   9.955 -0.4453  0.0386  0.3349
  116OSM    H6F12200   5.214   1.381   9.944 -0.2296 -0.5189  2.1719
  116OSM    H6G12201   5.080   1.475  10.001  4.0731  1.2113  0.3691
  116OSM    C7F12202   5.058   1.392   9.810  0.5913  0.0941  0.4189
  116OSM    H7F12203   5.071   1.497   9.778 -1.6592 -0.4884 -2.7068
  116OSM    H7G12204   4.948   1.374   9.810  0.5257  0.4761  1.2759
  116OSM    C8F12205   5.118   1.292   9.710 -0.1499  0.6653  0.5253
  116OSM    H8F12206   5.121   1.188   9.749  0.8156  0.2469 -0.6080
  116OSM    H8G12207   5.225   1.324   9.702 -0.5726  2.0612  0.3113
  116OSM    C9F12208   5.054   1.302   9.574 -0.1447 -0.4248 -0.0468
  116OSM    H9F12209   4.949   1.271   9.572 -1.1766  2.8482  0.4120
  116OSM   C10F12210   5.105   1.355   9.457 -0.0360  0.2945 -1.1542
  116OSM   H10F12211   5.052   1.362   9.361 -2.0218  3.1813  0.0640
  116OSM   C11F12212   5.245   1.416   9.444  1.0704 -0.2266 -0.0495
  116OSM   H11F12213   5.263   1.457   9.546 -2.2020 -1.8643  1.2583
  116OSM   H11G12214   5.241   1.494   9.365  0.3368 -0.4736 -0.2527
  116OSM   C12F12215   5.366   1.337   9.396 -0.0834  0.5846  0.0543
  116OSM   H12F12216   5.361   1.242   9.453 -1.9803  0.1525 -0.8175
  116OSM   H12G12217   5.458   1.395   9.421  1.8248 -1.5333 -1.8386
  116OSM   C13F12218   5.366   1.301   9.248 -0.1325  0.6294 -0.0372
  116OSM   H13F12219   5.381   1.384   9.176  2.1140  1.6199  1.5084
  116OSM   H13G12220   5.274   1.242   9.226  0.9386 -0.8731 -0.5156
  116OSM   C14F12221   5.484   1.218   9.208  0.5281  0.1247 -0.8829
  116OSM   H14F12222   5.490   1.131   9.276 -0.1188  0.8101  0.0608
  116OSM   H14G12223   5.575   1.281   9.222  0.6239 -0.1104 -0.4289
  116OSM   C15F12224   5.474   1.155   9.074 -0.0618  0.0760 -0.4108
  116OSM   H15F12225   5.369   1.135   9.043  0.5113 -1.3203 -1.5439
  116OSM   H15G12226   5.533   1.061   9.069 -0.5103 -0.3017  1.1882
  116OSM   C16F12227   5.541   1.245   8.959  0.2846  0.5013  0.1764
  116OSM   H16F12228   5.650   1.238   8.982  0.3490 -0.5478 -0.4024
  116OSM   H16G12229   5.508   1.350   8.973 -2.3624 -0.3007  0.0874
  116OSM   C17F12230   5.507   1.202   8.817 -0.1674 -0.1256 -0.5950
  116OSM   H17F12231   5.397   1.212   8.814 -0.2026 -0.0539  0.7678
  116OSM   H17G12232   5.532   1.095   8.800 -1.5939 -0.8378  1.5786
  116OSM   C18F12233   5.557   1.277   8.693 -0.1645 -0.4341  0.0674
  116OSM   H18F12234   5.514   1.219   8.608 -0.8716  2.3004 -1.4922
  116OSM   H18G12235   5.668   1.286   8.690  0.0433 -2.9303 -1.8248
  116OSM   H18H12236   5.514   1.379   8.689 -0.2805 -0.3840  2.2419
  117OSM      N12237   2.772   2.079  11.070 -0.0607 -0.1581  0.6375
  117OSM    C1512238   2.817   2.004  11.195 -0.2381 -0.1629 -0.2089
  117OSM   H15A12239   2.852   1.908  11.162  2.2263  0.5904  0.1642
  117OSM   H15B12240   2.729   1.983  11.255 -0.9833 -0.0379 -1.2330
  117OSM   H15C12241   2.895   2.057  11.248 -1.0786 -0.6967  1.6041
  117OSM    C1412242   2.706   1.990  10.962  0.1959  0.6294 -0.1856
  117OSM   H14A12243   2.611   1.948  10.991  1.8518 -0.0427  4.7069
  117OSM   H14B12244   2.772   1.906  10.947  1.0423  1.3656 -0.6340
  117OSM   H14C12245   2.688   2.047  10.872 -0.6535  1.5555  0.5673
  117OSM    C1312246   2.677   2.183  11.107  0.5866 -0.6604 -0.1604
  117OSM   H13A12247   2.687   2.268  11.041 -0.0014 -0.0598  0.5021
  117OSM   H13B12248   2.698   2.227  11.204  2.2901  1.0713 -1.3034
  117OSM   H13C12249   2.577   2.144  11.095  0.5597 -0.4449 -0.6381
  117OSM    C1212250   2.886   2.147  11.000 -0.1578 -1.2555  0.3827
  117OSM   H12A12251   2.936   2.216  11.066 -2.0675  0.6875 -0.1609
  117OSM   H12B12252   2.846   2.211  10.923  0.0493 -1.2355  0.2909
  117OSM    C1112253   2.992   2.065  10.927 -0.0632  0.3789  0.4768
  117OSM   H11A12254   3.065   2.131  10.876  2.3359 -2.7194 -0.2985
  117OSM   H11B12255   2.941   2.011  10.844 -2.0565  0.3529  1.6867
  117OSM      P12256   3.138   1.849  10.981  0.0074  0.0379 -0.5154
  117OSM    O1312257   3.256   1.843  11.066  0.6026  0.3441  0.0039
  117OSM    O1412258   3.042   1.736  10.981  0.0991  0.1618  0.0644
  117OSM    O1112259   3.181   1.884  10.829 -0.4232  0.3704 -0.2455
  117OSM    O1212260   3.058   1.976  11.019  0.3374 -0.0767 -0.3965
  117OSM    C1S12261   3.300   1.956  10.811  0.4110 -0.1873 -0.0138
  117OSM    H1S12262   3.388   1.910  10.861  0.2088  0.9436  1.4223
  117OSM    H1T12263   3.287   2.054  10.861 -0.4363  0.4772 -1.5203
  117OSM     NF12264   3.457   2.023  10.636  0.3147 -0.7208 -0.2605
  117OSM    HNF12265   3.466   2.119  10.611  0.5952 -0.7768 -0.3873
  117OSM    C2S12266   3.327   1.967  10.661  0.0646 -0.3562  0.3134
  117OSM    H2S12267   3.316   1.871  10.606 -0.1714  0.9665 -2.0444
  117OSM    C3S12268   3.216   2.060  10.600 -0.8046 -0.4030 -0.1515
  117OSM    H3S12269   3.223   2.158  10.651  2.2220 -1.6719  2.0268
  117OSM     O312270   3.083   2.014  10.634 -0.9410  0.2478  0.2955
  117OSM    HO312271   3.100   1.936  10.689 -0.1765  0.6125  0.5882
  117OSM    C4S12272   3.231   2.061  10.450 -0.1243 -0.0881  0.0284
  117OSM    H4S12273   3.284   2.147  10.406 -0.5794 -0.5163 -1.3737
  117OSM    C5S12274   3.194   1.971  10.356  0.4528  0.4324 -0.0794
  117OSM    H5S12275   3.129   1.886  10.382  1.1493 -0.2162 -0.4048
  117OSM    C6S12276   3.219   1.986  10.214 -0.3851  0.2716 -0.1426
  117OSM    H6S12277   3.278   1.897  10.182  2.1334  1.1158  1.9964
  117OSM    H6T12278   3.273   2.079  10.188 -2.2140  0.9131 -1.8069
  117OSM    C7S12279   3.084   1.999  10.128  0.0391 -0.1752 -0.5732
  117OSM    H7S12280   3.022   2.091  10.135 -1.6699 -1.3237 -0.3002
  117OSM    H7T12281   3.028   1.904  10.142 -1.4024  0.5952 -1.0335
  117OSM    C8S12282   3.110   2.000   9.976  0.0698 -0.6143 -0.8843
  117OSM    H8S12283   3.184   1.925   9.941  0.9752 -0.4783  0.6568
  117OSM    H8T12284   3.165   2.093   9.953 -1.8083  0.9843  0.8567
  117OSM    C9S12285   2.983   1.978   9.896 -0.0765  0.3830 -0.3859
  117OSM    H9S12286   2.899   2.047   9.920 -0.2036 -0.6713  2.3018
  117OSM    H9T12287   2.946   1.877   9.923 -0.6717  1.4720  3.1398
  117OSM   C10S12288   3.004   1.979   9.740  0.6031 -0.2292 -0.3124
  117OSM   H10S12289   2.918   1.933   9.689  1.2522 -0.6150 -1.0653
  117OSM   H10T12290   3.092   1.912   9.728  0.7059 -0.4354  1.4013
  117OSM   C11S12291   3.028   2.118   9.683  0.1812  0.2310 -0.2188
  117OSM   H11S12292   3.113   2.157   9.743  0.6260 -0.8655 -0.1237
  117OSM   H11T12293   2.941   2.185   9.699 -0.3268 -0.9872  2.4779
  117OSM   C12S12294   3.074   2.111   9.537  0.3210  0.2113  0.3532
  117OSM   H12S12295   3.153   2.033   9.535 -0.5380 -0.7002  1.0808
  117OSM   H12T12296   3.112   2.211   9.508 -1.4512  0.5799 -0.8126
  117OSM   C13S12297   2.957   2.068   9.444  0.8758 -0.0234 -0.4018
  117OSM   H13S12298   2.864   2.128   9.455  1.2118  0.5808 -0.8243
  117OSM   H13T12299   2.920   1.966   9.467 -3.3375  0.7683 -3.0712
  117OSM   C14S12300   2.993   2.064   9.297  0.4842 -0.4305 -0.2392
  117OSM   H14S12301   3.087   2.010   9.272  0.7188 -0.4675  0.7297
  117OSM   H14T12302   3.014   2.167   9.261  0.0998  0.1550  1.1948
  117OSM   C15S12303   2.880   2.014   9.201 -0.5001  0.0603  0.4895
  117OSM   H15S12304   2.793   2.072   9.238  0.8463  2.4646 -0.0530
  117OSM   H15T12305   2.862   1.905   9.214  1.2609 -0.4789 -1.2601
  117OSM   C16S12306   2.911   2.048   9.047 -0.0897  0.1919  0.3452
  117OSM   H16S12307   3.015   2.019   9.021 -0.1985 -0.0922  0.2223
  117OSM   H16T12308   2.901   2.158   9.040 -1.2897  0.0979  0.4710
  117OSM   C17S12309   2.812   1.962   8.956 -0.3483 -0.2158 -0.5794
  117OSM   H17S12310   2.711   1.984   8.996  0.8048  1.0237  1.7526
  117OSM   H17T12311   2.847   1.858   8.970 -0.6505 -0.0432  1.6274
  117OSM   C18S12312   2.826   2.004   8.817 -0.2994  0.4169  0.1420
  117OSM   H18S12313   2.830   2.114   8.806  0.6539  0.2545 -1.2588
  117OSM   H18T12314   2.743   1.969   8.752  2.1690  1.2876 -3.6588
  117OSM   H18U12315   2.924   1.980   8.769 -0.5970  1.4806 -1.0096
  117OSM    C1F12316   3.574   1.953  10.655 -0.0689  0.3857 -0.2608
  117OSM     OF12317   3.564   1.842  10.706  0.2827  0.3655  0.4140
  117OSM    C2F12318   3.704   2.022  10.622 -0.0655 -0.3068 -0.1544
  117OSM    H2F12319   3.762   2.025  10.716 -0.3857 -1.0893  0.0703
  117OSM    H2G12320   3.676   2.126  10.594 -0.3868  0.3892  2.6304
  117OSM    C3F12321   3.795   1.961  10.508 -0.7112 -0.1932 -0.1545
  117OSM    H3F12322   3.824   1.855  10.519  2.4572  0.7369  1.0202
  117OSM    H3G12323   3.884   2.027  10.514 -0.8536 -0.0625  0.4983
  117OSM    C4F12324   3.752   1.982  10.361  0.1184  0.1820  0.3909
  117OSM    H4F12325   3.850   1.992  10.310 -1.2299  0.1700 -2.3122
  117OSM    H4G12326   3.701   2.080  10.361 -1.1392 -0.4617  0.9809
  117OSM    C5F12327   3.660   1.878  10.305 -0.7085  0.2175  0.0446
  117OSM    H5F12328   3.587   1.841  10.380  0.0078  0.8099  1.0586
  117OSM    H5G12329   3.719   1.790  10.272 -0.7829  0.0763  0.2842
  117OSM    C6F12330   3.579   1.935  10.192  0.0423  0.5284  0.1554
  117OSM    H6F12331   3.515   2.020  10.223  0.1415  0.0592  1.7283
  117OSM    H6G12332   3.503   1.859  10.165 -0.8449  1.0705  1.0643
  117OSM    C7F12333   3.667   1.950  10.068 -0.0275 -0.0957 -0.3280
  117OSM    H7F12334   3.716   1.851  10.053  0.2570 -0.1968  1.1638
  117OSM    H7G12335   3.748   2.024  10.080  1.3940 -1.7790  0.6383
  117OSM    C8F12336   3.583   1.991   9.948  0.0626 -0.1396  0.0483
  117OSM    H8F12337   3.652   2.027   9.869 -1.2351 -0.9331 -1.4588
  117OSM    H8G12338   3.518   2.077   9.975 -1.6976 -1.9487  1.7519
  117OSM    C9F12339   3.490   1.886   9.893 -0.1371 -0.6862  0.0696
  117OSM    H9F12340   3.430   1.823   9.961 -2.9103 -0.1365 -1.7856
  117OSM   C10F12341   3.472   1.843   9.768  0.6824 -0.7636  0.1022
  117OSM   H10F12342   3.393   1.769   9.752  0.2866 -0.3318  0.0519
  117OSM   C11F12343   3.548   1.898   9.651  0.0500 -0.0333  0.4057
  117OSM   H11F12344   3.629   1.825   9.626  0.4765  1.0989 -1.6094
  117OSM   H11G12345   3.600   1.994   9.669  1.6675 -0.8589  0.2569
  117OSM   C12F12346   3.466   1.907   9.526 -0.5018  0.2321 -0.1435
  117OSM   H12F12347   3.383   1.979   9.541 -0.1821  0.6986 -0.6082
  117OSM   H12G12348   3.417   1.808   9.513  1.5803 -0.5959 -2.0653
  117OSM   C13F12349   3.540   1.913   9.395 -0.4855  0.2932 -0.6722
  117OSM   H13F12350   3.629   1.847   9.407 -0.5282  0.5342  1.1874
  117OSM   H13G12351   3.583   2.015   9.387 -1.5432  0.8194  0.3113
  117OSM   C14F12352   3.463   1.879   9.269 -0.3204  0.1574  0.0123
  117OSM   H14F12353   3.414   1.969   9.226 -0.9084  0.5932  1.5474
  117OSM   H14G12354   3.381   1.805   9.283 -0.0057  0.2841  3.0307
  117OSM   C15F12355   3.559   1.834   9.155  0.4881  0.0223  0.5651
  117OSM   H15F12356   3.607   1.745   9.203 -1.4234 -0.6666  1.2555
  117OSM   H15G12357   3.634   1.914   9.138  0.2770  0.2103  0.5238
  117OSM   C16F12358   3.487   1.786   9.030 -0.0298  0.6627 -0.4062
  117OSM   H16F12359   3.405   1.716   9.058  2.0673 -1.4796  0.5664
  117OSM   H16G12360   3.564   1.722   8.982 -1.7611 -0.3817 -1.8694
  117OSM   C17F12361   3.440   1.899   8.934 -0.3474  0.1407 -0.0256
  117OSM   H17F12362   3.532   1.957   8.911 -0.7167  0.0785 -1.7475
  117OSM   H17G12363   3.377   1.975   8.986  1.6523  1.7659  0.1005
  117OSM   C18F12364   3.367   1.843   8.808 -0.3888 -0.3017 -0.0731
  117OSM   H18F12365   3.331   1.930   8.750 -0.2527 -0.1583  0.0595
  117OSM   H18G12366   3.282   1.772   8.825  0.3250 -0.6860  2.0388
  117OSM   H18H12367   3.441   1.791   8.743  0.8874 -0.5523  1.5455
  118OSM      N12368   3.670   2.664  11.026  0.1502 -0.0973 -0.3229
  118OSM    C1512369   3.797   2.587  10.991  0.7717  0.0741  0.2785
  118OSM   H15A12370   3.785   2.492  10.941 -0.0674  0.1388  0.3550
  118OSM   H15B12371   3.851   2.564  11.081 -2.9575 -2.8084  1.8981
  118OSM   H15C12372   3.859   2.638  10.918 -0.4020  1.7352  0.4095
  118OSM    C1412373   3.591   2.591  11.130  0.2986 -0.3385  1.3117
  118OSM   H14A12374   3.545   2.497  11.103 -1.2164  0.4261  1.1862
  118OSM   H14B12375   3.517   2.654  11.176  1.1957 -0.3883  2.8306
  118OSM   H14C12376   3.656   2.572  11.214  1.1670 -1.2980  0.4427
  118OSM    C1312377   3.709   2.796  11.076 -0.5829 -0.1455 -0.0010
  118OSM   H13A12378   3.772   2.785  11.163 -0.5412  0.8517  0.0999
  118OSM   H13B12379   3.625   2.852  11.112  0.4132 -0.1026  2.3311
  118OSM   H13C12380   3.765   2.853  11.003  0.0199  0.3367  0.8392
  118OSM    C1212381   3.585   2.688  10.903 -0.0844 -0.1651 -0.2750
  118OSM   H12A12382   3.562   2.591  10.863 -2.6554  0.4141 -0.2863
  118OSM   H12B12383   3.643   2.744  10.832  0.6894 -0.8286 -0.1672
  118OSM    C1112384   3.447   2.775  10.916  0.2489 -0.0964  0.6807
  118OSM   H11A12385   3.369   2.725  10.976 -1.5773  1.6080 -0.2190
  118OSM   H11B12386   3.402   2.775  10.814  1.9733  0.3549 -0.1025
  118OSM      P12387   3.376   2.994  11.049 -0.2026  0.0843 -0.2997
  118OSM    O1312388   3.332   2.923  11.170  0.3392 -0.1934  0.3385
  118OSM    O1412389   3.453   3.117  11.075 -0.3437  0.3326  0.1682
  118OSM    O1112390   3.262   3.016  10.948 -0.2681  0.1617  0.5167
  118OSM    O1212391   3.472   2.905  10.969 -0.0477  0.2131  0.2880
  118OSM    C1S12392   3.305   3.080  10.825 -0.6211 -0.8424  0.5034
  118OSM    H1S12393   3.407   3.047  10.795 -0.0839  3.0048 -2.2775
  118OSM    H1T12394   3.310   3.189  10.844 -0.2143 -0.8162  0.2639
  118OSM     NF12395   3.265   3.123  10.589  0.2472  0.6132  0.7981
  118OSM    HNF12396   3.196   3.179  10.544  1.2295  0.4888 -0.9297
  118OSM    C2S12397   3.217   3.049  10.701 -0.3609 -0.8703  0.2923
  118OSM    H2S12398   3.235   2.940  10.686  1.9499 -0.2377 -1.8980
  118OSM    C3S12399   3.068   3.069  10.734 -0.3684 -0.4702 -0.2139
  118OSM    H3S12400   3.056   3.167  10.784  1.4559  0.2906 -1.2201
  118OSM     O312401   3.034   2.976  10.835  0.0654 -0.6397 -0.2450
  118OSM    HO312402   3.119   2.974  10.879  0.1769 -1.4210 -0.4893
  118OSM    C4S12403   2.980   3.055  10.616  0.1626  0.2457  0.7535
  118OSM    H4S12404   2.966   2.961  10.561 -0.3299 -0.1213  1.5022
  118OSM    C5S12405   2.917   3.166  10.560 -0.9307 -0.4394  0.0701
  118OSM    H5S12406   2.925   3.268  10.602 -1.3699 -0.7210  0.8590
  118OSM    C6S12407   2.830   3.153  10.441  0.9293 -0.0447 -0.0423
  118OSM    H6S12408   2.722   3.175  10.449  1.1558  1.0538  0.0994
  118OSM    H6T12409   2.837   3.049  10.403  0.4341  0.0795 -0.4672
  118OSM    C7S12410   2.872   3.237  10.318  0.0315  0.4061 -0.4815
  118OSM    H7S12411   2.896   3.341  10.346  0.1291  0.6523 -1.4500
  118OSM    H7T12412   2.794   3.230  10.239 -1.0872 -1.1139  0.7184
  118OSM    C8S12413   2.993   3.175  10.239 -1.1727  0.0958 -0.8197
  118OSM    H8S12414   2.955   3.080  10.198 -1.4100  0.3847 -1.2760
  118OSM    H8T12415   3.065   3.143  10.317  0.6772 -1.3621 -3.0581
  118OSM    C9S12416   3.059   3.264  10.128 -0.7022 -0.2621  0.5543
  118OSM    H9S12417   3.118   3.197  10.062  2.1579  1.2523  1.5345
  118OSM    H9T12418   3.127   3.329  10.186  0.4034 -0.9160  0.0039
  118OSM   C10S12419   2.963   3.351  10.053 -0.1547 -0.7582  0.6319
  118OSM   H10S12420   2.908   3.432  10.107  1.7565  0.3426  0.9596
  118OSM   H10T12421   2.888   3.278  10.016 -0.8900  0.6452 -0.6993
  118OSM   C11S12422   3.040   3.413   9.925  0.1151 -0.3793 -0.4048
  118OSM   H11S12423   3.062   3.333   9.852  1.4432  1.4481 -2.0337
  118OSM   H11T12424   3.133   3.458   9.966  0.6372 -0.3892 -1.5764
  118OSM   C12S12425   2.952   3.517   9.853  0.0619  0.3695 -0.0461
  118OSM   H12S12426   2.910   3.586   9.930 -1.2273  0.2147 -0.5912
  118OSM   H12T12427   2.868   3.473   9.795  0.5917  0.1953 -0.6892
  118OSM   C13S12428   3.043   3.597   9.753  0.2751  0.4528 -0.5319
  118OSM   H13S12429   3.110   3.655   9.820  0.5089 -0.6486  0.1915
  118OSM   H13T12430   2.990   3.680   9.699  1.8770  0.2734 -2.4308
  118OSM   C14S12431   3.113   3.512   9.644 -0.0216 -0.2998 -0.2867
  118OSM   H14S12432   3.179   3.440   9.696 -0.6513 -1.7059 -1.3885
  118OSM   H14T12433   3.174   3.578   9.579 -0.3479 -0.3621 -0.6564
  118OSM   C15S12434   3.028   3.421   9.556 -0.5442  0.0270  0.5870
  118OSM   H15S12435   2.945   3.478   9.509  0.1102 -0.7011 -1.4950
  118OSM   H15T12436   2.973   3.348   9.619  2.7790 -0.5824  2.9317
  118OSM   C16S12437   3.105   3.338   9.450  0.6030  0.2121 -0.0185
  118OSM   H16S12438   3.039   3.266   9.396 -1.0728  1.0069  0.9379
  118OSM   H16T12439   3.186   3.272   9.489  0.7184 -0.6453 -1.6706
  118OSM   C17S12440   3.188   3.414   9.345 -0.6735 -0.5282  0.4631
  118OSM   H17S12441   3.228   3.510   9.384 -2.3574  1.1994 -1.9351
  118OSM   H17T12442   3.118   3.456   9.269 -0.5818  1.8437  1.6359
  118OSM   C18S12443   3.305   3.330   9.284  1.0094  0.1002 -0.0839
  118OSM   H18S12444   3.358   3.300   9.376 -0.2624 -2.3023 -0.1027
  118OSM   H18T12445   3.362   3.390   9.209 -0.3583  0.2967 -1.0114
  118OSM   H18U12446   3.279   3.240   9.225 -0.6821  0.5836 -0.1244
  118OSM    C1F12447   3.393   3.125  10.537  0.0864  0.3693 -0.6784
  118OSM     OF12448   3.475   3.040  10.572 -0.2503 -0.3321 -0.3144
  118OSM    C2F12449   3.429   3.230  10.442  0.9232 -0.3644  0.1445
  118OSM    H2F12450   3.525   3.276  10.474  1.0584 -1.3224  1.1453
  118OSM    H2G12451   3.342   3.299  10.442  1.2444  0.0486 -1.1341
  118OSM    C3F12452   3.426   3.172  10.298  0.7484  0.6433  0.4599
  118OSM    H3F12453   3.329   3.125  10.271  1.0460  0.0264  0.4724
  118OSM    H3G12454   3.510   3.101  10.285  2.0107  2.0873  0.5589
  118OSM    C4F12455   3.446   3.273  10.181 -0.6098  0.5321  0.2253
  118OSM    H4F12456   3.544   3.326  10.189 -0.6168  0.8882 -1.8602
  118OSM    H4G12457   3.368   3.351  10.195  0.6885  1.8645  0.2833
  118OSM    C5F12458   3.422   3.200  10.047 -0.4485 -0.6135  0.2001
  118OSM    H5F12459   3.326   3.149  10.026 -0.1133 -1.3947  0.5311
  118OSM    H5G12460   3.507   3.129  10.052  0.7896  0.8802  0.7051
  118OSM    C6F12461   3.439   3.284   9.924  0.5677  0.0442 -0.3935
  118OSM    H6F12462   3.538   3.334   9.935 -0.2804  0.9468  3.9415
  118OSM    H6G12463   3.362   3.364   9.930  3.3164  2.8267 -0.8160
  118OSM    C7F12464   3.420   3.212   9.789 -0.5591  0.1326 -0.6962
  118OSM    H7F12465   3.319   3.166   9.795  1.2295 -3.7270  2.2109
  118OSM    H7G12466   3.491   3.126   9.793 -0.7751  0.0003  0.5284
  118OSM    C8F12467   3.443   3.296   9.667 -0.0440  0.3778 -0.1288
  118OSM    H8F12468   3.382   3.388   9.676 -0.1280  0.3898 -0.8245
  118OSM    H8G12469   3.424   3.234   9.576  0.8266  2.0781 -1.4869
  118OSM    C9F12470   3.581   3.344   9.672  0.6614 -0.2745  0.4993
  118OSM    H9F12471   3.605   3.421   9.747 -0.9756  1.9880 -1.2342
  118OSM   C10F12472   3.676   3.315   9.580 -0.2304  0.0057 -0.3234
  118OSM   H10F12473   3.772   3.368   9.590 -0.1509 -0.3332  0.7224
  118OSM   C11F12474   3.669   3.233   9.458  0.5122  0.0711  0.2113
  118OSM   H11F12475   3.565   3.239   9.419  1.2586  0.8587 -1.7178
  118OSM   H11G12476   3.692   3.128   9.486  2.5603  0.3574 -0.3786
  118OSM   C12F12477   3.777   3.271   9.350  0.4879  0.1829 -0.0489
  118OSM   H12F12478   3.878   3.262   9.395  0.0603 -2.4284  0.4609
  118OSM   H12G12479   3.740   3.373   9.327 -1.8651 -0.7760 -0.6663
  118OSM   C13F12480   3.781   3.166   9.232 -0.0290  0.7724  0.2722
  118OSM   H13F12481   3.800   3.061   9.264  0.4481  0.3653 -1.3260
  118OSM   H13G12482   3.863   3.200   9.165 -1.3015  1.8786 -0.7715
  118OSM   C14F12483   3.647   3.168   9.160 -0.1668 -0.3333 -0.4633
  118OSM   H14F12484   3.556   3.138   9.217 -1.3918 -0.4116 -2.4042
  118OSM   H14G12485   3.648   3.080   9.092  0.7536  0.1048 -1.0302
  118OSM   C15F12486   3.631   3.294   9.074  0.4849 -0.3828 -0.0736
  118OSM   H15F12487   3.718   3.316   9.009 -0.6527  0.8426 -1.2013
  118OSM   H15G12488   3.620   3.379   9.145 -0.1368 -0.3976 -0.1496
  118OSM   C16F12489   3.516   3.275   8.980  0.0501 -0.5108 -0.4975
  118OSM   H16F12490   3.444   3.205   9.028  2.0347 -1.5347  1.0750
  118OSM   H16G12491   3.541   3.217   8.889  1.0060  0.1724 -0.6832
  118OSM   C17F12492   3.444   3.412   8.936 -0.4210  0.0261 -0.3924
  118OSM   H17F12493   3.523   3.480   8.896 -0.7971 -0.5085 -2.0745
  118OSM   H17G12494   3.409   3.474   9.022  1.1236  1.4330 -0.7715
  118OSM   C18F12495   3.326   3.396   8.838  0.3582  0.3561  0.4195
  118OSM   H18F12496   3.236   3.360   8.892 -1.0425  2.4983 -0.4638
  118OSM   H18G12497   3.356   3.337   8.749 -1.1680  0.7639 -0.3727
  118OSM   H18H12498   3.298   3.496   8.800 -0.8322 -0.2382 -0.2687
  119OSM      N12499   4.217   2.173  11.179 -0.6554  0.1868 -0.1457
  119OSM    C1512500   4.173   2.146  11.319  0.0943 -0.3207 -0.0198
  119OSM   H15A12501   4.255   2.094  11.367  2.0735 -0.5042 -3.4239
  119OSM   H15B12502   4.080   2.091  11.315 -0.5016  0.6034  0.7100
  119OSM   H15C12503   4.149   2.237  11.372  1.9696  0.8291 -1.1235
  119OSM    C1412504   4.340   2.269  11.195 -0.5378 -0.5229  0.5724
  119OSM   H14A12505   4.416   2.220  11.254 -1.2075 -0.7660  1.2460
  119OSM   H14B12506   4.304   2.360  11.239  0.1544 -0.0509  0.1717
  119OSM   H14C12507   4.370   2.292  11.094 -0.1849  0.8037  0.9735
  119OSM    C1312508   4.264   2.049  11.108  0.3226  0.0207 -0.1341
  119OSM   H13A12509   4.332   1.999  11.176 -0.6528 -0.5827  0.4194
  119OSM   H13B12510   4.316   2.076  11.018 -1.1905  2.4269 -0.3344
  119OSM   H13C12511   4.175   1.992  11.084  0.7813  0.0463 -1.9630
  119OSM    C1212512   4.105   2.249  11.105  0.5728  0.3813 -0.2968
  119OSM   H12A12513   4.093   2.342  11.160  0.6796 -0.1810  0.6792
  119OSM   H12B12514   4.014   2.192  11.110  0.1017  0.8848 -2.7512
  119OSM    C1112515   4.143   2.296  10.963  0.7832  0.1224  0.2066
  119OSM   H11A12516   4.055   2.322  10.901  0.5091 -1.2915 -0.0038
  119OSM   H11B12517   4.170   2.199  10.916 -0.0040  0.2808 -0.6018
  119OSM      P12518   4.212   2.551  10.979 -0.0385 -0.1785  0.1367
  119OSM    O1312519   4.110   2.581  11.085  0.0977  0.0389  0.2011
  119OSM    O1412520   4.336   2.621  10.987 -0.3597 -0.4845  0.0126
  119OSM    O1112521   4.148   2.592  10.837  0.0104  0.2098 -0.0173
  119OSM    O1212522   4.242   2.397  10.949 -0.8965 -0.7003  0.2629
  119OSM    C1S12523   4.152   2.509  10.722  0.2284 -0.5967 -0.1590
  119OSM    H1S12524   4.079   2.427  10.735  1.1140 -1.6248 -1.5191
  119OSM    H1T12525   4.252   2.463  10.707  0.4308 -0.0753 -0.4293
  119OSM     NF12526   4.081   2.491  10.479 -0.1154 -0.0128  0.0816
  119OSM    HNF12527   4.133   2.497  10.394  0.3256  2.2606  0.4700
  119OSM    C2S12528   4.111   2.579  10.591 -0.0394  0.4756  0.1657
  119OSM    H2S12529   4.027   2.651  10.601  1.3155  1.8960  1.5301
  119OSM    C3S12530   4.234   2.671  10.552 -0.3194 -0.4447 -0.5506
  119OSM    H3S12531   4.317   2.605  10.520  0.5914 -2.0417  4.6565
  119OSM     O312532   4.292   2.745  10.658 -0.7465  0.4878 -0.0613
  119OSM    HO312533   4.255   2.700  10.734 -0.3556 -2.9882 -1.8356
  119OSM    C4S12534   4.203   2.772  10.439 -0.1661 -0.1120  0.1653
  119OSM    H4S12535   4.145   2.860  10.471  0.2647 -0.0056  0.6663
  119OSM    C5S12536   4.253   2.775  10.312 -0.2957  0.7472 -0.4054
  119OSM    H5S12537   4.327   2.703  10.275 -1.9241 -0.2239 -1.8577
  119OSM    C6S12538   4.221   2.877  10.213 -0.1419  0.3432  0.1163
  119OSM    H6S12539   4.319   2.908  10.172 -0.3079 -1.6897 -1.8904
  119OSM    H6T12540   4.178   2.963  10.269  1.4992  0.8328  0.6671
  119OSM    C7S12541   4.130   2.828  10.102  0.7446 -0.0727  0.1650
  119OSM    H7S12542   4.080   2.917  10.058 -1.3595 -0.3725  1.8717
  119OSM    H7T12543   4.049   2.767  10.147  1.9236 -0.5795  1.6574
  119OSM    C8S12544   4.192   2.739   9.994  0.4445 -0.5954  0.4526
  119OSM    H8S12545   4.223   2.639  10.033 -1.7869 -0.7828  1.8166
  119OSM    H8T12546   4.283   2.795   9.964 -1.1282 -0.1223 -3.8476
  119OSM    C9S12547   4.093   2.705   9.877  0.1491  0.2603 -0.0160
  119OSM    H9S12548   4.071   2.795   9.816  2.5274 -0.5332 -2.1391
  119OSM    H9T12549   4.002   2.666   9.926  0.0916  0.2691 -0.1153
  119OSM   C10S12550   4.140   2.602   9.778 -0.2930  0.0020  0.6770
  119OSM   H10S12551   4.063   2.575   9.702 -0.9524  0.0729  1.3108
  119OSM   H10T12552   4.164   2.508   9.832  0.5782  0.4699  1.0990
  119OSM   C11S12553   4.280   2.638   9.716 -0.3057 -0.2729  0.2758
  119OSM   H11S12554   4.368   2.628   9.784  0.6758  2.1369 -0.5660
  119OSM   H11T12555   4.283   2.749   9.703 -0.7456 -0.1086  1.4915
  119OSM   C12S12556   4.325   2.557   9.595 -1.0656 -1.1196  0.4511
  119OSM   H12S12557   4.242   2.547   9.521  0.8282 -1.8945 -1.6124
  119OSM   H12T12558   4.352   2.453   9.624  0.5629 -0.5035  1.1746
  119OSM   C13S12559   4.439   2.631   9.528 -0.4698  0.6214  0.3121
  119OSM   H13S12560   4.506   2.656   9.614  0.0701  0.6584 -0.1182
  119OSM   H13T12561   4.410   2.729   9.485  0.1264  1.1177  1.0210
  119OSM   C14S12562   4.500   2.565   9.408  0.0707 -0.3391 -0.0309
  119OSM   H14S12563   4.533   2.461   9.427 -0.0186  0.0596  2.3611
  119OSM   H14T12564   4.584   2.628   9.372 -0.7615  0.4158 -0.6754
  119OSM   C15S12565   4.410   2.558   9.280  0.0943  0.1437  0.1274
  119OSM   H15S12566   4.396   2.661   9.243  1.2509  0.2437 -0.0624
  119OSM   H15T12567   4.310   2.522   9.312  0.7642 -2.4475 -0.5248
  119OSM   C16S12568   4.479   2.469   9.171  0.4099 -0.3327  0.0995
  119OSM   H16S12569   4.478   2.368   9.216 -0.4743 -1.0248 -1.4518
  119OSM   H16T12570   4.584   2.505   9.169  0.0274  0.8371  0.2291
  119OSM   C17S12571   4.404   2.481   9.039  0.1304 -0.1404 -0.3214
  119OSM   H17S12572   4.473   2.430   8.969  1.8483  0.7958  0.6748
  119OSM   H17T12573   4.372   2.581   9.003  1.1797 -1.1080 -4.1038
  119OSM   C18S12574   4.275   2.400   9.036 -0.6827  0.4620 -0.1457
  119OSM   H18S12575   4.238   2.400   8.932 -0.4858 -0.4916 -0.2222
  119OSM   H18T12576   4.196   2.448   9.096  0.6190  1.0213  1.1608
  119OSM   H18U12577   4.287   2.295   9.070  1.2196  0.9156  0.6652
  119OSM    C1F12578   3.958   2.439  10.468 -0.3212 -0.2394 -0.7762
  119OSM     OF12579   3.872   2.467  10.551  0.1662 -0.1572 -0.3320
  119OSM    C2F12580   3.919   2.351  10.360  0.1058  0.2198  0.2679
  119OSM    H2F12581   3.836   2.285  10.393 -0.4199  0.3413 -0.7802
  119OSM    H2G12582   4.006   2.286  10.336 -0.1650 -0.4506  1.0672
  119OSM    C3F12583   3.861   2.422  10.238  0.1683 -0.3458 -0.0108
  119OSM    H3F12584   3.908   2.520  10.218  0.3553 -0.7205 -1.4773
  119OSM    H3G12585   3.756   2.445  10.267 -0.2727 -3.0794  0.7634
  119OSM    C4F12586   3.852   2.343  10.108  0.3796 -0.0782 -0.1873
  119OSM    H4F12587   3.826   2.422  10.035 -1.4198 -1.1124 -0.6960
  119OSM    H4G12588   3.770   2.268  10.110  0.1432  0.2213  1.6741
  119OSM    C5F12589   3.986   2.263  10.069 -0.0402 -0.2363 -0.2660
  119OSM    H5F12590   3.986   2.161  10.113  1.1620 -0.3274 -0.4687
  119OSM    H5G12591   4.060   2.325  10.123 -1.9133  1.9280 -0.0948
  119OSM    C6F12592   4.012   2.281   9.915  0.5500  0.0606 -0.2731
  119OSM    H6F12593   4.119   2.257   9.896  0.1405 -2.4017  0.3732
  119OSM    H6G12594   3.994   2.386   9.882  2.2052  0.9324  1.4955
  119OSM    C7F12595   3.920   2.190   9.827  0.0019 -0.4679 -0.1239
  119OSM    H7F12596   3.815   2.224   9.832  0.1809  0.4505 -1.9790
  119OSM    H7G12597   3.924   2.089   9.872 -1.7198 -0.2086  0.6390
  119OSM    C8F12598   3.970   2.176   9.677 -0.0969 -0.2695  0.3297
  119OSM    H8F12599   3.906   2.101   9.627  0.8067  0.0223 -1.3245
  119OSM    H8G12600   4.076   2.143   9.672 -0.1147 -0.2521 -0.1708
  119OSM    C9F12601   3.946   2.296   9.590 -0.1370  0.1054  0.2303
  119OSM    H9F12602   3.867   2.367   9.617 -0.2850  0.4871 -1.1448
  119OSM   C10F12603   4.004   2.325   9.471  0.4712 -0.4824  0.1944
  119OSM   H10F12604   3.984   2.417   9.415  0.3908 -1.2835 -1.0993
  119OSM   C11F12605   4.110   2.240   9.402 -0.7771  0.7558 -0.3921
  119OSM   H11F12606   4.122   2.148   9.463 -2.3627  1.7430  1.4711
  119OSM   H11G12607   4.210   2.288   9.414  0.2815 -1.8839  2.2121
  119OSM   C12F12608   4.055   2.220   9.255  0.3648 -0.3752 -0.3765
  119OSM   H12F12609   4.108   2.137   9.203 -0.1483 -0.8013 -0.2227
  119OSM   H12G12610   4.070   2.310   9.191  0.5221 -0.3437 -0.2956
  119OSM   C13F12611   3.904   2.170   9.236 -0.4224  0.2127 -0.0293
  119OSM   H13F12612   3.832   2.252   9.256 -0.4648  0.2559 -0.3546
  119OSM   H13G12613   3.882   2.088   9.308 -0.6175 -0.0638 -0.4046
  119OSM   C14F12614   3.878   2.110   9.098 -0.4528 -0.8185  0.2134
  119OSM   H14F12615   3.779   2.064   9.076 -0.1220 -1.1297 -0.6186
  119OSM   H14G12616   3.943   2.022   9.081  3.7184  2.1765 -0.1162
  119OSM   C15F12617   3.902   2.217   8.985 -0.0999 -0.3263 -0.0154
  119OSM   H15F12618   4.007   2.253   8.982 -0.5941  1.1334 -0.2443
  119OSM   H15G12619   3.836   2.301   9.014  0.6189  0.3139 -0.2125
  119OSM   C16F12620   3.858   2.159   8.855 -0.4598  0.3550  0.4944
  119OSM   H16F12621   3.753   2.121   8.858  0.0287 -0.9729  1.0491
  119OSM   H16G12622   3.925   2.075   8.826 -1.4163  0.0684 -0.9408
  119OSM   C17F12623   3.868   2.266   8.746  1.0065 -0.0603  0.9015
  119OSM   H17F12624   3.970   2.310   8.751  1.3191 -0.5103 -1.0563
  119OSM   H17G12625   3.803   2.350   8.779  2.0027  0.6417  1.1152
  119OSM   C18F12626   3.840   2.209   8.605 -0.2970  0.0218 -0.3706
  119OSM   H18F12627   3.917   2.138   8.570  0.4561  1.2156 -1.2141
  119OSM   H18G12628   3.815   2.289   8.531 -2.8865  0.0032  0.4191
  119OSM   H18H12629   3.739   2.164   8.613 -0.6303  0.7253 -0.5199
  120OSM      N12630   3.624   5.875  10.993 -0.3021  0.0466  0.3051
  120OSM    C1512631   3.649   5.962  10.870  0.1653  0.0544 -0.3162
  120OSM   H15A12632   3.727   5.909  10.817 -1.0956  0.0419 -2.1874
  120OSM   H15B12633   3.671   6.063  10.900  1.9318 -0.8271  1.4953
  120OSM   H15C12634   3.571   5.952  10.796  0.5843  0.0056 -0.7462
  120OSM    C1412635   3.737   5.911  11.082  0.0830 -0.3749  0.9071
  120OSM   H14A12636   3.831   5.893  11.030 -0.4340  1.1391 -0.6137
  120OSM   H14B12637   3.733   5.853  11.173  0.3881 -1.0953  0.4643
  120OSM   H14C12638   3.727   6.012  11.119  0.1840  0.0124 -0.1212
  120OSM    C1312639   3.495   5.911  11.063 -0.5158 -0.2887  0.4836
  120OSM   H13A12640   3.409   5.899  10.998  0.4018 -1.8034 -0.4905
  120OSM   H13B12641   3.499   6.014  11.094 -0.4611  0.0543 -0.6594
  120OSM   H13C12642   3.495   5.843  11.147  3.8118  0.6873  1.4078
  120OSM    C1212643   3.619   5.729  10.960  0.2349 -0.2822  0.0049
  120OSM   H12A12644   3.628   5.682  11.057  2.4052  1.6692  0.7961
  120OSM   H12B12645   3.708   5.707  10.902 -0.3629 -1.5261 -0.4634
  120OSM    C1112646   3.496   5.673  10.885  0.0351  0.8773  0.2830
  120OSM   H11A12647   3.409   5.697  10.949 -1.7986  0.1545 -1.8773
  120OSM   H11B12648   3.493   5.562  10.884  0.3730  0.8657  0.3672
  120OSM      P12649   3.590   5.669  10.648 -0.5864  0.5212  0.3896
  120OSM    O1312650   3.691   5.770  10.610 -0.1015 -0.3463  0.1369
  120OSM    O1412651   3.634   5.533  10.682 -0.1296 -0.5647 -0.0066
  120OSM    O1112652   3.494   5.644  10.517  0.2966 -0.0205  0.6758
  120OSM    O1212653   3.481   5.725  10.748 -0.1838  0.7520 -0.2418
  120OSM    C1S12654   3.385   5.737  10.498  0.2710  0.3195  0.0688
  120OSM    H1S12655   3.399   5.832  10.554 -1.6360  0.4311  0.3881
  120OSM    H1T12656   3.289   5.688  10.527  0.2745  0.3991  0.2136
  120OSM     NF12657   3.290   5.884  10.306  0.6071 -0.5677 -0.3996
  120OSM    HNF12658   3.193   5.865  10.291  0.3337 -0.3214  1.0325
  120OSM    C2S12659   3.363   5.770  10.341  0.0591  0.5364 -0.0571
  120OSM    H2S12660   3.466   5.782  10.301  0.2834  0.1306  0.3897
  120OSM    C3S12661   3.320   5.637  10.268  0.1531  0.1154 -0.3382
  120OSM    H3S12662   3.215   5.617  10.300 -0.2714  1.6266 -0.7223
  120OSM     O312663   3.395   5.526  10.304  0.0271 -0.4429 -0.4789
  120OSM    HO312664   3.436   5.554  10.386 -0.2734  0.4341 -0.6241
  120OSM    C4S12665   3.338   5.650  10.119  0.5202  0.4120 -0.0923
  120OSM    H4S12666   3.443   5.664  10.087  0.5064 -0.2953 -0.4644
  120OSM    C5S12667   3.237   5.642  10.027 -0.2882  0.0859 -0.1659
  120OSM    H5S12668   3.136   5.637  10.069 -1.5345  1.6251 -2.8650
  120OSM    C6S12669   3.244   5.642   9.882  0.5833 -0.2088  0.1602
  120OSM    H6S12670   3.159   5.699   9.838  0.3695 -0.3304  0.4129
  120OSM    H6T12671   3.205   5.540   9.860 -0.8777  0.2084  0.7707
  120OSM    C7S12672   3.380   5.673   9.823 -0.7588 -0.0608 -0.3241
  120OSM    H7S12673   3.455   5.596   9.852  2.4605  3.3844  0.9198
  120OSM    H7T12674   3.424   5.763   9.872  1.1133 -1.3728  0.4754
  120OSM    C8S12675   3.393   5.677   9.672 -0.3919 -0.9082  1.0575
  120OSM    H8S12676   3.359   5.586   9.619  1.1210  0.1782 -1.9303
  120OSM    H8T12677   3.495   5.702   9.636 -0.7894 -0.4856  0.2015
  120OSM    C9S12678   3.305   5.798   9.612 -0.2946  0.1679 -0.2981
  120OSM    H9S12679   3.322   5.895   9.663  2.5599 -0.2271 -0.4239
  120OSM    H9T12680   3.203   5.775   9.650 -0.1547 -0.6791 -0.4360
  120OSM   C10S12681   3.295   5.838   9.463 -0.5482  0.2085 -0.6145
  120OSM   H10S12682   3.398   5.861   9.429 -0.1114  0.1656  0.6776
  120OSM   H10T12683   3.236   5.931   9.448  1.7553  1.8434  0.2001
  120OSM   C11S12684   3.243   5.726   9.372  0.0982 -0.0433  0.5421
  120OSM   H11S12685   3.135   5.706   9.389 -0.0523  0.8813  0.6747
  120OSM   H11T12686   3.294   5.629   9.395 -1.1289 -1.0893 -1.0161
  120OSM   C12S12687   3.272   5.747   9.226  0.1298 -0.6003 -0.1368
  120OSM   H12S12688   3.382   5.742   9.212  0.0478 -1.1402 -0.6315
  120OSM   H12T12689   3.244   5.852   9.204  0.3423 -0.8680 -1.7648
  120OSM   C13S12690   3.191   5.666   9.130  0.4933 -0.3878 -0.1813
  120OSM   H13S12691   3.082   5.670   9.150  1.1694 -1.6732  4.3028
  120OSM   H13T12692   3.223   5.563   9.156  0.6321  0.1534  1.8438
  120OSM   C14S12693   3.221   5.702   8.986  0.5264  0.2549 -0.1620
  120OSM   H14S12694   3.219   5.812   8.972  0.7747  0.0452 -1.9048
  120OSM   H14T12695   3.136   5.656   8.932  0.1650  0.6928  0.0329
  120OSM   C15S12696   3.359   5.659   8.934 -0.0006 -0.2316  0.1392
  120OSM   H15S12697   3.369   5.551   8.912  0.5133 -0.2421  0.4310
  120OSM   H15T12698   3.432   5.692   9.011 -3.0450 -0.5158  3.2922
  120OSM   C16S12699   3.389   5.717   8.795  0.2126 -0.6127 -0.4349
  120OSM   H16S12700   3.392   5.827   8.807 -0.1925 -0.3043 -2.9105
  120OSM   H16T12701   3.294   5.701   8.739  0.6335  0.0031 -1.3197
  120OSM   C17S12702   3.516   5.674   8.719 -0.5061  0.2007 -0.9516
  120OSM   H17S12703   3.596   5.682   8.797 -1.5430  1.4832  0.0069
  120OSM   H17T12704   3.537   5.755   8.646 -2.1677  1.2400 -0.2980
  120OSM   C18S12705   3.495   5.533   8.656  0.6958 -0.2173  0.1543
  120OSM   H18S12706   3.579   5.476   8.611  0.7083 -0.0688 -0.0135
  120OSM   H18T12707   3.412   5.534   8.583  2.1391 -0.1235 -1.5203
  120OSM   H18U12708   3.477   5.470   8.746 -0.9896 -0.1659 -0.1388
  120OSM    C1F12709   3.342   6.008  10.319  0.4541 -0.3027  0.0055
  120OSM     OF12710   3.448   6.018  10.374 -0.5347  0.0113 -0.3280
  120OSM    C2F12711   3.268   6.129  10.267 -0.6705  0.3592 -0.0189
  120OSM    H2F12712   3.248   6.191  10.356  0.3660 -0.5928  0.8948
  120OSM    H2G12713   3.181   6.093  10.208  1.4334 -1.5471 -2.0951
  120OSM    C3F12714   3.359   6.207  10.172 -0.2692 -0.4508 -0.5860
  120OSM    H3F12715   3.456   6.229  10.222 -0.5667 -1.5929  0.5460
  120OSM    H3G12716   3.320   6.309  10.153  0.4542  0.2999  1.7404
  120OSM    C4F12717   3.403   6.149  10.042  0.0302  0.3177 -0.2368
  120OSM    H4F12718   3.323   6.157   9.965 -1.4960  0.9220  1.3975
  120OSM    H4G12719   3.435   6.044  10.054 -1.5758 -0.3572 -1.6024
  120OSM    C5F12720   3.519   6.234   9.997  0.0684  0.1020  0.1277
  120OSM    H5F12721   3.596   6.258  10.075 -0.0837  0.5861  0.1333
  120OSM    H5G12722   3.470   6.323   9.952  1.8110 -0.4722 -3.0360
  120OSM    C6F12723   3.599   6.180   9.875 -0.1862 -0.2103 -0.0280
  120OSM    H6F12724   3.609   6.071   9.896 -1.6056 -0.3023  0.2080
  120OSM    H6G12725   3.698   6.230   9.880 -0.5690  0.6833 -1.2139
  120OSM    C7F12726   3.540   6.211   9.731 -0.1308  0.7235 -0.0239
  120OSM    H7F12727   3.570   6.316   9.714  5.1300 -0.5467  0.5120
  120OSM    H7G12728   3.430   6.195   9.736  0.0112 -0.1007  0.6061
  120OSM    C8F12729   3.586   6.120   9.611 -0.0458  0.2861  0.3965
  120OSM    H8F12730   3.504   6.123   9.536 -0.1209  2.1743  0.5307
  120OSM    H8G12731   3.592   6.013   9.642 -0.0314 -0.2388 -1.3795
  120OSM    C9F12732   3.715   6.161   9.542 -0.3336 -0.1289 -1.0545
  120OSM    H9F12733   3.804   6.103   9.568 -0.3281 -0.2516 -1.3533
  120OSM   C10F12734   3.736   6.263   9.453 -0.7178 -0.0095  0.6435
  120OSM   H10F12735   3.834   6.262   9.402 -1.4627  0.2046 -0.8097
  120OSM   C11F12736   3.654   6.375   9.397 -0.0450  0.4359 -0.2224
  120OSM   H11F12737   3.691   6.469   9.444  0.2800 -0.0675  0.5299
  120OSM   H11G12738   3.547   6.357   9.423 -0.5563 -0.5089 -2.8429
  120OSM   C12F12739   3.640   6.374   9.241  0.1722  0.7623  0.3208
  120OSM   H12F12740   3.563   6.449   9.215 -1.0717  0.3466  2.6410
  120OSM   H12G12741   3.599   6.277   9.204 -2.4284  2.7577 -2.2361
  120OSM   C13F12742   3.767   6.417   9.169  1.0218 -0.2509 -0.0217
  120OSM   H13F12743   3.849   6.346   9.195  0.4153 -0.5162  1.2276
  120OSM   H13G12744   3.794   6.521   9.195 -1.9721  0.6642 -0.4216
  120OSM   C14F12745   3.739   6.413   9.021 -0.8435 -0.0540  0.2896
  120OSM   H14F12746   3.644   6.471   9.024 -0.9821 -0.1143 -1.8745
  120OSM   H14G12747   3.719   6.309   8.988  1.0955 -0.2014 -0.4713
  120OSM   C15F12748   3.833   6.477   8.927  0.0095 -0.2070 -0.4495
  120OSM   H15F12749   3.935   6.441   8.951 -0.5141 -1.3044  0.1458
  120OSM   H15G12750   3.840   6.588   8.933  1.6534 -0.2530 -1.2870
  120OSM   C16F12751   3.794   6.445   8.774 -0.3631 -0.3161 -0.1666
  120OSM   H16F12752   3.684   6.456   8.760 -0.0683  1.0207 -1.6259
  120OSM   H16G12753   3.810   6.338   8.752 -2.7052 -0.8111  0.3790
  120OSM   C17F12754   3.869   6.535   8.680  0.5063 -0.9525 -0.2877
  120OSM   H17F12755   3.974   6.540   8.715 -0.1939  0.5723  1.6715
  120OSM   H17G12756   3.823   6.636   8.675  0.6094 -0.8769  0.3160
  120OSM   C18F12757   3.890   6.478   8.547 -0.4609  0.2830 -0.5535
  120OSM   H18F12758   3.946   6.382   8.548 -0.3733  0.3326  2.6777
  120OSM   H18G12759   3.957   6.535   8.479  1.7671 -1.5739  0.0131
  120OSM   H18H12760   3.801   6.466   8.482 -0.7853  1.6533 -0.3665
  121OSM      N12761   2.116   2.442  10.847  0.0463  0.0694  0.8768
  121OSM    C1512762   1.997   2.535  10.810  0.0192  0.0930 -0.0967
  121OSM   H15A12763   2.027   2.623  10.754  1.7868 -1.3592 -1.4954
  121OSM   H15B12764   1.961   2.577  10.903  2.4183 -0.3322  1.0699
  121OSM   H15C12765   1.919   2.477  10.763 -0.0881 -0.3093  0.5842
  121OSM    C1412766   2.237   2.507  10.915  1.0700  0.4148  0.4390
  121OSM   H14A12767   2.197   2.562  10.998 -0.4739  2.1207 -1.3741
  121OSM   H14B12768   2.290   2.578  10.852 -0.3472  2.0986  1.1059
  121OSM   H14C12769   2.303   2.427  10.943 -0.2042 -0.8844 -0.1763
  121OSM    C1312770   2.059   2.350  10.947  0.3614 -1.3439 -0.8233
  121OSM   H13A12771   2.127   2.267  10.964  1.3067 -0.6534 -1.1846
  121OSM   H13B12772   1.967   2.309  10.909 -2.0661  1.6743  1.5248
  121OSM   H13C12773   2.039   2.397  11.042 -0.6254 -0.5929 -1.3984
  121OSM    C1212774   2.153   2.368  10.721 -0.3885  0.2079 -0.0728
  121OSM   H12A12775   2.165   2.440  10.642 -0.9955 -1.7665 -2.0244
  121OSM   H12B12776   2.064   2.315  10.689 -0.0216 -0.6815  0.3655
  121OSM    C1112777   2.279   2.279  10.717 -0.1073  0.1871 -0.3379
  121OSM   H11A12778   2.369   2.343  10.729  0.1026 -0.0816 -0.4917
  121OSM   H11B12779   2.284   2.228  10.618 -0.7671  1.0898 -0.8447
  121OSM      P12780   2.400   2.148  10.895  0.2730  0.0210 -0.0082
  121OSM    O1312781   2.410   2.252  10.997 -0.0618 -1.0651  0.2373
  121OSM    O1412782   2.388   2.002  10.939  0.0568  0.1051 -0.7593
  121OSM    O1112783   2.506   2.159  10.779  0.2494  0.7126  0.0163
  121OSM    O1212784   2.265   2.177  10.820 -0.4314  0.1175 -0.0225
  121OSM    C1S12785   2.509   2.070  10.662  0.0980 -0.3249 -0.3174
  121OSM    H1S12786   2.406   2.058  10.621  1.0228 -5.2224 -1.5482
  121OSM    H1T12787   2.549   1.969  10.681 -0.8289 -0.6623 -0.1084
  121OSM     NF12788   2.616   2.034  10.459  0.3798 -0.3816  0.7468
  121OSM    HNF12789   2.688   1.966  10.473  1.6724  0.5547 -1.2732
  121OSM    C2S12790   2.608   2.134  10.567 -0.3767  0.0716  0.1814
  121OSM    H2S12791   2.566   2.229  10.529  0.4924  0.2736 -0.3078
  121OSM    C3S12792   2.749   2.166  10.635  0.3398 -0.4227  0.0967
  121OSM    H3S12793   2.792   2.070  10.670 -1.8375 -2.2182 -1.9697
  121OSM     O312794   2.746   2.266  10.739  0.2284 -1.0181 -0.4417
  121OSM    HO312795   2.658   2.256  10.774  0.5360  0.6639  0.8866
  121OSM    C4S12796   2.839   2.217  10.532 -0.0908 -0.7907  0.1950
  121OSM    H4S12797   2.900   2.130  10.503  0.5155  0.0203 -1.0399
  121OSM    C5S12798   2.869   2.336  10.481  0.0481  0.1266  0.1827
  121OSM    H5S12799   2.805   2.421  10.509  0.4467 -0.2217  2.2380
  121OSM    C6S12800   2.974   2.363  10.379  0.1396 -0.3155  0.3625
  121OSM    H6S12801   3.028   2.273  10.342  1.5172  0.5380  0.2569
  121OSM    H6T12802   3.053   2.421  10.431  0.0501  0.2969 -0.1819
  121OSM    C7S12803   2.918   2.424  10.252  0.5847  0.6009  0.6710
  121OSM    H7S12804   2.879   2.522  10.286  0.3972  0.7385  0.0754
  121OSM    H7T12805   2.830   2.361  10.229 -0.7285  1.8080  2.2490
  121OSM    C8S12806   3.008   2.414  10.128 -0.1380 -0.1141 -0.6296
  121OSM    H8S12807   3.024   2.305  10.114 -0.5013  0.0110 -2.0545
  121OSM    H8T12808   3.109   2.449  10.159 -0.2334 -0.0403 -0.4017
  121OSM    C9S12809   2.946   2.474  10.005  0.5240 -0.1599 -0.3799
  121OSM    H9S12810   2.909   2.577  10.022  1.1220  0.3711 -2.2608
  121OSM    H9T12811   2.849   2.428   9.976  0.1281 -0.0165  0.6886
  121OSM   C10S12812   3.038   2.487   9.881 -0.3210  0.5631  0.2003
  121OSM   H10S12813   3.083   2.387   9.864  0.0819  0.3690  2.2756
  121OSM   H10T12814   3.123   2.553   9.906  1.3032 -1.2528 -0.4206
  121OSM   C11S12815   2.966   2.533   9.752 -0.0501 -0.1336 -0.0696
  121OSM   H11S12816   2.947   2.642   9.758  0.2230 -0.1056  0.2460
  121OSM   H11T12817   2.866   2.484   9.751 -0.1869  0.1552 -1.2484
  121OSM   C12S12818   3.046   2.496   9.623  0.3933  0.2611 -0.1691
  121OSM   H12S12819   3.056   2.386   9.632 -1.4885  0.0825  0.1074
  121OSM   H12T12820   3.146   2.544   9.618 -0.8582  2.9119 -0.6732
  121OSM   C13S12821   2.964   2.514   9.493 -0.6702  0.5007 -0.3777
  121OSM   H13S12822   2.933   2.620   9.508  0.0688  0.5847  0.6955
  121OSM   H13T12823   2.885   2.437   9.498  1.4355 -1.5933  2.2494
  121OSM   C14S12824   3.049   2.497   9.369  0.4128 -0.6953  0.2480
  121OSM   H14S12825   3.122   2.413   9.380 -0.6784 -2.3425 -3.9216
  121OSM   H14T12826   3.100   2.596   9.363  2.6950 -1.6675  2.6096
  121OSM   C15S12827   2.963   2.485   9.243 -0.6947 -0.6699  0.3884
  121OSM   H15S12828   2.920   2.583   9.213  2.4519  0.5671 -0.1865
  121OSM   H15T12829   2.896   2.397   9.256  1.2934 -2.3029 -0.1570
  121OSM   C16S12830   3.043   2.446   9.118 -0.1586 -0.4813  0.6125
  121OSM   H16S12831   3.073   2.344   9.149  1.5992 -0.0427  0.3842
  121OSM   H16T12832   3.129   2.514   9.099 -0.0015 -0.5123  1.1972
  121OSM   C17S12833   2.964   2.453   8.982 -0.0361 -0.6790  0.2779
  121OSM   H17S12834   2.962   2.559   8.950  0.7382 -1.2632 -1.8069
  121OSM   H17T12835   2.866   2.405   9.005 -0.8114  0.6672 -0.1838
  121OSM   C18S12836   3.040   2.376   8.881 -0.5971  0.0472 -0.1786
  121OSM   H18S12837   3.133   2.411   8.833 -1.6706  0.1842 -2.2129
  121OSM   H18T12838   2.978   2.348   8.793  0.0174 -0.6840 -0.3833
  121OSM   H18U12839   3.059   2.279   8.933 -0.6183 -0.1045 -0.4546
  121OSM    C1F12840   2.529   2.026  10.362  0.4743  0.9147  0.1060
  121OSM     OF12841   2.430   2.094  10.368  0.7600 -0.0896 -0.2446
  121OSM    C2F12842   2.567   1.937  10.250 -0.1981  0.0497 -0.1066
  121OSM    H2F12843   2.558   1.830  10.277  1.1498 -0.3329 -1.1867
  121OSM    H2G12844   2.673   1.946  10.218 -0.2008  1.4221  0.2183
  121OSM    C3F12845   2.483   1.960  10.124 -0.7023  0.0956  0.2959
  121OSM    H3F12846   2.479   2.066  10.089  0.2466  0.0882  0.1556
  121OSM    H3G12847   2.375   1.932  10.123 -0.1856 -2.0171 -2.3959
  121OSM    C4F12848   2.537   1.895   9.997 -0.1922  0.2989 -0.4988
  121OSM    H4F12849   2.562   1.789  10.021 -1.7723 -0.1198 -0.6867
  121OSM    H4G12850   2.633   1.942   9.965  0.0207 -0.9279 -1.7093
  121OSM    C5F12851   2.440   1.895   9.883  0.2371 -0.3224 -0.3354
  121OSM    H5F12852   2.406   2.000   9.875 -1.2710 -0.8835 -1.8145
  121OSM    H5G12853   2.351   1.828   9.893 -1.4041  1.7064 -1.1121
  121OSM    C6F12854   2.511   1.865   9.746 -0.1941 -0.2556 -0.1595
  121OSM    H6F12855   2.543   1.760   9.730  1.4032  0.2926 -0.6579
  121OSM    H6G12856   2.602   1.929   9.748 -0.4923  0.1433  1.6787
  121OSM    C7F12857   2.421   1.901   9.626 -0.6502  0.0198 -0.3254
  121OSM    H7F12858   2.374   2.001   9.640 -0.8769 -0.0742 -0.4206
  121OSM    H7G12859   2.329   1.838   9.623 -0.9572  0.3366  1.8048
  121OSM    C8F12860   2.491   1.912   9.494  0.3356  0.0910 -0.0530
  121OSM    H8F12861   2.541   1.813   9.482 -1.0123 -0.2229 -3.8921
  121OSM    H8G12862   2.575   1.983   9.492 -0.5469  1.1415 -0.5080
  121OSM    C9F12863   2.404   1.937   9.375  0.2016  0.5481 -0.6635
  121OSM    H9F12864   2.317   2.002   9.394  1.0024  1.4547 -0.0347
  121OSM   C10F12865   2.406   1.869   9.258 -0.0184 -0.8097 -0.5589
  121OSM   H10F12866   2.342   1.904   9.176  1.5887 -0.7987 -1.8348
  121OSM   C11F12867   2.503   1.763   9.210  0.1539  0.4300  0.2386
  121OSM   H11F12868   2.483   1.677   9.277 -2.6793  1.6479  1.0271
  121OSM   H11G12869   2.609   1.795   9.215 -0.1218  1.5332 -0.8773
  121OSM   C12F12870   2.481   1.731   9.065  0.0226 -0.1959  0.1551
  121OSM   H12F12871   2.503   1.820   9.002  0.4729 -0.7697 -0.5047
  121OSM   H12G12872   2.372   1.712   9.048 -0.1508 -1.0529  2.0600
  121OSM   C13F12873   2.575   1.617   9.034  0.5107 -0.5788 -0.5244
  121OSM   H13F12874   2.565   1.530   9.102  0.5272  0.0115  0.2394
  121OSM   H13G12875   2.684   1.640   9.037  1.1795 -3.4278 -1.3842
  121OSM   C14F12876   2.553   1.568   8.888  0.6547 -0.3015 -0.4468
  121OSM   H14F12877   2.444   1.571   8.870  0.8658 -0.6895 -1.8433
  121OSM   H14G12878   2.586   1.462   8.883  3.2811  0.5331 -1.6828
  121OSM   C15F12879   2.628   1.664   8.793  0.8510  0.8589  0.3224
  121OSM   H15F12880   2.738   1.666   8.809  1.0059  1.3911 -0.7802
  121OSM   H15G12881   2.596   1.768   8.812 -3.4063 -0.3635  0.4112
  121OSM   C16F12882   2.603   1.631   8.641 -0.3029  0.2084 -0.0412
  121OSM   H16F12883   2.493   1.620   8.628 -0.5247  0.1444  1.7965
  121OSM   H16G12884   2.656   1.535   8.620  2.7584  1.4464  1.7750
  121OSM   C17F12885   2.660   1.753   8.563  0.2374  0.0791  0.1913
  121OSM   H17F12886   2.699   1.719   8.465  1.0661  1.5320 -0.0019
  121OSM   H17G12887   2.745   1.796   8.620 -0.4149  0.1058  1.1601
  121OSM   C18F12888   2.562   1.870   8.534  0.4040  0.4311  0.5091
  121OSM   H18F12889   2.484   1.840   8.460 -0.4355  1.0238  1.1510
  121OSM   H18G12890   2.619   1.952   8.485  0.9673  0.4539  1.1945
  121OSM   H18H12891   2.508   1.903   8.625  0.0669 -0.2621  0.5646
  122OSM      N12892   3.560   0.045  10.858  0.2679  0.5323 -0.0914
  122OSM    C1512893   3.478   0.136  10.941  0.8829 -0.7842  0.0835
  122OSM   H15A12894   3.378   0.099  10.925  1.4480 -2.8098  1.0896
  122OSM   H15B12895   3.473   0.238  10.907  1.3386 -1.3814 -1.8267
  122OSM   H15C12896   3.484   0.131  11.049 -0.0581 -1.2300  0.1163
  122OSM    C1412897   3.698   0.086  10.858  0.7746  0.6039 -0.0329
  122OSM   H14A12898   3.740   0.076  10.957  0.1997  2.2347  0.3766
  122OSM   H14B12899   3.709   0.189  10.829  1.0220  0.5026 -0.3047
  122OSM   H14C12900   3.767   0.040  10.788  0.6339 -1.3201  1.0630
  122OSM    C1312901   3.559  -0.093  10.922  0.4088  0.3877  0.2709
  122OSM   H13A12902   3.454  -0.113  10.934  0.6141 -0.5890  0.5057
  122OSM   H13B12903   3.608  -0.082  11.018 -0.3259  4.7344  0.2357
  122OSM   H13C12904   3.607  -0.166  10.858 -0.7451  0.2390 -0.4285
  122OSM    C1212905   3.500   0.051  10.715 -0.3604  0.1170 -1.0158
  122OSM   H12A12906   3.555  -0.024  10.660  1.5629  1.1240 -0.5287
  122OSM   H12B12907   3.515   0.149  10.671 -1.0746  0.4390 -0.5530
  122OSM    C1112908   3.350   0.020  10.715 -0.9796 -0.6810  0.1081
  122OSM   H11A12909   3.335  -0.079  10.763 -0.2183 -0.6035  0.5042
  122OSM   H11B12910   3.317  -0.010  10.613  0.5180 -0.5419 -0.4226
  122OSM      P12911   3.239   0.248  10.673 -0.2876  0.3457 -0.0481
  122OSM    O1312912   3.130   0.221  10.575 -0.3509 -0.5975  0.6024
  122OSM    O1412913   3.223   0.361  10.764 -0.7887  0.2263  0.2096
  122OSM    O1112914   3.370   0.263  10.590 -0.2739  0.2684 -0.2289
  122OSM    O1212915   3.267   0.124  10.770 -0.1028 -0.0708 -0.1454
  122OSM    C1S12916   3.371   0.228  10.447 -0.2706  0.3144  0.2560
  122OSM    H1S12917   3.302   0.142  10.430 -1.5906  1.3146  0.4467
  122OSM    H1T12918   3.474   0.195  10.423 -0.5066  0.5999 -1.2101
  122OSM     NF12919   3.336   0.306  10.221  0.5123 -0.2037  0.6035
  122OSM    HNF12920   3.418   0.324  10.167 -1.2480  0.7342 -1.8662
  122OSM    C2S12921   3.345   0.347  10.356 -0.1338  0.1069  0.7183
  122OSM    H2S12922   3.238   0.377  10.366 -0.8238 -1.5512 -1.2521
  122OSM    C3S12923   3.440   0.465  10.373  0.9853 -0.5308  0.3076
  122OSM    H3S12924   3.535   0.453  10.318  0.3203  2.8112 -1.7250
  122OSM     O312925   3.472   0.500  10.509 -0.6778 -0.2984 -0.7601
  122OSM    HO312926   3.449   0.421  10.558 -3.3027 -0.3444 -1.9790
  122OSM    C4S12927   3.363   0.592  10.322  0.1521 -0.6984  0.3440
  122OSM    H4S12928   3.278   0.620  10.385 -0.1165  0.0236 -0.3291
  122OSM    C5S12929   3.410   0.669  10.219  0.3786  0.8108 -0.2038
  122OSM    H5S12930   3.503   0.635  10.170  0.4149 -0.0289  0.4344
  122OSM    C6S12931   3.337   0.791  10.164  0.2354 -0.4458  0.1488
  122OSM    H6S12932   3.410   0.875  10.155 -1.4488  0.8931 -1.6263
  122OSM    H6T12933   3.252   0.826  10.227 -0.4737 -0.1550 -0.9522
  122OSM    C7S12934   3.288   0.773  10.016 -0.1319 -0.4501 -0.1379
  122OSM    H7S12935   3.206   0.699  10.019  1.6288 -2.5088 -1.1346
  122OSM    H7T12936   3.374   0.737   9.954 -0.0951  1.9752 -1.5588
  122OSM    C8S12937   3.232   0.900   9.952 -0.6656  0.2044  0.1692
  122OSM    H8S12938   3.297   0.989   9.966 -2.8904  1.7500  0.8804
  122OSM    H8T12939   3.138   0.925  10.005 -0.6197  0.3492  0.1819
  122OSM    C9S12940   3.205   0.895   9.799  0.2754  0.2301  0.5346
  122OSM    H9S12941   3.156   0.797   9.784 -0.6739  1.0874 -2.2781
  122OSM    H9T12942   3.297   0.909   9.738 -1.4031  0.8844 -1.9629
  122OSM   C10S12943   3.119   1.012   9.762 -0.1603 -0.4766  0.6866
  122OSM   H10S12944   3.187   1.099   9.771 -0.2911 -0.1032 -1.5467
  122OSM   H10T12945   3.034   1.015   9.833 -0.7262  3.6399 -0.0787
  122OSM   C11S12946   3.062   1.013   9.614 -0.0116  0.0315  0.0555
  122OSM   H11S12947   2.996   1.102   9.617  1.1665  0.8741  1.3309
  122OSM   H11T12948   2.999   0.926   9.585  0.2960  0.1340 -0.9255
  122OSM   C12S12949   3.172   1.035   9.505  0.5346  0.1335  0.3281
  122OSM   H12S12950   3.268   1.065   9.551  1.0862 -2.2307  0.7685
  122OSM   H12T12951   3.141   1.120   9.440 -2.3352 -0.8892  0.2607
  122OSM   C13S12952   3.184   0.910   9.417  0.4933 -0.0316  0.2166
  122OSM   H13S12953   3.099   0.907   9.346  1.2517 -2.4983 -0.6783
  122OSM   H13T12954   3.185   0.831   9.496 -1.8135 -0.4369 -0.1256
  122OSM   C14S12955   3.320   0.917   9.337  0.2870  0.7513 -0.0504
  122OSM   H14S12956   3.331   0.820   9.283  4.2639  2.0302 -1.7479
  122OSM   H14T12957   3.410   0.910   9.403  1.4037 -0.7033 -1.6656
  122OSM   C15S12958   3.336   1.030   9.236 -0.3415  0.7443 -0.0270
  122OSM   H15S12959   3.424   1.005   9.173 -1.2025  0.7993 -1.2599
  122OSM   H15T12960   3.330   1.129   9.286  3.0602  0.0137  1.9653
  122OSM   C16S12961   3.218   1.030   9.135  0.1097  0.0590 -0.1560
  122OSM   H16S12962   3.121   1.050   9.185 -0.8053  0.5039 -2.0452
  122OSM   H16T12963   3.226   0.928   9.092  3.1422 -0.1046  0.6744
  122OSM   C17S12964   3.223   1.141   9.025 -0.5242 -0.6708  0.0325
  122OSM   H17S12965   3.324   1.131   8.979 -0.3015  1.8785 -0.0992
  122OSM   H17T12966   3.217   1.244   9.065  0.6480  0.1243 -1.7717
  122OSM   C18S12967   3.117   1.115   8.918  0.2673 -0.1727 -0.4860
  122OSM   H18S12968   3.127   1.017   8.868  0.4907  0.3185 -1.4249
  122OSM   H18T12969   3.122   1.201   8.848 -1.1464  0.7499  0.5349
  122OSM   H18U12970   3.015   1.127   8.959 -0.0145 -1.6646 -0.7530
  122OSM    C1F12971   3.239   0.224  10.174 -0.2153 -0.6794 -0.1777
  122OSM     OF12972   3.142   0.199  10.243  0.7738 -0.0041 -0.0805
  122OSM    C2F12973   3.267   0.168  10.042 -0.1381  0.3570 -0.2862
  122OSM    H2F12974   3.232   0.063  10.041  0.1951  0.2444 -0.2279
  122OSM    H2G12975   3.376   0.172  10.021 -0.0951 -0.7624 -0.3061
  122OSM    C3F12976   3.188   0.243   9.935 -0.1174 -0.3819  0.3608
  122OSM    H3F12977   3.077   0.236   9.946 -0.2967 -1.3074 -1.6736
  122OSM    H3G12978   3.205   0.195   9.836  0.3201  2.2076 -0.8807
  122OSM    C4F12979   3.231   0.390   9.932  0.3407 -0.0964  0.6831
  122OSM    H4F12980   3.338   0.390   9.961  0.4379 -3.8345  0.5658
  122OSM    H4G12981   3.171   0.450  10.004 -0.3036  2.6659 -2.0605
  122OSM    C5F12982   3.211   0.455   9.793  0.5287 -0.1009  0.0532
  122OSM    H5F12983   3.251   0.558   9.804  1.5057 -0.6202  1.4230
  122OSM    H5G12984   3.101   0.457   9.772  0.6775  3.1300 -0.7232
  122OSM    C6F12985   3.296   0.396   9.677  0.4059  0.5478 -0.4534
  122OSM    H6F12986   3.297   0.287   9.658  1.2943  0.7661 -1.7213
  122OSM    H6G12987   3.401   0.420   9.705  0.2076  3.6999 -2.1573
  122OSM    C7F12988   3.262   0.462   9.543  0.1654  0.1302  1.1600
  122OSM    H7F12989   3.234   0.569   9.550  2.5497  0.8086  0.6760
  122OSM    H7G12990   3.176   0.405   9.500 -0.1065  0.7738  0.8393
  122OSM    C8F12991   3.367   0.438   9.429  0.2718 -0.1566  0.4284
  122OSM    H8F12992   3.380   0.328   9.429 -0.2598 -0.2198  1.0581
  122OSM    H8G12993   3.469   0.473   9.457  0.4115  1.4039 -1.8069
  122OSM    C9F12994   3.319   0.499   9.296  0.0678 -0.3385 -0.0470
  122OSM    H9F12995   3.284   0.603   9.304 -0.8387 -0.4736 -1.9699
  122OSM   C10F12996   3.316   0.446   9.173 -0.5653 -1.3909 -0.1648
  122OSM   H10F12997   3.282   0.517   9.096  1.5213  0.2160  0.3560
  122OSM   C11F12998   3.351   0.312   9.118  0.1888 -0.7056  0.6240
  122OSM   H11F12999   3.298   0.224   9.162 -0.6144 -0.2393  0.6040
  122OSM   H11G13000   3.448   0.290   9.168  0.7039  1.4049  0.5701
  122OSM   C12F13001   3.378   0.326   8.972  0.3474 -0.5872 -0.5839
  122OSM   H12F13002   3.429   0.234   8.935  2.4722  0.9344 -1.5184
  122OSM   H12G13003   3.438   0.416   8.950 -0.4286 -0.4646 -2.3245
  122OSM   C13F13004   3.240   0.338   8.895  0.1017  0.0140 -0.3938
  122OSM   H13F13005   3.192   0.438   8.903 -0.3737 -0.2641  0.2561
  122OSM   H13G13006   3.176   0.262   8.944 -0.3511  0.1121 -0.8325
  122OSM   C14F13007   3.241   0.304   8.743 -0.1222 -0.2948 -0.4568
  122OSM   H14F13008   3.290   0.204   8.745 -0.6957 -0.5488  1.2636
  122OSM   H14G13009   3.303   0.384   8.697  0.0439 -0.7385 -1.0175
  122OSM   C15F13010   3.106   0.299   8.678 -0.2719  0.4491 -0.1715
  122OSM   H15F13011   3.084   0.403   8.648 -0.5432  0.6294  0.6340
  122OSM   H15G13012   3.037   0.272   8.760 -1.9341 -1.9659 -2.2910
  122OSM   C16F13013   3.083   0.186   8.574  0.4384  0.5888  0.4012
  122OSM   H16F13014   2.975   0.181   8.549 -0.0161 -0.2935  2.4026
  122OSM   H16G13015   3.110   0.086   8.615 -0.6568 -0.6443 -1.8458
  122OSM   C17F13016   3.174   0.206   8.451 -0.5287 -0.4440  0.4453
  122OSM   H17F13017   3.157   0.122   8.380  1.1927  0.4249 -1.0405
  122OSM   H17G13018   3.283   0.199   8.472 -0.4413  0.1950  0.2280
  122OSM   C18F13019   3.149   0.337   8.381 -0.1144  0.4050 -0.8006
  122OSM   H18F13020   3.204   0.343   8.285 -0.0310 -1.6262 -0.8998
  122OSM   H18G13021   3.172   0.423   8.448 -4.6234  1.0068  0.1611
  122OSM   H18H13022   3.041   0.343   8.357 -0.9867  0.9976  2.9903
  123OSM      N13023   0.820   6.628   5.840 -0.6217  0.2927  0.0687
  123OSM    C1513024   0.726   6.530   5.780  0.2177 -0.0597 -0.3161
  123OSM   H15A13025   0.770   6.434   5.761 -2.0173 -0.7179 -2.4815
  123OSM   H15B13026   0.698   6.571   5.684  1.7098  2.2249  0.1831
  123OSM   H15C13027   0.635   6.521   5.839  1.4770  0.2090  1.7203
  123OSM    C1413028   0.950   6.616   5.771 -0.8854  0.1937  0.6906
  123OSM   H14A13029   1.009   6.540   5.819  2.4646  3.6035  2.2413
  123OSM   H14B13030   1.011   6.705   5.781 -0.0837 -0.1736 -0.9290
  123OSM   H14C13031   0.933   6.601   5.666  0.9294 -6.0077  1.1091
  123OSM    C1313032   0.762   6.763   5.799 -0.3183 -0.2877 -0.0443
  123OSM   H13A13033   0.817   6.849   5.833 -2.1578  0.0885  2.1481
  123OSM   H13B13034   0.665   6.779   5.845  0.4657 -1.4270  2.0543
  123OSM   H13C13035   0.739   6.781   5.695  1.0297  1.4416 -0.0632
  123OSM    C1213036   0.841   6.620   5.995  0.2662 -0.2277  0.4576
  123OSM   H12A13037   0.744   6.633   6.040  0.7339 -2.0864  2.0450
  123OSM   H12B13038   0.899   6.705   6.027 -1.6589  1.2803  0.0536
  123OSM    C1113039   0.888   6.484   6.046  0.3690 -0.2662  0.2274
  123OSM   H11A13040   0.904   6.490   6.156 -0.8032  0.5067  0.3635
  123OSM   H11B13041   0.992   6.476   6.006 -0.5055 -2.2100 -1.7480
  123OSM      P13042   0.791   6.236   6.073  0.3561 -0.6057  0.0697
  123OSM    O1313043   0.650   6.195   6.066 -0.1904 -0.0798 -0.6076
  123OSM    O1413044   0.895   6.156   6.006 -0.2065  0.1324  0.2581
  123OSM    O1113045   0.840   6.255   6.227  0.0241 -0.4207  0.2327
  123OSM    O1213046   0.796   6.381   6.017  0.6686  0.0448  0.0545
  123OSM    C1S13047   0.746   6.264   6.333 -0.2623 -0.2528  0.0853
  123OSM    H1S13048   0.677   6.178   6.334  1.5811 -1.7581  0.2792
  123OSM    H1T13049   0.695   6.363   6.336  0.3713  0.0512  1.1916
  123OSM     NF13050   0.708   6.251   6.576 -0.0184  0.1671 -0.1517
  123OSM    HNF13051   0.673   6.343   6.596 -2.0204 -0.8450  1.2291
  123OSM    C2S13052   0.811   6.252   6.475  0.0439  0.2625 -0.2929
  123OSM    H2S13053   0.867   6.156   6.482  0.0414  0.3524  1.2279
  123OSM    C3S13054   0.917   6.360   6.490  0.0571 -0.1991  1.3675
  123OSM    H3S13055   0.862   6.457   6.500  0.6041  0.6500 -2.7816
  123OSM     O313056   0.999   6.381   6.378 -0.1777 -0.0844  0.1817
  123OSM    HO313057   0.963   6.339   6.300  1.4716 -1.4770  0.1402
  123OSM    C4S13058   1.002   6.347   6.606 -0.6225  0.2511 -0.3012
  123OSM    H4S13059   1.059   6.257   6.632 -2.3999 -0.6516  0.5781
  123OSM    C5S13060   1.014   6.445   6.701 -0.0098 -0.6433  0.0703
  123OSM    H5S13061   0.960   6.539   6.682  1.6466  0.7143  1.8200
  123OSM    C6S13062   1.111   6.431   6.812  0.3327  0.1331 -0.3154
  123OSM    H6S13063   1.174   6.522   6.810  1.2609 -0.5009 -0.8000
  123OSM    H6T13064   1.183   6.347   6.801  0.8669  0.1768  2.3888
  123OSM    C7S13065   1.050   6.424   6.950 -0.4152 -0.3545  0.9592
  123OSM    H7S13066   0.982   6.337   6.958  0.4350 -0.8728  3.1458
  123OSM    H7T13067   0.991   6.516   6.969  2.0954  1.1314  1.8931
  123OSM    C8S13068   1.166   6.410   7.047  0.5941 -0.1214 -0.4458
  123OSM    H8S13069   1.218   6.508   7.048 -0.0487  0.2517 -2.0741
  123OSM    H8T13070   1.243   6.336   7.016  1.3874  0.5547 -0.0927
  123OSM    C9S13071   1.119   6.383   7.195 -0.0394  0.2062 -0.0129
  123OSM    H9S13072   1.114   6.273   7.206  0.3600 -0.1150 -2.7967
  123OSM    H9T13073   1.032   6.446   7.224 -0.0129 -0.9170  2.6445
  123OSM   C10S13074   1.227   6.424   7.299 -0.3237 -0.6203  0.0595
  123OSM   H10S13075   1.194   6.420   7.405  1.3076  0.4915  0.6296
  123OSM   H10T13076   1.256   6.530   7.281  1.7300 -1.4452 -1.5859
  123OSM   C11S13077   1.357   6.342   7.285 -0.0655 -0.5069  0.5160
  123OSM   H11S13078   1.397   6.373   7.186 -1.0720 -0.4356  0.1211
  123OSM   H11T13079   1.323   6.236   7.290 -2.0721  0.0930  0.0896
  123OSM   C12S13080   1.437   6.368   7.408  0.4151 -0.3840 -0.2784
  123OSM   H12S13081   1.438   6.476   7.431  1.0412 -0.2162 -1.0667
  123OSM   H12T13082   1.544   6.344   7.387 -0.0971 -0.6151 -2.7512
  123OSM   C13S13083   1.394   6.298   7.537  0.0723 -0.5744 -0.6698
  123OSM   H13S13084   1.415   6.191   7.515 -1.8003 -1.1968  0.4231
  123OSM   H13T13085   1.285   6.301   7.555  0.2637 -1.2719  0.7371
  123OSM   C14S13086   1.450   6.364   7.664 -0.0888  0.2314  0.4836
  123OSM   H14S13087   1.381   6.447   7.690  0.7509  1.1738 -0.2627
  123OSM   H14T13088   1.546   6.420   7.656  0.2974 -0.4722  0.1468
  123OSM   C15S13089   1.458   6.266   7.783  0.5889 -0.2312 -0.4297
  123OSM   H15S13090   1.559   6.221   7.789  0.6550  0.0853  0.9581
  123OSM   H15T13091   1.390   6.180   7.763  2.2230 -1.0338 -2.7233
  123OSM   C16S13092   1.426   6.341   7.912  0.1672  0.4858  0.5185
  123OSM   H16S13093   1.319   6.372   7.911  0.0340  0.2109  3.0746
  123OSM   H16T13094   1.490   6.431   7.922  2.4042 -1.0971  0.7911
  123OSM   C17S13095   1.446   6.258   8.031  0.3090  0.5083  0.6058
  123OSM   H17S13096   1.550   6.265   8.071  1.1550  1.3738 -1.6392
  123OSM   H17T13097   1.426   6.152   8.005  0.6506  0.9175 -1.4101
  123OSM   C18S13098   1.366   6.303   8.151  0.4056  0.2393 -0.1092
  123OSM   H18S13099   1.375   6.226   8.230 -1.1988  1.0178  0.8505
  123OSM   H18T13100   1.257   6.312   8.130  0.5369 -1.4222 -1.6545
  123OSM   H18U13101   1.413   6.398   8.184  1.1251 -0.1665  0.0573
  123OSM    C1F13102   0.644   6.142   6.611  0.2537 -0.4742  0.6165
  123OSM     OF13103   0.663   6.035   6.557 -0.0639  0.1901  0.0452
  123OSM    C2F13104   0.533   6.158   6.717  0.7544 -0.3486 -0.3863
  123OSM    H2F13105   0.509   6.054   6.747  0.5385 -0.5377 -1.1828
  123OSM    H2G13106   0.441   6.194   6.665  1.2523  0.0140 -1.0317
  123OSM    C3F13107   0.585   6.235   6.842  0.0471 -0.4515  0.3186
  123OSM    H3F13108   0.493   6.235   6.905 -1.7512 -1.8324 -2.1926
  123OSM    H3G13109   0.591   6.342   6.813 -1.7270 -0.7736 -1.3857
  123OSM    C4F13110   0.714   6.180   6.905  0.5721 -0.2399  0.3903
  123OSM    H4F13111   0.807   6.216   6.857  1.1500 -1.8122  0.2997
  123OSM    H4G13112   0.709   6.069   6.909 -1.1042 -0.2339 -1.1232
  123OSM    C5F13113   0.714   6.235   7.047  0.5962  0.5996 -0.0092
  123OSM    H5F13114   0.618   6.201   7.090  0.3372 -0.4135 -1.3469
  123OSM    H5G13115   0.725   6.345   7.056 -0.5407  0.6344  0.9283
  123OSM    C6F13116   0.823   6.172   7.142  0.0805  0.8480 -0.4985
  123OSM    H6F13117   0.920   6.224   7.136  0.7525  0.0021  2.2197
  123OSM    H6G13118   0.840   6.064   7.124 -0.6428  0.6785 -0.1814
  123OSM    C7F13119   0.784   6.202   7.295  0.7383 -0.2378  0.0166
  123OSM    H7F13120   0.684   6.162   7.322  1.4743 -3.3151 -1.5460
  123OSM    H7G13121   0.779   6.311   7.313  0.7036 -0.2096 -0.1598
  123OSM    C8F13122   0.884   6.142   7.395 -0.4587  0.9707  0.1561
  123OSM    H8F13123   0.974   6.205   7.376  0.2251 -0.3757 -1.1276
  123OSM    H8G13124   0.908   6.039   7.361  0.7604  1.6737 -1.1998
  123OSM    C9F13125   0.841   6.149   7.536  0.2318  0.0728  0.3607
  123OSM    H9F13126   0.747   6.093   7.544 -0.3347  1.0238  0.4166
  123OSM   C10F13127   0.896   6.212   7.638  0.5412  0.6057  0.1015
  123OSM   H10F13128   0.849   6.195   7.736 -0.8757  2.4335 -0.2489
  123OSM   C11F13129   1.023   6.296   7.637 -0.5519 -0.1094 -0.3209
  123OSM   H11F13130   1.051   6.313   7.531 -0.2902  1.2795 -0.0453
  123OSM   H11G13131   1.104   6.228   7.670  2.1931  1.7804 -2.9091
  123OSM   C12F13132   1.030   6.425   7.725 -0.1223 -0.3466 -0.1987
  123OSM   H12F13133   0.975   6.510   7.680  0.0758  0.4904  1.1269
  123OSM   H12G13134   1.137   6.455   7.720 -1.1296  3.7984  1.1782
  123OSM   C13F13135   0.997   6.402   7.873  0.2653 -0.2727  0.0179
  123OSM   H13F13136   1.028   6.301   7.906  0.1401  0.0437  1.0992
  123OSM   H13G13137   0.887   6.388   7.878  0.6320 -2.8539  1.5688
  123OSM   C14F13138   1.044   6.507   7.967  0.0375  0.3238  0.0629
  123OSM   H14F13139   1.007   6.603   7.924  0.1517  1.4204  2.3340
  123OSM   H14G13140   1.155   6.514   7.974  0.1560 -1.7673  0.4631
  123OSM   C15F13141   0.985   6.495   8.108  0.3386 -0.4437 -0.1792
  123OSM   H15F13142   1.020   6.404   8.161 -1.9000 -0.6083  1.0915
  123OSM   H15G13143   0.874   6.483   8.104  0.2346  0.9052 -2.4849
  123OSM   C16F13144   1.015   6.620   8.205 -0.3946 -0.1514  0.1200
  123OSM   H16F13145   0.961   6.715   8.187  0.4866  0.5277  0.9493
  123OSM   H16G13146   1.123   6.644   8.192  0.5616 -3.4157  1.4417
  123OSM   C17F13147   1.005   6.571   8.347 -0.5791  0.0479 -0.2202
  123OSM   H17F13148   1.015   6.668   8.401  0.6327 -0.2856  0.1629
  123OSM   H17G13149   1.080   6.495   8.377 -0.6535 -0.4183 -1.2031
  123OSM   C18F13150   0.867   6.502   8.379  0.3104  0.2256 -0.0265
  123OSM   H18F13151   0.873   6.399   8.338  2.0383  0.1469  0.3865
  123OSM   H18G13152   0.776   6.557   8.349 -1.2628 -0.5948  3.0660
  123OSM   H18H13153   0.868   6.484   8.489 -2.0394  2.1085  0.3398
  124OSM      N13154   2.986   4.946   6.075  0.1541 -0.2005  0.0365
  124OSM    C1513155   2.961   5.063   5.984  0.4534 -0.1293 -0.5848
  124OSM   H15A13156   2.985   5.161   6.022 -0.5754 -1.0700  2.6196
  124OSM   H15B13157   2.860   5.066   5.945  0.4042  1.0177 -0.3857
  124OSM   H15C13158   3.026   5.056   5.897 -0.3518 -1.3200 -1.1040
  124OSM    C1413159   2.939   4.824   6.010 -0.1126  0.6255 -0.8514
  124OSM   H14A13160   2.960   4.736   6.068  2.9339  1.3286 -0.7998
  124OSM   H14B13161   2.990   4.806   5.916  1.7209  1.0702  0.0442
  124OSM   H14C13162   2.832   4.822   6.000 -0.1882 -0.6812  0.1936
  124OSM    C1313163   3.132   4.918   6.113  0.0417  0.4272  0.2830
  124OSM   H13A13164   3.146   4.825   6.166  0.6251  1.3507  1.8066
  124OSM   H13B13165   3.172   4.998   6.175  0.0365 -0.8327  1.9482
  124OSM   H13C13166   3.192   4.929   6.024  1.7032  0.8064  1.4161
  124OSM    C1213167   2.902   4.958   6.203 -0.3001  0.2451 -0.2734
  124OSM   H12A13168   2.799   4.943   6.174  0.4813  0.2997 -3.2083
  124OSM   H12B13169   2.918   5.055   6.248  1.0592  0.6811 -1.6659
  124OSM    C1113170   2.926   4.850   6.315  0.4138  0.1981  0.7373
  124OSM   H11A13171   2.864   4.876   6.403 -0.7622  2.7252 -0.7955
  124OSM   H11B13172   3.028   4.859   6.360  1.5523  0.0283 -1.7527
  124OSM      P13173   2.811   4.609   6.330 -0.1716  0.1762  0.1895
  124OSM    O1313174   2.668   4.618   6.290  0.1547 -0.2510  0.2649
  124OSM    O1413175   2.871   4.479   6.307 -0.5733  0.5300 -0.1305
  124OSM    O1113176   2.823   4.642   6.489  0.0346  0.0232 -0.2870
  124OSM    O1213177   2.894   4.721   6.259 -0.8526  0.1114 -0.5815
  124OSM    C1S13178   2.937   4.602   6.566  0.6883  0.1276 -0.5717
  124OSM    H1S13179   3.032   4.640   6.522  1.8693 -1.9800  0.0589
  124OSM    H1T13180   2.951   4.492   6.564 -2.5900 -0.3665  0.6169
  124OSM     NF13181   3.062   4.626   6.777 -0.2185  0.0915 -0.1046
  124OSM    HNF13182   3.089   4.541   6.821  0.7031 -0.1146 -1.0555
  124OSM    C2S13183   2.932   4.635   6.713 -1.0318 -0.3844 -0.9840
  124OSM    H2S13184   2.892   4.737   6.734 -0.2094 -0.5832  1.6990
  124OSM    C3S13185   2.818   4.551   6.777  0.2220 -0.4843  0.6552
  124OSM    H3S13186   2.854   4.446   6.788 -0.6463 -1.1744 -2.5076
  124OSM     O313187   2.706   4.535   6.694  0.6406  0.2146 -0.3520
  124OSM    HO313188   2.729   4.583   6.614 -0.8920  1.9571  0.2247
  124OSM    C4S13189   2.796   4.593   6.915 -0.0472  0.5727  0.5244
  124OSM    H4S13190   2.888   4.580   6.975  0.4519 -0.0263 -0.3668
  124OSM    C5S13191   2.683   4.648   6.966 -0.5669  0.9523  0.7975
  124OSM    H5S13192   2.600   4.660   6.895 -0.5008  2.0367  0.9030
  124OSM    C6S13193   2.657   4.689   7.103  0.3609  0.5813 -0.5268
  124OSM    H6S13194   2.553   4.664   7.129  0.1231  1.7477 -0.3435
  124OSM    H6T13195   2.676   4.795   7.130  1.6242  0.7035 -1.8021
  124OSM    C7S13196   2.754   4.611   7.196  1.0836  0.1800 -0.5768
  124OSM    H7S13197   2.860   4.637   7.175  1.4460  0.2665  1.2748
  124OSM    H7T13198   2.733   4.503   7.179  0.2550  0.2624 -0.0575
  124OSM    C8S13199   2.731   4.642   7.343  1.2168 -0.2838  0.6169
  124OSM    H8S13200   2.642   4.589   7.381  1.0425 -1.8638 -1.8792
  124OSM    H8T13201   2.728   4.752   7.358 -0.8347 -0.0365 -1.4481
  124OSM    C9S13202   2.846   4.588   7.422 -0.3808  0.1009  0.3237
  124OSM    H9S13203   2.939   4.637   7.385 -0.0972  0.7412  1.8192
  124OSM    H9T13204   2.877   4.482   7.408  2.2533  0.8737 -0.0481
  124OSM   C10S13205   2.849   4.616   7.574  0.5336 -0.6819  0.4505
  124OSM   H10S13206   2.857   4.723   7.603  0.5522 -0.7331  0.6319
  124OSM   H10T13207   2.938   4.562   7.612  0.5188  0.0021  1.4579
  124OSM   C11S13208   2.721   4.568   7.636  0.6262 -0.1571  0.0750
  124OSM   H11S13209   2.692   4.462   7.620  0.1099 -0.0754  0.4473
  124OSM   H11T13210   2.627   4.615   7.599  0.6298  1.7714  2.3781
  124OSM   C12S13211   2.719   4.584   7.789 -0.3073  0.1135 -0.1818
  124OSM   H12S13212   2.810   4.529   7.821 -1.0597 -1.1160 -0.0918
  124OSM   H12T13213   2.637   4.523   7.834  0.0776 -0.7629 -0.6546
  124OSM   C13S13214   2.735   4.723   7.842  0.7196 -0.2788  0.9360
  124OSM   H13S13215   2.660   4.798   7.809  1.2403  0.2115  0.8504
  124OSM   H13T13216   2.825   4.771   7.798  0.5792  0.0516  0.9996
  124OSM   C14S13217   2.751   4.719   7.993 -0.1271 -0.5169 -0.0538
  124OSM   H14S13218   2.666   4.660   8.034  0.4936 -0.5017  1.2587
  124OSM   H14T13219   2.732   4.818   8.038  1.6323  0.5916 -1.6543
  124OSM   C15S13220   2.893   4.692   8.035  0.0106 -0.0095  0.0696
  124OSM   H15S13221   2.949   4.770   7.978  2.5310 -2.7789 -1.3961
  124OSM   H15T13222   2.938   4.601   7.989  1.0297  0.1290  0.7650
  124OSM   C16S13223   2.918   4.693   8.183 -0.2352  0.4573 -0.5089
  124OSM   H16S13224   2.855   4.769   8.234 -0.3243  0.1349 -0.1314
  124OSM   H16T13225   3.025   4.713   8.201 -1.2139  2.0388  4.2903
  124OSM   C17S13226   2.867   4.565   8.241  0.2602  0.6818 -0.3447
  124OSM   H17S13227   2.909   4.478   8.187  1.3235  2.2377 -2.0570
  124OSM   H17T13228   2.757   4.553   8.228  0.0155 -1.1505  2.6765
  124OSM   C18S13229   2.900   4.534   8.385 -0.0491 -0.0390  0.1954
  124OSM   H18S13230   2.821   4.578   8.449 -0.2642  0.5318 -0.4522
  124OSM   H18T13231   3.003   4.561   8.418  0.8795 -2.5188 -0.5820
  124OSM   H18U13232   2.897   4.425   8.403 -4.0173  0.1015  0.8541
  124OSM    C1F13233   3.153   4.727   6.754 -0.6010 -0.1486  0.7829
  124OSM     OF13234   3.136   4.820   6.674 -0.5514  0.1398  0.0105
  124OSM    C2F13235   3.273   4.710   6.835 -0.3606 -0.1755  0.4395
  124OSM    H2F13236   3.308   4.606   6.822  0.4202  0.2615 -1.1104
  124OSM    H2G13237   3.244   4.714   6.942  2.6618  2.9060  1.2381
  124OSM    C3F13238   3.385   4.818   6.827  0.0597  0.8873 -0.3017
  124OSM    H3F13239   3.339   4.918   6.840  1.5256  1.7175 -1.3914
  124OSM    H3G13240   3.428   4.821   6.724  3.0768 -0.3899  0.8794
  124OSM    C4F13241   3.500   4.805   6.926  0.3306  0.1869  0.3826
  124OSM    H4F13242   3.578   4.868   6.878 -0.2966  1.5744  1.1831
  124OSM    H4G13243   3.537   4.700   6.915 -1.6452 -0.5598  0.6752
  124OSM    C5F13244   3.472   4.832   7.071 -0.5363 -0.3360  0.3041
  124OSM    H5F13245   3.363   4.813   7.083 -1.0379  2.0087 -0.3676
  124OSM    H5G13246   3.502   4.932   7.108 -2.4206  0.0971  0.7262
  124OSM    C6F13247   3.533   4.733   7.171 -0.7076  0.6664 -0.5778
  124OSM    H6F13248   3.641   4.755   7.182 -0.5666 -1.0358  1.8854
  124OSM    H6G13249   3.508   4.632   7.132 -0.9133  0.0006  1.2222
  124OSM    C7F13250   3.482   4.739   7.320  0.0339  0.0841  0.2225
  124OSM    H7F13251   3.381   4.693   7.321  0.7203 -1.4451  0.7980
  124OSM    H7G13252   3.473   4.843   7.358  1.8374  0.7094 -0.9688
  124OSM    C8F13253   3.579   4.667   7.407 -0.1558  0.1525 -0.8756
  124OSM    H8F13254   3.680   4.701   7.377  0.0353  0.4158  0.0675
  124OSM    H8G13255   3.563   4.558   7.392 -0.4762  0.3063 -1.6673
  124OSM    C9F13256   3.545   4.688   7.551  0.3802  0.8890 -0.4490
  124OSM    H9F13257   3.444   4.654   7.574  0.7808 -0.4474 -0.6565
  124OSM   C10F13258   3.622   4.739   7.648  0.3063 -0.7078  0.3260
  124OSM   H10F13259   3.585   4.773   7.746 -1.2771 -1.8218  0.1241
  124OSM   C11F13260   3.758   4.783   7.626  0.0101  0.2952  0.2694
  124OSM   H11F13261   3.777   4.875   7.686 -1.4846  1.5211 -1.1076
  124OSM   H11G13262   3.769   4.812   7.520  0.8421 -0.2519  0.2013
  124OSM   C12F13263   3.859   4.678   7.665 -0.1166 -0.0354 -0.1423
  124OSM   H12F13264   3.957   4.713   7.627  0.3066 -0.0764  0.9108
  124OSM   H12G13265   3.832   4.582   7.616 -0.0658 -1.1025  1.9110
  124OSM   C13F13266   3.876   4.670   7.817  0.1027 -0.5535  0.0727
  124OSM   H13F13267   3.771   4.645   7.844  0.3721 -0.5667  1.1462
  124OSM   H13G13268   3.909   4.771   7.849 -1.1217  0.1993 -0.9997
  124OSM   C14F13269   3.964   4.554   7.860 -0.1081 -0.0009  0.1960
  124OSM   H14F13270   4.065   4.572   7.819  0.2693 -0.2198  1.0227
  124OSM   H14G13271   3.912   4.459   7.835  1.1040 -0.1171 -2.0037
  124OSM   C15F13272   3.978   4.544   8.021  0.1841  0.8096 -0.5342
  124OSM   H15F13273   3.991   4.649   8.052 -0.1575 -0.4310  4.1008
  124OSM   H15G13274   4.076   4.500   8.052 -0.6465 -1.0426 -0.4512
  124OSM   C16F13275   3.864   4.474   8.086  1.2934 -0.2228 -0.2310
  124OSM   H16F13276   3.885   4.365   8.075 -1.2683 -0.7416 -0.3787
  124OSM   H16G13277   3.779   4.499   8.019 -1.8975 -0.2350  3.5912
  124OSM   C17F13278   3.837   4.515   8.231 -0.9994  0.2158  0.3404
  124OSM   H17F13279   3.743   4.574   8.244  0.0990  1.7714  1.4069
  124OSM   H17G13280   3.903   4.601   8.255 -0.0107 -0.9689  1.8708
  124OSM   C18F13281   3.865   4.402   8.331 -0.5590 -0.1702  0.2553
  124OSM   H18F13282   3.955   4.344   8.301 -0.3741  0.1954  0.0952
  124OSM   H18G13283   3.784   4.327   8.339 -0.1414 -1.0827 -3.2979
  124OSM   H18H13284   3.878   4.434   8.436  0.1146  1.2514 -0.2442
  125OSM      N13285   2.719   5.669   6.320  0.3571 -0.3177 -0.1052
  125OSM    C1513286   2.577   5.667   6.295  0.4563  0.3529  0.2888
  125OSM   H15A13287   2.541   5.577   6.248  1.2617 -0.0540  0.4647
  125OSM   H15B13288   2.554   5.742   6.220  2.2724  0.2718 -0.3801
  125OSM   H15C13289   2.512   5.684   6.379 -1.8600 -0.6747 -1.2343
  125OSM    C1413290   2.753   5.558   6.414  0.3575  0.5256  0.2179
  125OSM   H14A13291   2.859   5.539   6.430  0.1271 -0.4047  0.6970
  125OSM   H14B13292   2.706   5.468   6.378  1.4039  0.3848 -0.8267
  125OSM   H14C13293   2.703   5.580   6.507 -1.5527  0.6175 -0.8180
  125OSM    C1313294   2.798   5.643   6.193  0.6834 -0.0641 -0.5779
  125OSM   H13A13295   2.783   5.719   6.118 -0.9598 -0.4142 -0.6124
  125OSM   H13B13296   2.767   5.554   6.141  0.4839  0.2314 -0.9613
  125OSM   H13C13297   2.901   5.627   6.225  1.1808  2.3406 -0.8688
  125OSM    C1213298   2.766   5.796   6.376 -0.3730  0.1620  0.2946
  125OSM   H12A13299   2.869   5.786   6.408 -1.4780 -0.2915  3.8765
  125OSM   H12B13300   2.714   5.823   6.466  0.3077 -3.8164  1.9600
  125OSM    C1113301   2.758   5.928   6.288 -0.5975 -0.0551  0.0073
  125OSM   H11A13302   2.764   6.018   6.352  0.0534  0.1932 -0.4008
  125OSM   H11B13303   2.654   5.939   6.252 -0.2647  0.0140 -0.9533
  125OSM      P13304   3.001   5.935   6.207 -0.0296 -0.3254 -0.2313
  125OSM    O1313305   3.067   5.803   6.185 -0.1723  0.4482  0.3606
  125OSM    O1413306   3.051   6.050   6.134  0.0980 -0.1786  0.2497
  125OSM    O1113307   3.007   5.967   6.366  0.2313  0.0213  0.8516
  125OSM    O1213308   2.849   5.931   6.180  0.2823 -0.2479 -0.4634
  125OSM    C1S13309   3.132   5.948   6.436 -0.5550 -0.5686  0.5502
  125OSM    H1S13310   3.212   6.019   6.406 -0.6024  0.0163  1.7868
  125OSM    H1T13311   3.163   5.842   6.426 -0.8553 -0.8654  2.5580
  125OSM     NF13312   3.249   5.942   6.650 -0.2053  0.1007  0.0395
  125OSM    HNF13313   3.240   5.858   6.703 -1.6964 -0.3688 -0.9179
  125OSM    C2S13314   3.122   5.975   6.585 -0.2803 -0.8870 -0.1652
  125OSM    H2S13315   3.112   6.084   6.600 -0.5627 -0.8604 -0.5409
  125OSM    C3S13316   3.000   5.908   6.651 -0.4383 -0.3426  0.1913
  125OSM    H3S13317   3.009   5.801   6.624  1.1660 -0.3908  0.8237
  125OSM     O313318   2.871   5.955   6.599  0.3113  0.0653 -0.2311
  125OSM    HO313319   2.888   5.983   6.509  0.6114 -1.5054 -0.6846
  125OSM    C4S13320   3.005   5.917   6.799  0.0124  0.0843 -0.6834
  125OSM    H4S13321   3.048   5.828   6.847  2.3196  1.1929 -0.6424
  125OSM    C5S13322   2.963   6.024   6.872 -0.6080  0.1077  0.3817
  125OSM    H5S13323   2.938   6.116   6.817 -0.8044 -0.8414 -1.1481
  125OSM    C6S13324   2.973   6.028   7.023  0.4988 -0.1276 -0.5273
  125OSM    H6S13325   2.875   6.019   7.075  0.3743 -0.8136 -0.8747
  125OSM    H6T13326   3.002   6.132   7.049 -0.9428  0.0249  0.5292
  125OSM    C7S13327   3.071   5.932   7.102 -0.6422  0.2989 -0.0861
  125OSM    H7S13328   3.179   5.947   7.081 -0.1280  1.8660  3.3025
  125OSM    H7T13329   3.038   5.831   7.070  2.7516 -1.2806  1.2521
  125OSM    C8S13330   3.052   5.951   7.251 -0.1864 -0.1948 -0.2528
  125OSM    H8S13331   2.947   5.974   7.281  0.8711  2.0876  1.8829
  125OSM    H8T13332   3.100   6.048   7.278  1.1023 -0.6952 -0.7489
  125OSM    C9S13333   3.100   5.835   7.334 -0.3493  0.3129 -0.1919
  125OSM    H9S13334   3.209   5.814   7.330 -0.8123 -2.3691  0.0699
  125OSM    H9T13335   3.053   5.741   7.297 -1.8608  0.1419  2.1049
  125OSM   C10S13336   3.053   5.843   7.481  0.6462  0.3132  0.0490
  125OSM   H10S13337   3.083   5.747   7.529 -2.0759 -0.5646  0.0807
  125OSM   H10T13338   2.943   5.852   7.472  0.3415 -2.9001 -0.1873
  125OSM   C11S13339   3.108   5.967   7.558  0.1778  0.0495  0.7414
  125OSM   H11S13340   3.083   6.060   7.504  2.1453  0.7848  1.0301
  125OSM   H11T13341   3.219   5.960   7.552 -0.0478 -1.8778 -2.5104
  125OSM   C12S13342   3.076   5.971   7.705 -0.0104  0.4399 -0.1890
  125OSM   H12S13343   3.115   5.874   7.744  1.7258  1.4085  0.5629
  125OSM   H12T13344   2.968   5.966   7.731  0.3992 -2.2241  1.2180
  125OSM   C13S13345   3.158   6.079   7.769  0.5468 -0.1784  0.0905
  125OSM   H13S13346   3.095   6.170   7.765  1.4143  0.3386 -2.5322
  125OSM   H13T13347   3.248   6.098   7.708 -0.0641  2.0238 -0.1409
  125OSM   C14S13348   3.197   6.044   7.918  0.0746  0.4053  0.1270
  125OSM   H14S13349   3.256   5.950   7.913  0.0681  0.1929  2.9751
  125OSM   H14T13350   3.111   6.012   7.982  0.5528 -0.2938  0.4251
  125OSM   C15S13351   3.256   6.159   8.004  0.1581  0.9170  0.1314
  125OSM   H15S13352   3.177   6.235   8.023  0.7447  1.2538  1.2477
  125OSM   H15T13353   3.340   6.210   7.952 -1.4883  2.4404 -1.1202
  125OSM   C16S13354   3.316   6.118   8.141 -0.0305  0.2359  0.1935
  125OSM   H16S13355   3.237   6.063   8.196  1.9061 -0.4372  2.3652
  125OSM   H16T13356   3.342   6.207   8.202  0.1788 -0.3007  0.9014
  125OSM   C17S13357   3.436   6.034   8.124 -0.0841  0.5665 -0.0576
  125OSM   H17S13358   3.528   6.096   8.120  1.2967 -1.5348 -2.2260
  125OSM   H17T13359   3.438   5.978   8.028  1.2567  0.7344 -0.1292
  125OSM   C18S13360   3.457   5.919   8.234  0.3275 -0.1923  0.3682
  125OSM   H18S13361   3.556   5.867   8.227 -0.5846 -2.2835  2.3532
  125OSM   H18T13362   3.382   5.837   8.235  1.9639 -1.7420  3.0553
  125OSM   H18U13363   3.446   5.967   8.333  2.5901  0.7144  0.2176
  125OSM    C1F13364   3.365   6.002   6.628  0.2358  0.0038  0.0377
  125OSM     OF13365   3.393   6.076   6.527 -0.8818  0.1893 -0.4576
  125OSM    C2F13366   3.472   5.959   6.724  0.9804 -0.0400 -0.0331
  125OSM    H2F13367   3.571   5.969   6.674  0.7190  3.2659 -0.0107
  125OSM    H2G13368   3.444   5.852   6.733  0.4894  0.1848  1.1610
  125OSM    C3F13369   3.454   6.016   6.867 -0.1971 -0.6525  0.5099
  125OSM    H3F13370   3.354   5.987   6.905 -0.4566  0.8220  0.9542
  125OSM    H3G13371   3.465   6.125   6.855  0.8002 -0.8303 -0.2807
  125OSM    C4F13372   3.564   5.977   6.956 -0.7709  0.2141 -0.3609
  125OSM    H4F13373   3.655   6.027   6.914  0.0015  0.8548  1.9883
  125OSM    H4G13374   3.576   5.867   6.958  0.0183  0.3114  1.0640
  125OSM    C5F13375   3.547   6.033   7.096 -0.0024  0.4004  0.4218
  125OSM    H5F13376   3.482   6.122   7.083  0.9119  0.4649 -4.7110
  125OSM    H5G13377   3.646   6.056   7.143  0.1932  1.2093 -0.3636
  125OSM    C6F13378   3.486   5.932   7.196  1.3575  0.2798 -0.4344
  125OSM    H6F13379   3.553   5.844   7.196 -0.0031 -0.7769 -1.0614
  125OSM    H6G13380   3.386   5.898   7.162  1.8508  0.1891 -1.7949
  125OSM    C7F13381   3.448   5.994   7.337  0.6046  0.3468 -0.0522
  125OSM    H7F13382   3.388   5.917   7.391  1.1688  0.0239  0.1221
  125OSM    H7G13383   3.376   6.078   7.331 -0.6146 -0.8538 -3.3098
  125OSM    C8F13384   3.561   6.006   7.437 -1.1735  0.1213 -0.1488
  125OSM    H8F13385   3.622   6.096   7.412 -0.4487 -0.7764 -1.6706
  125OSM    H8G13386   3.624   5.916   7.422 -1.1160  0.0633  0.4137
  125OSM    C9F13387   3.529   6.010   7.586 -0.4394 -0.3203 -0.5846
  125OSM    H9F13388   3.520   6.109   7.634  2.7937 -0.6595  0.8833
  125OSM   C10F13389   3.516   5.901   7.666 -0.0564 -0.0895  0.5138
  125OSM   H10F13390   3.503   5.914   7.774  0.1307  0.3754  0.4815
  125OSM   C11F13391   3.533   5.759   7.611  0.9167  0.3845  0.1943
  125OSM   H11F13392   3.630   5.735   7.563 -0.5530 -1.6350 -1.8613
  125OSM   H11G13393   3.454   5.749   7.533  0.6624  0.7006  0.4100
  125OSM   C12F13394   3.519   5.651   7.720  0.7472  0.1983 -0.3141
  125OSM   H12F13395   3.602   5.662   7.793 -2.1577  3.1242  2.7707
  125OSM   H12G13396   3.527   5.554   7.665  1.0152  1.2396 -2.1337
  125OSM   C13F13397   3.380   5.651   7.789  0.4794  0.2756 -1.0222
  125OSM   H13F13398   3.303   5.615   7.717 -0.1377 -0.3905 -0.0388
  125OSM   H13G13399   3.350   5.755   7.810 -0.0432 -0.2731  0.9857
  125OSM   C14F13400   3.371   5.560   7.912 -0.1194 -0.4802 -0.3761
  125OSM   H14F13401   3.454   5.591   7.979 -0.9813  1.6032 -0.2435
  125OSM   H14G13402   3.383   5.453   7.884 -1.4179 -0.8637  0.4951
  125OSM   C15F13403   3.247   5.593   7.988  0.2262 -0.0990  0.7857
  125OSM   H15F13404   3.158   5.553   7.936  0.4392 -0.3596  0.6221
  125OSM   H15G13405   3.224   5.701   7.998  0.5730  0.0468 -0.0354
  125OSM   C16F13406   3.240   5.553   8.134  0.2106 -0.4508 -0.4737
  125OSM   H16F13407   3.339   5.576   8.179  0.6103 -1.1847 -0.9700
  125OSM   H16G13408   3.226   5.443   8.145 -0.5332 -0.1934  1.2857
  125OSM   C17F13409   3.116   5.613   8.211  0.0479 -0.4986 -0.4557
  125OSM   H17F13410   3.037   5.580   8.141 -1.3930  1.4873  0.1731
  125OSM   H17G13411   3.129   5.724   8.212  0.2107 -0.5144 -1.1268
  125OSM   C18F13412   3.085   5.554   8.352 -0.5091 -0.4560  0.1908
  125OSM   H18F13413   3.018   5.609   8.422  1.8611 -0.5014  2.5477
  125OSM   H18G13414   3.174   5.543   8.417 -2.4501  0.3781  3.0771
  125OSM   H18H13415   3.044   5.453   8.327  1.9293 -1.0977 -1.4013
  126OSM      N13416   0.749   4.809   6.299  0.0219 -0.0301  0.1245
  126OSM    C1513417   0.691   4.675   6.246 -0.6048 -1.0037  0.3325
  126OSM   H15A13418   0.583   4.680   6.240 -0.5852 -0.3271  0.3999
  126OSM   H15B13419   0.717   4.591   6.308 -2.0694 -1.4832  0.3063
  126OSM   H15C13420   0.731   4.653   6.148  1.1428 -0.0543  0.7986
  126OSM    C1413421   0.896   4.806   6.303  0.1514  0.2080  0.6261
  126OSM   H14A13422   0.940   4.903   6.321  0.1730  0.2351  0.4252
  126OSM   H14B13423   0.941   4.780   6.209 -1.5064 -0.3880 -0.0134
  126OSM   H14C13424   0.931   4.738   6.380  0.4756 -1.7255 -1.1990
  126OSM    C1313425   0.712   4.918   6.204  0.5819 -0.2965  0.3364
  126OSM   H13A13426   0.772   4.903   6.115  0.8878 -3.7725  1.0381
  126OSM   H13B13427   0.730   5.021   6.231  2.7764  0.1041 -2.3889
  126OSM   H13C13428   0.608   4.916   6.173  0.1593 -0.9769  1.7683
  126OSM    C1213429   0.687   4.834   6.431 -0.4270  0.7552 -0.0216
  126OSM   H12A13430   0.720   4.929   6.468  0.3962 -0.4769  2.4958
  126OSM   H12B13431   0.718   4.764   6.507  0.3583  0.0147 -0.9969
  126OSM    C1113432   0.533   4.840   6.445 -0.5514 -0.5713  0.0353
  126OSM   H11A13433   0.494   4.826   6.548  0.3570  1.6406  0.6949
  126OSM   H11B13434   0.484   4.753   6.396 -2.0837  0.2303  0.0966
  126OSM      P13435   0.472   5.090   6.479 -0.0496 -0.0585 -0.4725
  126OSM    O1313436   0.578   5.170   6.428 -0.0986  0.1761 -0.4754
  126OSM    O1413437   0.336   5.148   6.480  0.0108  0.2695 -0.4296
  126OSM    O1113438   0.518   5.049   6.623 -0.3285  0.2061  1.1780
  126OSM    O1213439   0.481   4.960   6.393 -0.1312  0.1660 -0.5081
  126OSM    C1S13440   0.528   5.146   6.728 -0.2119  0.7790  0.1257
  126OSM    H1S13441   0.442   5.215   6.730  0.1478  1.2294  0.1595
  126OSM    H1T13442   0.619   5.207   6.707 -0.7945  2.6916  2.9295
  126OSM     NF13443   0.527   5.179   6.971 -0.2873  0.0711  0.5917
  126OSM    HNF13444   0.602   5.200   7.034  1.4612  1.0099 -1.7557
  126OSM    C2S13445   0.556   5.076   6.868 -0.1917  0.2123  0.9634
  126OSM    H2S13446   0.480   4.996   6.878  0.1019 -0.4828 -2.0113
  126OSM    C3S13447   0.685   5.007   6.873  0.2150 -0.5585 -0.2050
  126OSM    H3S13448   0.766   5.082   6.861 -1.1184  1.0947  0.8824
  126OSM     O313449   0.697   4.902   6.778 -0.1210 -0.0948 -0.1479
  126OSM    HO313450   0.625   4.916   6.716  0.2346  1.1226 -0.3049
  126OSM    C4S13451   0.710   4.956   7.014 -1.0702 -0.3163 -0.1548
  126OSM    H4S13452   0.771   5.022   7.077 -0.1477 -3.1907  2.1047
  126OSM    C5S13453   0.663   4.845   7.075  0.1927 -0.1114  0.1030
  126OSM    H5S13454   0.604   4.777   7.011  1.9911 -2.4015  0.8170
  126OSM    C6S13455   0.689   4.789   7.212  0.1951  0.8174 -0.1675
  126OSM    H6S13456   0.616   4.709   7.233  0.6170  0.7058  0.8851
  126OSM    H6T13457   0.661   4.865   7.288 -0.2283  0.5839 -0.0950
  126OSM    C7S13458   0.831   4.739   7.235 -0.7961  0.1428 -0.4390
  126OSM    H7S13459   0.910   4.816   7.223  0.3000 -0.9416 -0.2880
  126OSM    H7T13460   0.857   4.664   7.157  0.5725 -1.7976  1.8396
  126OSM    C8S13461   0.836   4.655   7.374 -1.3608  0.2637  0.5910
  126OSM    H8S13462   0.935   4.605   7.379 -2.0313 -1.3338 -1.4834
  126OSM    H8T13463   0.753   4.581   7.370 -0.8979 -0.2330 -0.0350
  126OSM    C9S13464   0.823   4.741   7.497 -0.0058  0.5190 -0.1368
  126OSM    H9S13465   0.721   4.785   7.501 -0.0044  0.6440 -1.2943
  126OSM    H9T13466   0.887   4.832   7.494  0.6245  0.0319 -1.9190
  126OSM   C10S13467   0.852   4.667   7.626 -0.2925  0.5912  0.6248
  126OSM   H10S13468   0.957   4.633   7.620 -0.4837 -0.2762  1.9887
  126OSM   H10T13469   0.777   4.585   7.635 -0.4114  0.8511  2.0848
  126OSM   C11S13470   0.847   4.743   7.759 -0.4168 -0.2261 -0.4597
  126OSM   H11S13471   0.769   4.819   7.777 -1.1507 -1.0800  0.0245
  126OSM   H11T13472   0.940   4.804   7.759 -0.8349  0.4166  0.6060
  126OSM   C12S13473   0.867   4.648   7.884  0.3063  0.7820  0.0392
  126OSM   H12S13474   0.945   4.573   7.856 -0.4020  0.3356 -0.7549
  126OSM   H12T13475   0.768   4.607   7.912  0.2774  1.1192  0.4330
  126OSM   C13S13476   0.905   4.731   8.010  0.1492 -0.0771  0.0910
  126OSM   H13S13477   0.828   4.807   8.037 -0.3344 -1.1069  1.7243
  126OSM   H13T13478   1.001   4.779   7.982 -0.1972  0.7065  0.2272
  126OSM   C14S13479   0.918   4.648   8.135  0.0346  0.5867 -0.2150
  126OSM   H14S13480   1.015   4.594   8.131  0.0384  0.6125 -0.5281
  126OSM   H14T13481   0.848   4.561   8.134 -1.5134  1.8101 -0.1293
  126OSM   C15S13482   0.908   4.724   8.274  0.0322 -0.3396  0.2029
  126OSM   H15S13483   0.805   4.767   8.273  0.9903  2.0765 -3.6702
  126OSM   H15T13484   0.985   4.803   8.280  1.3254 -1.2596 -3.3373
  126OSM   C16S13485   0.937   4.631   8.393  0.1042  0.2355 -0.8937
  126OSM   H16S13486   1.047   4.618   8.397 -0.2915 -3.0124  1.3422
  126OSM   H16T13487   0.886   4.533   8.383  0.6236 -0.0341 -0.8688
  126OSM   C17S13488   0.895   4.694   8.524  0.2229  0.2797  0.3215
  126OSM   H17S13489   0.786   4.706   8.504  0.0460  0.1403  1.1736
  126OSM   H17T13490   0.958   4.784   8.536  1.9495 -0.9247  0.5067
  126OSM   C18S13491   0.878   4.612   8.652 -0.8892  0.4568  0.4755
  126OSM   H18S13492   0.833   4.518   8.616  1.2598 -0.1873 -0.6211
  126OSM   H18T13493   0.813   4.658   8.730 -3.5126 -1.4177 -0.5453
  126OSM   H18U13494   0.976   4.595   8.701 -1.1369  0.2110  0.8885
  126OSM    C1F13495   0.409   5.210   7.017 -0.6646 -0.3378  0.8869
  126OSM     OF13496   0.312   5.170   6.954  0.8928 -0.3298 -0.2928
  126OSM    C2F13497   0.392   5.302   7.145  0.9351  1.1247  0.2926
  126OSM    H2F13498   0.402   5.408   7.115  0.4552  0.0424 -4.0736
  126OSM    H2G13499   0.474   5.273   7.214  2.9076 -1.0502 -2.8190
  126OSM    C3F13500   0.250   5.283   7.209  0.0657 -0.1655 -0.3035
  126OSM    H3F13501   0.231   5.176   7.231  0.8367 -0.7112 -2.2580
  126OSM    H3G13502   0.169   5.315   7.140 -0.2307  1.8130  0.9023
  126OSM    C4F13503   0.240   5.356   7.346 -0.7517 -0.5124  0.3645
  126OSM    H4F13504   0.241   5.467   7.340 -2.1589 -0.5571 -1.2070
  126OSM    H4G13505   0.318   5.325   7.419 -2.5407 -1.3689  1.9487
  126OSM    C5F13506   0.103   5.329   7.412  0.3110  0.2691 -0.8336
  126OSM    H5F13507   0.082   5.221   7.395  1.0672 -0.2127  1.1205
  126OSM    H5G13508   0.019   5.387   7.369 -0.8450 -1.7296 -1.3280
  126OSM    C6F13509   0.098   5.364   7.561  0.0372  0.9536 -0.2729
  126OSM    H6F13510   0.005   5.319   7.600  0.3227  1.9903  1.6840
  126OSM    H6G13511   0.106   5.472   7.586  0.4822  1.0183 -0.6860
  126OSM    C7F13512   0.209   5.292   7.644 -0.5529 -0.0039  0.0209
  126OSM    H7F13513   0.241   5.201   7.588 -0.0346  0.0327  0.2540
  126OSM    H7G13514   0.169   5.249   7.738  0.8825 -0.6458  0.3603
  126OSM    C8F13515   0.326   5.384   7.685 -0.1246 -0.2750  0.1379
  126OSM    H8F13516   0.281   5.477   7.726 -2.8829 -0.9030 -1.3108
  126OSM    H8G13517   0.383   5.408   7.592 -1.3048  1.4507 -0.1888
  126OSM    C9F13518   0.424   5.321   7.777  0.6487 -0.1842 -0.1189
  126OSM    H9F13519   0.507   5.263   7.732 -0.0815  0.5782 -2.5503
  126OSM   C10F13520   0.418   5.323   7.909 -0.3051  0.1614  0.0853
  126OSM   H10F13521   0.500   5.274   7.964 -0.6521 -1.5367 -0.8837
  126OSM   C11F13522   0.315   5.396   7.990 -0.0904 -0.0941 -0.1411
  126OSM   H11F13523   0.252   5.455   7.918 -0.9008 -1.0270 -0.2093
  126OSM   H11G13524   0.381   5.471   8.039  0.9338  0.1596 -1.8546
  126OSM   C12F13525   0.246   5.324   8.106  0.1673  0.5990  0.5194
  126OSM   H12F13526   0.194   5.235   8.065 -0.7910  2.2713 -1.9823
  126OSM   H12G13527   0.172   5.389   8.158 -0.0439 -0.4387  1.5353
  126OSM   C13F13528   0.330   5.277   8.225  0.1522 -0.4647 -0.2771
  126OSM   H13F13529   0.368   5.359   8.289  0.3851 -1.5517  0.9899
  126OSM   H13G13530   0.427   5.239   8.186  0.6779  1.3002 -0.7696
  126OSM   C14F13531   0.262   5.177   8.318  0.3645 -0.0089  1.0367
  126OSM   H14F13532   0.253   5.077   8.272  0.8289  0.3449  0.1490
  126OSM   H14G13533   0.158   5.215   8.327 -0.2992 -1.0687 -1.8002
  126OSM   C15F13534   0.326   5.181   8.457 -0.2944  0.1680  0.2915
  126OSM   H15F13535   0.436   5.173   8.441 -0.5683 -2.3158 -0.6231
  126OSM   H15G13536   0.304   5.089   8.515  2.1626  0.4892  1.7932
  126OSM   C16F13537   0.297   5.303   8.542 -0.0439  0.1803  0.3558
  126OSM   H16F13538   0.338   5.390   8.485  0.0298 -0.6260 -0.8472
  126OSM   H16G13539   0.369   5.297   8.626  1.2732 -0.6311 -0.8182
  126OSM   C17F13540   0.147   5.322   8.581  0.2715 -0.3219  0.6898
  126OSM   H17F13541   0.103   5.222   8.602 -1.8936  0.2077 -1.1365
  126OSM   H17G13542   0.099   5.366   8.491  0.2436 -0.4522  0.6393
  126OSM   C18F13543   0.129   5.407   8.708 -0.4315  1.1203  0.5876
  126OSM   H18F13544   0.180   5.362   8.795 -3.6526  2.4868  3.3017
  126OSM   H18G13545   0.019   5.413   8.721 -0.6415  0.8751 -0.9721
  126OSM   H18H13546   0.162   5.512   8.695  1.6008  0.3116 -1.0859
  127OSM      N13547   1.907   3.451   5.916  0.4043 -0.8317 -0.5548
  127OSM    C1513548   1.770   3.491   5.862 -0.0218 -0.3556 -0.0383
  127OSM   H15A13549   1.693   3.472   5.936  0.3029 -0.3134  0.3128
  127OSM   H15B13550   1.737   3.439   5.774 -1.6928 -0.2786  0.5206
  127OSM   H15C13551   1.759   3.597   5.843  2.4176 -0.1942 -0.7215
  127OSM    C1413552   1.922   3.302   5.916  0.8346 -0.4053  0.2089
  127OSM   H14A13553   1.855   3.256   5.986  1.8659 -1.5505  0.4615
  127OSM   H14B13554   2.015   3.267   5.959 -0.1679 -2.5390  0.6802
  127OSM   H14C13555   1.898   3.260   5.820 -2.1342  2.0373 -0.1980
  127OSM    C1313556   2.009   3.503   5.822 -0.5183  0.1961 -0.3221
  127OSM   H13A13557   1.978   3.486   5.720 -0.6322  0.6984 -0.3714
  127OSM   H13B13558   2.103   3.451   5.835 -1.3582 -1.0602  1.0584
  127OSM   H13C13559   2.022   3.607   5.848 -0.3941  0.2481 -0.5941
  127OSM    C1213560   1.935   3.517   6.047 -0.2072  0.1107  0.2477
  127OSM   H12A13561   2.033   3.491   6.084 -1.3749  1.2524  4.4248
  127OSM   H12B13562   1.874   3.475   6.126 -1.6784  0.2924 -0.7727
  127OSM    C1113563   1.929   3.671   6.055 -0.3692 -0.9597 -0.2452
  127OSM   H11A13564   1.905   3.714   6.155  1.6047 -1.7923  0.6002
  127OSM   H11B13565   1.839   3.709   6.002  0.2081 -0.1472 -0.6613
  127OSM      P13566   2.179   3.739   6.083 -0.0054  0.2813  0.0398
  127OSM    O1313567   2.257   3.620   6.050  0.7509 -0.0471 -0.1428
  127OSM    O1413568   2.253   3.863   6.051  0.2667  0.1553  0.6161
  127OSM    O1113569   2.137   3.738   6.229 -0.2075  0.1789  0.1752
  127OSM    O1213570   2.040   3.742   6.006  0.3394 -0.1269 -0.1248
  127OSM    C1S13571   2.137   3.852   6.310  0.4841  0.0180  0.2876
  127OSM    H1S13572   2.063   3.928   6.278  0.0678  0.0583  1.3209
  127OSM    H1T13573   2.239   3.894   6.328  0.8328 -0.8341  0.3132
  127OSM     NF13574   2.052   3.922   6.535 -0.6144 -0.2431 -0.1895
  127OSM    HNF13575   2.124   3.959   6.595  0.2162  0.5806 -1.6651
  127OSM    C2S13576   2.096   3.813   6.448  0.3771 -0.0765 -0.6820
  127OSM    H2S13577   2.006   3.748   6.447 -0.2092  0.6874  0.8630
  127OSM    C3S13578   2.205   3.719   6.518 -0.1651 -0.4742  0.1006
  127OSM    H3S13579   2.304   3.769   6.522 -1.4247  2.2515 -1.4774
  127OSM     O313580   2.240   3.597   6.453 -0.6525 -0.2441 -0.0054
  127OSM    HO313581   2.196   3.598   6.367 -0.0400 -1.6637 -0.3606
  127OSM    C4S13582   2.158   3.675   6.651  0.2473 -0.2687  0.9114
  127OSM    H4S13583   2.061   3.624   6.650 -2.5711  4.7257  1.3639
  127OSM    C5S13584   2.213   3.701   6.767 -0.9039  0.0411  0.2393
  127OSM    H5S13585   2.311   3.750   6.770 -1.0804  0.3735  0.5174
  127OSM    C6S13586   2.164   3.650   6.897  0.8011 -0.4017 -0.3088
  127OSM    H6S13587   2.163   3.729   6.975  0.4885 -1.5244  0.8388
  127OSM    H6T13588   2.222   3.562   6.932  0.7361 -0.8274 -1.2364
  127OSM    C7S13589   2.017   3.600   6.879  0.0953  0.0024 -0.3683
  127OSM    H7S13590   2.012   3.517   6.806  0.1824 -0.7176  0.4383
  127OSM    H7T13591   1.949   3.681   6.844 -1.8144 -1.2565  0.3169
  127OSM    C8S13592   1.966   3.546   7.012 -0.0320  0.7931 -0.0002
  127OSM    H8S13593   1.975   3.629   7.085  0.4672 -1.1170  2.1565
  127OSM    H8T13594   2.038   3.465   7.037 -0.1369 -0.3460 -3.1398
  127OSM    C9S13595   1.827   3.479   7.014 -0.0677 -0.0194  0.0871
  127OSM    H9S13596   1.845   3.401   6.937 -0.0045  0.8862 -0.8333
  127OSM    H9T13597   1.760   3.561   6.979  1.0256  0.7912 -0.1195
  127OSM   C10S13598   1.790   3.411   7.145 -0.2213  0.6628  0.3170
  127OSM   H10S13599   1.863   3.335   7.180 -0.7026 -0.2490 -0.6240
  127OSM   H10T13600   1.686   3.373   7.138 -0.3320  0.7626  1.3568
  127OSM   C11S13601   1.779   3.513   7.260  0.0748  0.0260  0.1295
  127OSM   H11S13602   1.696   3.583   7.239 -1.0119 -1.2703  0.0099
  127OSM   H11T13603   1.876   3.566   7.267  0.3703 -0.5906  0.8288
  127OSM   C12S13604   1.755   3.451   7.392  0.1386 -0.0507 -0.0118
  127OSM   H12S13605   1.839   3.380   7.414  0.1869 -0.2110 -0.7120
  127OSM   H12T13606   1.661   3.393   7.403 -0.1477 -0.1085 -2.5531
  127OSM   C13S13607   1.757   3.541   7.520 -0.2274  0.3362  0.0855
  127OSM   H13S13608   1.685   3.623   7.497  1.2200  1.2206 -1.3456
  127OSM   H13T13609   1.859   3.585   7.525  0.0578 -0.2851 -0.1704
  127OSM   C14S13610   1.740   3.465   7.646 -0.0528 -1.0789  0.2079
  127OSM   H14S13611   1.806   3.379   7.670  0.3640 -0.1917  2.3841
  127OSM   H14T13612   1.636   3.427   7.647 -0.6484  0.4997  0.6070
  127OSM   C15S13613   1.750   3.573   7.768 -0.0856  0.2109  1.0905
  127OSM   H15S13614   1.681   3.655   7.739 -2.8630 -3.0680 -2.1798
  127OSM   H15T13615   1.855   3.608   7.759 -0.3027  0.2258 -2.1440
  127OSM   C16S13616   1.733   3.516   7.901 -0.4820 -0.6387  0.7620
  127OSM   H16S13617   1.776   3.587   7.976 -0.2985 -3.4105  3.3964
  127OSM   H16T13618   1.786   3.419   7.909 -0.4739 -0.9732 -2.8078
  127OSM   C17S13619   1.583   3.492   7.937 -0.3216 -0.0447  0.1356
  127OSM   H17S13620   1.541   3.443   7.846  0.0451 -1.5259  0.7512
  127OSM   H17T13621   1.530   3.590   7.938  1.5678  1.0012 -0.6330
  127OSM   C18S13622   1.556   3.403   8.068  0.1961  0.1269  0.3240
  127OSM   H18S13623   1.602   3.302   8.070 -0.8242 -0.3481  0.0390
  127OSM   H18T13624   1.447   3.395   8.087 -0.4696  2.2319 -2.2872
  127OSM   H18U13625   1.595   3.455   8.158  0.1326  0.3086  0.2460
  127OSM    C1F13626   1.930   3.975   6.517 -0.6300 -0.0243  0.5035
  127OSM     OF13627   1.853   3.923   6.435  0.8291 -0.2613 -0.0329
  127OSM    C2F13628   1.884   4.097   6.604 -0.6729  0.3452 -0.5678
  127OSM    H2F13629   1.804   4.153   6.551 -1.6655  0.1800  0.7341
  127OSM    H2G13630   1.965   4.172   6.619 -0.2403 -0.2438  0.0772
  127OSM    C3F13631   1.822   4.056   6.742  0.3029  0.5260 -0.0708
  127OSM    H3F13632   1.740   3.988   6.713  0.3502 -0.4638  2.0568
  127OSM    H3G13633   1.779   4.147   6.790  0.4072  0.9752 -0.8068
  127OSM    C4F13634   1.923   4.011   6.840  0.0416  0.4958  0.2751
  127OSM    H4F13635   2.011   4.079   6.843  2.0456 -1.8393 -2.2735
  127OSM    H4G13636   1.958   3.909   6.810  1.0645  0.3396  1.9284
  127OSM    C5F13637   1.857   4.009   6.981  0.2177  0.6347  0.4641
  127OSM    H5F13638   1.780   3.932   6.965 -1.3419  2.3459 -0.4448
  127OSM    H5G13639   1.796   4.102   6.991  0.7750  1.1491 -0.8803
  127OSM    C6F13640   1.964   3.974   7.087  0.0907 -0.6540  0.0067
  127OSM    H6F13641   2.023   4.064   7.111  0.7941 -0.7373 -1.3444
  127OSM    H6G13642   2.025   3.890   7.047  2.1230 -0.4925  2.6675
  127OSM    C7F13643   1.889   3.936   7.215 -0.2045 -1.0161  0.1634
  127OSM    H7F13644   1.831   3.843   7.194 -1.4861  0.1553 -1.5598
  127OSM    H7G13645   1.811   4.013   7.234  0.2856 -0.2490 -0.9358
  127OSM    C8F13646   1.992   3.924   7.331  0.0453  0.6334 -0.2942
  127OSM    H8F13647   1.942   3.930   7.430 -1.9212  1.1846 -1.3167
  127OSM    H8G13648   2.066   4.007   7.333  0.1289  0.5419  0.8309
  127OSM    C9F13649   2.080   3.807   7.326 -0.6675 -0.4420 -0.3224
  127OSM    H9F13650   2.075   3.761   7.226  1.8319 -0.9254 -0.2621
  127OSM   C10F13651   2.173   3.768   7.412 -0.4458 -0.7750 -0.4971
  127OSM   H10F13652   2.229   3.678   7.383 -0.9437 -2.0755  2.3928
  127OSM   C11F13653   2.209   3.844   7.538 -0.6014 -0.1855  0.4845
  127OSM   H11F13654   2.156   3.941   7.532  1.2267  0.8029 -0.0081
  127OSM   H11G13655   2.317   3.866   7.550 -1.1010  1.9948  1.0852
  127OSM   C12F13656   2.152   3.787   7.668 -0.1315  0.2052  0.6387
  127OSM   H12F13657   2.201   3.688   7.683 -1.8518 -1.1159 -2.0478
  127OSM   H12G13658   2.042   3.777   7.668 -0.1289 -0.6496 -3.1145
  127OSM   C13F13659   2.194   3.885   7.786 -0.6281  0.5363 -0.4305
  127OSM   H13F13660   2.138   3.980   7.775 -1.0470  0.2399 -0.8812
  127OSM   H13G13661   2.304   3.906   7.786 -0.2413 -1.3220  1.2605
  127OSM   C14F13662   2.154   3.837   7.922 -0.1047  0.2053 -0.1412
  127OSM   H14F13663   2.177   3.731   7.946 -2.8378 -0.4436 -0.1492
  127OSM   H14G13664   2.044   3.850   7.933 -0.2794 -1.7083  0.5618
  127OSM   C15F13665   2.222   3.919   8.032  0.0434  0.0128 -0.5995
  127OSM   H15F13666   2.173   4.018   8.047 -2.7163 -1.5007  0.8908
  127OSM   H15G13667   2.326   3.934   7.995 -0.2215  0.3890 -1.2004
  127OSM   C16F13668   2.214   3.847   8.168 -0.0054 -0.6502 -0.2743
  127OSM   H16F13669   2.250   3.744   8.150  0.6848 -0.7022  1.2860
  127OSM   H16G13670   2.106   3.852   8.197  0.2584  0.2733  0.5832
  127OSM   C17F13671   2.284   3.917   8.289  0.0540 -0.0340 -0.0035
  127OSM   H17F13672   2.265   4.027   8.292 -0.9901 -0.2036 -0.2572
  127OSM   H17G13673   2.393   3.895   8.281 -0.2045 -1.2345 -0.1816
  127OSM   C18F13674   2.233   3.862   8.424  0.4061 -0.4267 -0.1053
  127OSM   H18F13675   2.289   3.901   8.512  1.7400 -0.3177 -0.9909
  127OSM   H18G13676   2.242   3.752   8.437 -1.1414 -0.3462  1.9406
  127OSM   H18H13677   2.125   3.885   8.431  0.3298  0.3425 -3.1538
  128OSM      N13678   4.388   6.414   6.418 -0.4305  0.1207  0.3502
  128OSM    C1513679   4.497   6.407   6.509  1.0016  0.4454  0.6396
  128OSM   H15A13680   4.538   6.507   6.513 -1.1307  1.5139 -2.3955
  128OSM   H15B13681   4.571   6.332   6.488  2.2829  1.9950 -0.5061
  128OSM   H15C13682   4.457   6.371   6.603  2.0072  1.3953  1.4440
  128OSM    C1413683   4.323   6.281   6.397  0.3440  0.5266  0.9045
  128OSM   H14A13684   4.393   6.229   6.334  0.8220  0.1482  1.7417
  128OSM   H14B13685   4.227   6.284   6.348  1.0188  0.2184 -0.4484
  128OSM   H14C13686   4.313   6.226   6.489  0.3397  2.8454  2.3489
  128OSM    C1313687   4.293   6.519   6.474 -0.4219 -0.8803  0.3325
  128OSM   H13A13688   4.237   6.484   6.558 -1.0847 -2.2128 -0.6465
  128OSM   H13B13689   4.214   6.535   6.402 -1.5419 -1.6573  1.3811
  128OSM   H13C13690   4.345   6.612   6.495  0.9436 -1.0268 -2.0962
  128OSM    C1213691   4.434   6.469   6.281 -0.0416 -0.4717 -0.3890
  128OSM   H12A13692   4.346   6.490   6.223 -1.0159  0.0902  1.2717
  128OSM   H12B13693   4.483   6.388   6.228  0.9922 -0.4854  0.5519
  128OSM    C1113694   4.507   6.602   6.277 -0.5162 -1.0416  0.4605
  128OSM   H11A13695   4.547   6.617   6.175 -0.9259 -0.6623  0.3560
  128OSM   H11B13696   4.588   6.603   6.354 -0.5493 -1.9508  0.5113
  128OSM      P13697   4.310   6.759   6.192 -0.5393 -0.3544  0.2946
  128OSM    O1313698   4.383   6.839   6.086 -0.3775 -0.2309 -0.1255
  128OSM    O1413699   4.227   6.640   6.151 -0.2083 -0.4088  0.0478
  128OSM    O1113700   4.216   6.855   6.269 -1.0792  0.1762  0.0996
  128OSM    O1213701   4.422   6.715   6.306  0.3698 -0.1186  0.3902
  128OSM    C1S13702   4.184   6.854   6.407  0.1673  0.1834 -0.7458
  128OSM    H1S13703   4.198   6.754   6.454  2.2400  1.0025  0.4152
  128OSM    H1T13704   4.078   6.889   6.413  0.7871  2.1162 -0.8651
  128OSM     NF13705   4.237   6.934   6.626 -0.1930  0.8422  0.7622
  128OSM    HNF13706   4.172   7.000   6.662 -0.7824  0.9715 -0.5020
  128OSM    C2S13707   4.271   6.947   6.485 -0.0422  0.7863 -0.1212
  128OSM    H2S13708   4.377   6.916   6.476  0.2720  1.4536  1.1023
  128OSM    C3S13709   4.264   7.091   6.429 -0.9602 -0.6304  0.0877
  128OSM    H3S13710   4.156   7.114   6.426 -0.9053 -0.3147  0.5282
  128OSM     O313711   4.285   7.108   6.287 -0.2360 -0.1961  0.2460
  128OSM    HO313712   4.294   7.017   6.258 -0.2406 -0.9022  2.4161
  128OSM    C4S13713   4.336   7.192   6.519 -0.5390  0.7286 -0.0846
  128OSM    H4S13714   4.271   7.236   6.596 -1.4533  0.6062 -0.7758
  128OSM    C5S13715   4.469   7.235   6.504  0.0718  0.8540  0.0126
  128OSM    H5S13716   4.530   7.197   6.421  1.0321  0.3562  0.9431
  128OSM    C6S13717   4.529   7.336   6.591  0.2948  0.8208 -0.1270
  128OSM    H6S13718   4.548   7.422   6.523  0.2873  0.2050 -0.9129
  128OSM    H6T13719   4.623   7.294   6.632  0.5714  2.8491  1.3751
  128OSM    C7S13720   4.440   7.380   6.708 -0.2192  0.2348  0.5982
  128OSM    H7S13721   4.410   7.294   6.771 -1.2232 -1.4580 -2.0622
  128OSM    H7T13722   4.345   7.428   6.675  0.2257  0.7936  0.1039
  128OSM    C8S13723   4.504   7.485   6.795 -0.0730  0.0023 -0.4600
  128OSM    H8S13724   4.522   7.574   6.732 -1.0684  0.9275  0.5530
  128OSM    H8T13725   4.603   7.454   6.836 -0.6254  0.3815  1.1947
  128OSM    C9S13726   4.419   7.534   6.914  0.4877 -0.3531  0.7025
  128OSM    H9S13727   4.388   7.440   6.964 -3.6131  1.1132  1.1559
  128OSM    H9T13728   4.329   7.588   6.877 -0.6177 -1.8069  1.2372
  128OSM   C10S13729   4.494   7.621   7.016  0.1247 -0.8682  0.4589
  128OSM   H10S13730   4.491   7.726   6.982 -0.5253 -0.1674  2.6195
  128OSM   H10T13731   4.601   7.589   7.025 -0.0961 -2.0477 -0.9258
  128OSM   C11S13732   4.447   7.617   7.160 -0.0683  0.2469 -0.1851
  128OSM   H11S13733   4.493   7.530   7.210 -1.1843 -0.1014  0.2316
  128OSM   H11T13734   4.337   7.604   7.168  0.1723 -2.3136 -0.6072
  128OSM   C12S13735   4.506   7.738   7.231  0.0195  0.0653  0.7405
  128OSM   H12S13736   4.454   7.824   7.182  2.0054  1.2152  0.5545
  128OSM   H12T13737   4.615   7.760   7.224 -0.2285  1.4769  1.0864
  128OSM   C13S13738   4.486   7.744   7.385 -0.2717 -0.3438 -0.0035
  128OSM   H13S13739   4.556   7.825   7.413  0.3335 -0.8569 -0.0103
  128OSM   H13T13740   4.503   7.653   7.446  1.1428 -0.1345 -0.0573
  128OSM   C14S13741   4.350   7.812   7.428 -0.0548  0.0672  0.2385
  128OSM   H14S13742   4.263   7.760   7.381 -1.4875  1.6233  1.1328
  128OSM   H14T13743   4.345   7.916   7.390  0.9001  0.0713  0.0974
  128OSM   C15S13744   4.327   7.820   7.580  0.4553  0.0865 -0.8238
  128OSM   H15S13745   4.339   7.714   7.612 -0.5101  0.2255  0.0176
  128OSM   H15T13746   4.223   7.846   7.610  0.5395  0.0218 -0.4766
  128OSM   C16S13747   4.427   7.909   7.657  0.1814  0.6388  0.3237
  128OSM   H16S13748   4.437   8.003   7.599  2.2777 -0.1758 -0.6828
  128OSM   H16T13749   4.528   7.862   7.658  0.0778  0.1924 -2.9264
  128OSM   C17S13750   4.377   7.934   7.794  0.5235  0.7313  0.3330
  128OSM   H17S13751   4.382   7.844   7.859  0.9192 -0.1417 -0.8673
  128OSM   H17T13752   4.270   7.960   7.785  0.3085 -0.3648 -0.4528
  128OSM   C18S13753   4.454   8.060   7.849 -0.0294 -0.1985  0.4225
  128OSM   H18S13754   4.563   8.038   7.861  0.7837  1.1499 -3.5746
  128OSM   H18T13755   4.419   8.089   7.950  2.1187 -0.3987  1.2600
  128OSM   H18U13756   4.448   8.154   7.791 -0.7540  0.8307  2.1350
  128OSM    C1F13757   4.267   6.821   6.693 -0.4533 -0.7149  0.3383
  128OSM     OF13758   4.356   6.750   6.648 -0.0716 -0.1213 -0.3948
  128OSM    C2F13759   4.195   6.788   6.815 -0.3354  0.2998 -0.0262
  128OSM    H2F13760   4.086   6.794   6.793 -0.6692  0.6720  1.6705
  128OSM    H2G13761   4.211   6.868   6.890 -1.4356 -1.5364  2.2061
  128OSM    C3F13762   4.245   6.653   6.882 -0.6020 -0.9323  0.9274
  128OSM    H3F13763   4.348   6.619   6.863 -0.8318 -0.1876 -1.9032
  128OSM    H3G13764   4.194   6.567   6.834  0.2246 -0.7644 -0.2445
  128OSM    C4F13765   4.221   6.642   7.039 -0.6895 -0.0095 -0.8462
  128OSM    H4F13766   4.234   6.535   7.068 -2.9124 -0.0215  0.1365
  128OSM    H4G13767   4.114   6.666   7.052 -0.4785  1.4579 -1.7223
  128OSM    C5F13768   4.279   6.749   7.135  0.7628  0.2413  1.3517
  128OSM    H5F13769   4.259   6.848   7.090 -2.0738 -0.7543  0.3643
  128OSM    H5G13770   4.389   6.734   7.130  0.5223 -1.0959 -0.6063
  128OSM    C6F13771   4.218   6.747   7.280  0.2541  0.4489 -0.9847
  128OSM    H6F13772   4.249   6.654   7.333 -1.5382 -0.1442 -0.9488
  128OSM    H6G13773   4.107   6.759   7.275  0.2418  0.0768 -1.5977
  128OSM    C7F13774   4.275   6.858   7.368 -0.3053  0.4658 -0.4031
  128OSM    H7F13775   4.265   6.956   7.315  0.6141  0.4004 -0.7036
  128OSM    H7G13776   4.382   6.831   7.375 -0.2825  0.7511  0.3382
  128OSM    C8F13777   4.204   6.864   7.509 -0.0145  0.2837  0.5386
  128OSM    H8F13778   4.193   6.764   7.557  0.0257  1.1809  2.4610
  128OSM    H8G13779   4.101   6.900   7.489  0.3791  0.7918 -0.6032
  128OSM    C9F13780   4.262   6.966   7.615 -0.1564  0.1952  0.2365
  128OSM    H9F13781   4.276   7.065   7.570 -1.4565  0.6842  0.8834
  128OSM   C10F13782   4.294   6.941   7.744 -0.3344 -0.1496  0.2269
  128OSM   H10F13783   4.333   7.027   7.800 -1.1612  0.3336  0.0759
  128OSM   C11F13784   4.285   6.813   7.821 -0.4522  0.2289 -0.5226
  128OSM   H11F13785   4.344   6.737   7.766 -1.3628 -1.8276  1.2652
  128OSM   H11G13786   4.183   6.772   7.808  0.2248 -1.4772 -0.5566
  128OSM   C12F13787   4.310   6.814   7.969  0.2014  0.1072 -0.2148
  128OSM   H12F13788   4.293   6.709   8.001 -0.5413  1.0964  2.7424
  128OSM   H12G13789   4.236   6.874   8.025  0.7148  1.0943 -0.5867
  128OSM   C13F13790   4.458   6.849   8.008  0.0296  0.0342  0.6823
  128OSM   H13F13791   4.483   6.952   7.974  2.4313 -1.3876 -2.0809
  128OSM   H13G13792   4.530   6.781   7.958  0.2519 -0.3717  1.5361
  128OSM   C14F13793   4.471   6.852   8.160 -1.2388  0.2183  0.4202
  128OSM   H14F13794   4.469   6.747   8.195 -0.6610 -0.4349 -1.4135
  128OSM   H14G13795   4.388   6.905   8.211 -1.6591  0.0872 -0.1292
  128OSM   C15F13796   4.596   6.923   8.207 -0.8746  0.5737 -0.4993
  128OSM   H15F13797   4.584   7.033   8.208 -1.9004  0.4559  1.1240
  128OSM   H15G13798   4.680   6.897   8.139 -1.0356 -0.1967 -0.4072
  128OSM   C16F13799   4.631   6.880   8.353 -0.1151  0.0399  0.1643
  128OSM   H16F13800   4.653   6.771   8.362 -0.0547  0.0194 -0.2187
  128OSM   H16G13801   4.549   6.903   8.424  1.4012  2.4262  1.1822
  128OSM   C17F13802   4.754   6.955   8.401 -0.9041  0.6298 -0.4271
  128OSM   H17F13803   4.755   6.953   8.513 -1.1676  1.3752 -0.4079
  128OSM   H17G13804   4.747   7.060   8.366  3.0327  0.8370 -0.8124
  128OSM   C18F13805   4.886   6.894   8.351  0.2219  0.3397 -1.1707
  128OSM   H18F13806   4.891   6.783   8.359 -3.2179  0.3513  3.1372
  128OSM   H18G13807   4.971   6.947   8.398  1.4657 -2.1024 -0.5806
  128OSM   H18H13808   4.884   6.918   8.243  2.1586  0.0862 -1.2778
  129OSM      N13809   1.152   4.161   6.426  0.2586 -0.3148  0.1387
  129OSM    C1513810   1.285   4.124   6.364  0.3062  0.5734 -0.2973
  129OSM   H15A13811   1.366   4.169   6.419  0.2828 -0.9186  0.9903
  129OSM   H15B13812   1.301   4.160   6.264  0.5820  1.6852  0.1337
  129OSM   H15C13813   1.299   4.017   6.374 -2.3327  0.3608  1.7415
  129OSM    C1413814   1.152   4.111   6.568  0.1425  0.4119  0.0932
  129OSM   H14A13815   1.057   4.129   6.617 -0.0091  2.8027 -0.9907
  129OSM   H14B13816   1.218   4.184   6.613 -0.7676  0.6329  1.0963
  129OSM   H14C13817   1.187   4.011   6.587  1.4702  0.0931 -3.5069
  129OSM    C1313818   1.144   4.310   6.432 -0.2251  1.1266 -0.5844
  129OSM   H13A13819   1.207   4.358   6.505  1.8576 -0.2862 -1.4185
  129OSM   H13B13820   1.044   4.352   6.437 -1.4915 -1.8674  0.8670
  129OSM   H13C13821   1.182   4.338   6.335  0.4514  1.8623 -0.1102
  129OSM    C1213822   1.036   4.098   6.348  0.1146  0.8398 -0.1078
  129OSM   H12A13823   1.017   4.126   6.246 -0.5751 -0.3049 -0.3082
  129OSM   H12B13824   0.944   4.118   6.400  0.4976 -2.3337  1.9791
  129OSM    C1113825   1.035   3.944   6.347  0.1346  0.0605  0.0790
  129OSM   H11A13826   0.929   3.913   6.338 -0.0992  0.8500  0.0033
  129OSM   H11B13827   1.083   3.909   6.440  1.9904 -1.9210 -1.5637
  129OSM      P13828   1.073   3.736   6.191 -0.0643 -0.0363 -0.1425
  129OSM    O1313829   0.932   3.719   6.152  0.0646 -0.4498  0.2062
  129OSM    O1413830   1.170   3.688   6.086  0.0205  0.3157  0.6165
  129OSM    O1113831   1.092   3.657   6.332 -0.2837  0.2496  0.2318
  129OSM    O1213832   1.104   3.890   6.236 -0.3524 -0.2365  0.0562
  129OSM    C1S13833   1.216   3.678   6.405 -0.0833  0.0636  0.6556
  129OSM    H1S13834   1.219   3.784   6.439 -0.2735  0.2322  0.1579
  129OSM    H1T13835   1.303   3.653   6.341 -0.9506 -1.5442  0.0718
  129OSM     NF13836   1.357   3.641   6.615  0.2125 -0.1631 -0.2616
  129OSM    HNF13837   1.432   3.575   6.606  1.8871  1.5430  0.6886
  129OSM    C2S13838   1.230   3.600   6.541 -0.0525  0.0568 -0.0012
  129OSM    H2S13839   1.150   3.625   6.614 -0.2921 -1.9338  0.4401
  129OSM    C3S13840   1.215   3.451   6.523  0.1134  0.4270 -0.0521
  129OSM    H3S13841   1.287   3.417   6.446  0.6519  1.0120  0.1833
  129OSM     O313842   1.087   3.418   6.466 -0.0182  0.3079 -0.0229
  129OSM    HO313843   1.054   3.501   6.431  3.1239  1.2252 -0.9891
  129OSM    C4S13844   1.236   3.369   6.650 -0.1386  0.6180 -0.4594
  129OSM    H4S13845   1.326   3.306   6.657  1.2133  2.5849  0.0861
  129OSM    C5S13846   1.161   3.346   6.757  0.0433 -0.1422 -0.0806
  129OSM    H5S13847   1.066   3.396   6.779  0.6128  0.2313  1.6877
  129OSM    C6S13848   1.190   3.250   6.873 -0.4562  0.4784 -0.1702
  129OSM    H6S13849   1.289   3.201   6.858 -0.4545  0.7755 -1.1210
  129OSM    H6T13850   1.124   3.160   6.877 -0.1563  0.2820  0.4684
  129OSM    C7S13851   1.169   3.321   7.012  0.2118  0.7147  0.7637
  129OSM    H7S13852   1.061   3.331   7.033  0.0515 -1.2407  0.9617
  129OSM    H7T13853   1.211   3.424   7.004  2.8644 -0.4289 -1.1598
  129OSM    C8S13854   1.258   3.258   7.115 -0.2946  0.6764  0.1684
  129OSM    H8S13855   1.360   3.300   7.099  0.0973 -0.2916  0.0990
  129OSM    H8T13856   1.253   3.150   7.091  2.4328  0.1731  1.6931
  129OSM    C9S13857   1.218   3.285   7.262  0.2410 -0.5738  0.8997
  129OSM    H9S13858   1.107   3.276   7.267  0.1643  1.1650  3.3689
  129OSM    H9T13859   1.213   3.395   7.279 -2.6772 -0.5269  0.0884
  129OSM   C10S13860   1.303   3.222   7.367 -0.9776  0.7256  0.3026
  129OSM   H10S13861   1.404   3.266   7.381  0.0490 -1.9335  1.4884
  129OSM   H10T13862   1.321   3.116   7.339 -0.1183  0.5285  1.5730
  129OSM   C11S13863   1.234   3.220   7.506  1.3045  0.0652  0.2033
  129OSM   H11S13864   1.146   3.154   7.496  1.4541  0.2127 -2.6406
  129OSM   H11T13865   1.193   3.321   7.528  0.3708 -0.2750  0.0445
  129OSM   C12S13866   1.314   3.172   7.626 -0.3539  0.0435 -0.4212
  129OSM   H12S13867   1.404   3.237   7.636  0.8489 -1.3387 -1.8940
  129OSM   H12T13868   1.337   3.063   7.627  1.1821  0.3503 -0.1513
  129OSM   C13S13869   1.233   3.186   7.757  0.1337 -0.3705  0.4322
  129OSM   H13S13870   1.145   3.118   7.749 -1.8651  2.4917 -3.1631
  129OSM   H13T13871   1.198   3.290   7.774 -2.3321 -1.1064  0.1402
  129OSM   C14S13872   1.308   3.151   7.886 -1.1095 -0.0528 -0.4291
  129OSM   H14S13873   1.399   3.215   7.893 -0.8756 -0.3674 -0.5670
  129OSM   H14T13874   1.352   3.050   7.869  2.1859  0.7839  2.4501
  129OSM   C15S13875   1.232   3.150   8.025 -0.2702  0.5702  0.1118
  129OSM   H15S13876   1.147   3.081   8.011  1.0594 -0.9806 -0.5026
  129OSM   H15T13877   1.192   3.247   8.061  1.7538  2.3045 -2.1464
  129OSM   C16S13878   1.326   3.087   8.128  0.2947 -0.1259  0.6287
  129OSM   H16S13879   1.419   3.146   8.141  1.0376 -1.1207 -0.1290
  129OSM   H16T13880   1.367   2.994   8.083 -0.4285  0.5695 -1.5375
  129OSM   C17S13881   1.265   3.046   8.264  0.1874 -0.5806 -0.1776
  129OSM   H17S13882   1.186   2.970   8.247 -0.8333  0.6102 -0.8566
  129OSM   H17T13883   1.214   3.139   8.300  1.9929  0.8332 -1.1769
  129OSM   C18S13884   1.367   2.981   8.359  0.7643  0.0537 -0.0031
  129OSM   H18S13885   1.329   2.945   8.457 -0.1356 -0.2640 -0.4611
  129OSM   H18T13886   1.451   3.051   8.378  1.8553 -1.1111 -0.4867
  129OSM   H18U13887   1.410   2.895   8.304  0.0461 -1.5017  1.8233
  129OSM    C1F13888   1.377   3.764   6.662  0.0935  0.4410  0.0494
  129OSM     OF13889   1.281   3.845   6.664  0.2532 -0.2684  0.0509
  129OSM    C2F13890   1.519   3.794   6.700 -0.6466  0.2216  0.3950
  129OSM    H2F13891   1.533   3.905   6.700  0.8393  0.0427  0.5608
  129OSM    H2G13892   1.596   3.749   6.635 -0.7172  2.2026 -1.1125
  129OSM    C3F13893   1.550   3.754   6.850 -0.4862 -0.6855 -0.3653
  129OSM    H3F13894   1.653   3.790   6.875 -0.1516 -1.4450 -0.6268
  129OSM    H3G13895   1.545   3.643   6.853 -0.5648 -0.7511 -2.0791
  129OSM    C4F13896   1.457   3.821   6.958 -0.0652  0.1732 -0.9208
  129OSM    H4F13897   1.354   3.785   6.937 -0.5129  0.6274  0.4738
  129OSM    H4G13898   1.459   3.932   6.956 -1.8792  0.2794  1.0199
  129OSM    C5F13899   1.507   3.781   7.102 -0.0331  0.7267  0.1732
  129OSM    H5F13900   1.606   3.828   7.117 -0.2051  2.4753 -3.4299
  129OSM    H5G13901   1.506   3.671   7.115  2.2211  0.7168  0.3384
  129OSM    C6F13902   1.416   3.819   7.218  0.1094  0.1549 -0.1334
  129OSM    H6F13903   1.319   3.765   7.208  0.4417 -1.2324  3.4865
  129OSM    H6G13904   1.385   3.926   7.217 -0.5414 -0.0372 -1.2483
  129OSM    C7F13905   1.465   3.794   7.365 -0.9589  0.0783  0.6670
  129OSM    H7F13906   1.566   3.837   7.384 -1.7280  1.4763  1.6844
  129OSM    H7G13907   1.480   3.684   7.365 -1.9409 -0.0804 -2.2108
  129OSM    C8F13908   1.356   3.831   7.465  0.0298  0.2770 -0.6026
  129OSM    H8F13909   1.374   3.772   7.557 -1.6852  0.6351 -0.0218
  129OSM    H8G13910   1.258   3.791   7.432  0.3525  0.2747 -1.5636
  129OSM    C9F13911   1.346   3.979   7.487  0.7826 -0.7361 -0.0497
  129OSM    H9F13912   1.269   4.034   7.431  0.3561 -1.2357  0.0393
  129OSM   C10F13913   1.420   4.052   7.572  0.3646  0.8465 -0.0583
  129OSM   H10F13914   1.393   4.156   7.594  1.3637  0.8848  1.1019
  129OSM   C11F13915   1.533   3.990   7.658 -0.6768  0.3282 -0.4558
  129OSM   H11F13916   1.603   4.076   7.671 -1.7222  1.1113  0.0783
  129OSM   H11G13917   1.586   3.910   7.602 -0.4127 -1.1276  1.7807
  129OSM   C12F13918   1.486   3.933   7.794 -0.2885  0.1683 -0.4356
  129OSM   H12F13919   1.476   3.823   7.781  2.2303 -0.1833  0.3722
  129OSM   H12G13920   1.393   3.982   7.831 -0.7349 -0.7576 -0.3128
  129OSM   C13F13921   1.599   3.950   7.903  0.0746 -1.2633  0.1662
  129OSM   H13F13922   1.644   4.051   7.908  1.3547 -1.7767 -1.0435
  129OSM   H13G13923   1.680   3.879   7.875  1.4087 -0.3478  1.5878
  129OSM   C14F13924   1.554   3.905   8.047  0.3421  0.1133  0.7988
  129OSM   H14F13925   1.531   3.797   8.047  0.0555  0.1537 -1.2173
  129OSM   H14G13926   1.458   3.954   8.076 -0.3440 -0.1548 -0.9298
  129OSM   C15F13927   1.665   3.930   8.144 -0.9966  0.0616  0.3389
  129OSM   H15F13928   1.694   4.037   8.145 -0.0837 -0.1680 -0.6927
  129OSM   H15G13929   1.755   3.872   8.115  0.1278  2.3957 -0.9723
  129OSM   C16F13930   1.642   3.898   8.290  0.3796 -0.2791  0.1765
  129OSM   H16F13931   1.559   3.963   8.326  1.3919  1.3996 -0.4752
  129OSM   H16G13932   1.737   3.917   8.343  0.6250  1.5040 -0.8611
  129OSM   C17F13933   1.608   3.753   8.313  0.4356 -0.8622  0.0349
  129OSM   H17F13934   1.699   3.693   8.289  0.0658 -1.3026 -0.2788
  129OSM   H17G13935   1.527   3.725   8.242  0.2696  1.6235 -0.7882
  129OSM   C18F13936   1.554   3.725   8.454  0.4652  0.0715 -0.3408
  129OSM   H18F13937   1.508   3.625   8.448  0.1873  0.2066 -0.4411
  129OSM   H18G13938   1.475   3.799   8.476 -1.2936 -1.9860  0.3886
  129OSM   H18H13939   1.646   3.718   8.517 -0.8008 -4.9906  1.1237
  130OSM      N13940   4.452   5.438   6.243 -0.0380 -0.7200  0.4538
  130OSM    C1513941   4.559   5.343   6.195 -0.9840  1.0756  0.3539
  130OSM   H15A13942   4.650   5.394   6.166  1.0934 -2.1329  0.9598
  130OSM   H15B13943   4.521   5.291   6.108 -1.1229  1.9893 -0.1331
  130OSM   H15C13944   4.579   5.281   6.282 -1.2964  1.1671  0.4943
  130OSM    C1413945   4.394   5.500   6.121 -0.3264  0.2213 -0.1647
  130OSM   H14A13946   4.299   5.549   6.136 -1.1400 -1.1074 -0.8470
  130OSM   H14B13947   4.367   5.427   6.046 -0.4908 -1.2966  1.3427
  130OSM   H14C13948   4.461   5.572   6.076  0.4168 -1.0540 -1.1293
  130OSM    C1313949   4.352   5.345   6.312 -0.0067 -1.1052 -0.3097
  130OSM   H13A13950   4.316   5.269   6.245 -1.4519 -0.5087 -0.2163
  130OSM   H13B13951   4.284   5.408   6.368  0.7000 -1.0531  0.5029
  130OSM   H13C13952   4.401   5.270   6.372 -1.1966 -1.5780  0.0709
  130OSM    C1213953   4.503   5.540   6.344 -0.2142  0.2050  0.3364
  130OSM   H12A13954   4.552   5.488   6.425 -2.2144  0.5433  1.8271
  130OSM   H12B13955   4.420   5.597   6.385 -0.7052 -1.2399  1.4019
  130OSM    C1113956   4.603   5.641   6.282 -0.6235  0.2614  0.7819
  130OSM   H11A13957   4.671   5.583   6.215  0.3112  1.4964  0.6335
  130OSM   H11B13958   4.656   5.677   6.372 -1.3975 -1.1971  1.8451
  130OSM      P13959   4.470   5.869   6.289  0.1766  0.2116  0.2092
  130OSM    O1313960   4.506   5.985   6.206  0.0325 -0.1797  0.5825
  130OSM    O1413961   4.327   5.843   6.319 -0.2780  0.0027  0.2224
  130OSM    O1113962   4.552   5.888   6.426 -0.2901  0.2578 -0.0723
  130OSM    O1213963   4.531   5.742   6.218  0.1549 -0.4548 -0.1815
  130OSM    C1S13964   4.516   5.996   6.510  0.4754 -0.7934 -0.4256
  130OSM    H1S13965   4.406   6.014   6.512  0.4556 -1.0155  2.3660
  130OSM    H1T13966   4.572   6.081   6.467  0.7674 -0.9258 -0.3072
  130OSM     NF13967   4.523   6.103   6.731  0.3559 -0.0150  0.4783
  130OSM    HNF13968   4.605   6.155   6.757  0.4434  0.5290 -0.8891
  130OSM    C2S13969   4.554   5.976   6.659 -0.2072  0.7011  0.0102
  130OSM    H2S13970   4.484   5.903   6.704 -0.8924  0.4048 -1.5092
  130OSM    C3S13971   4.693   5.923   6.676 -0.2471 -0.1194 -0.2978
  130OSM    H3S13972   4.755   6.002   6.629  4.1163 -1.9960  2.0287
  130OSM     O313973   4.717   5.798   6.610  0.0633 -0.1801 -0.3420
  130OSM    HO313974   4.641   5.793   6.552  0.5496 -0.6501 -0.9442
  130OSM    C4S13975   4.736   5.904   6.818 -0.3798  0.3484 -0.5389
  130OSM    H4S13976   4.681   5.827   6.874  0.2564 -0.9642 -1.6880
  130OSM    C5S13977   4.838   5.972   6.875 -0.3498  0.1515  0.5865
  130OSM    H5S13978   4.900   6.043   6.819 -0.9553 -0.4664 -0.8787
  130OSM    C6S13979   4.889   5.965   7.018  0.3765  0.7537 -0.8052
  130OSM    H6S13980   4.900   6.070   7.052  0.3056  1.3184 -2.4666
  130OSM    H6T13981   4.992   5.922   7.010  0.3202  0.2953  0.8875
  130OSM    C7S13982   4.812   5.884   7.116  0.2492 -0.4943 -0.4601
  130OSM    H7S13983   4.809   5.779   7.081  0.0025 -0.2333 -1.2355
  130OSM    H7T13984   4.708   5.920   7.133  0.2586 -1.2599  1.4275
  130OSM    C8S13985   4.862   5.891   7.256  0.5951 -0.5855 -0.7235
  130OSM    H8S13986   4.859   5.994   7.296 -0.8093  0.3923 -3.2549
  130OSM    H8T13987   4.964   5.849   7.272  0.1666 -2.3426 -2.3457
  130OSM    C9S13988   4.773   5.811   7.358 -1.1465  0.0194 -0.2955
  130OSM    H9S13989   4.764   5.705   7.327  0.2623 -0.8184  2.0345
  130OSM    H9T13990   4.676   5.865   7.362 -0.9158  0.7524 -3.4077
  130OSM   C10S13991   4.832   5.807   7.500 -1.0772  0.2243  0.0226
  130OSM   H10S13992   4.942   5.825   7.502 -0.8759 -1.0132  2.3799
  130OSM   H10T13993   4.821   5.705   7.542  0.5110  0.1878  0.3771
  130OSM   C11S13994   4.774   5.898   7.609  0.0366 -0.3412 -0.2858
  130OSM   H11S13995   4.663   5.901   7.607  0.0854  3.2671 -0.8883
  130OSM   H11T13996   4.805   6.004   7.599 -2.5948  0.9205  3.7212
  130OSM   C12S13997   4.814   5.842   7.749  0.2770  0.1031  0.4951
  130OSM   H12S13998   4.917   5.873   7.775 -0.6682  3.5428  0.4025
  130OSM   H12T13999   4.805   5.731   7.751 -1.3258  0.2142  0.3601
  130OSM   C13S14000   4.716   5.894   7.867  0.1911 -0.1512  0.0976
  130OSM   H13S14001   4.608   5.879   7.843  0.2923  2.1137 -2.1116
  130OSM   H13T14002   4.730   6.003   7.886  3.0635 -0.5751  0.5392
  130OSM   C14S14003   4.743   5.842   8.000 -0.4831  0.0270  0.1744
  130OSM   H14S14004   4.852   5.835   8.020 -0.4844  0.9682  0.5597
  130OSM   H14T14005   4.710   5.737   7.997  1.8425 -0.7255 -0.3572
  130OSM   C15S14006   4.673   5.922   8.115 -0.3585 -0.9095  0.0923
  130OSM   H15S14007   4.563   5.910   8.113 -0.1509 -3.3710  0.9141
  130OSM   H15T14008   4.698   6.030   8.112  0.9731 -1.1656  1.1796
  130OSM   C16S14009   4.719   5.875   8.248  0.5121 -0.0562  0.6296
  130OSM   H16S14010   4.827   5.900   8.258  0.4822  0.7807 -1.1553
  130OSM   H16T14011   4.716   5.764   8.252 -0.6151 -0.1502 -1.8990
  130OSM   C17S14012   4.628   5.931   8.355  0.6454 -0.1409 -0.0759
  130OSM   H17S14013   4.527   5.887   8.346  0.5557 -0.0289  0.3609
  130OSM   H17T14014   4.628   6.042   8.347  0.3385 -0.2237 -1.2909
  130OSM   C18S14015   4.675   5.898   8.499 -0.4352 -0.0135 -0.2942
  130OSM   H18S14016   4.583   5.896   8.561 -1.3387 -0.4473 -1.6383
  130OSM   H18T14017   4.749   5.968   8.544 -0.6263  0.2310 -0.3588
  130OSM   H18U14018   4.714   5.794   8.506 -1.4409 -0.4539 -1.0074
  130OSM    C1F14019   4.398   6.137   6.759  0.5217  0.0316  0.3665
  130OSM     OF14020   4.307   6.068   6.719  0.4073 -0.4107  0.0519
  130OSM    C2F14021   4.378   6.261   6.833 -1.0465 -0.1972  0.2581
  130OSM    H2F14022   4.279   6.301   6.804 -0.6494  0.2904 -0.4381
  130OSM    H2G14023   4.459   6.333   6.808 -1.4231 -0.0894 -0.6728
  130OSM    C3F14024   4.369   6.254   6.997 -0.2207 -0.4502  0.5880
  130OSM    H3F14025   4.363   6.359   7.033  2.0596  0.0251 -0.2948
  130OSM    H3G14026   4.464   6.211   7.035  0.4241 -0.9424 -1.5027
  130OSM    C4F14027   4.254   6.175   7.051 -0.8671  0.1217 -0.0294
  130OSM    H4F14028   4.260   6.068   7.023 -1.1344  0.3177 -0.8287
  130OSM    H4G14029   4.153   6.207   7.018 -0.5084 -0.3301 -1.6064
  130OSM    C5F14030   4.260   6.174   7.206 -0.0763 -0.1818  0.2429
  130OSM    H5F14031   4.172   6.115   7.241  1.1150 -1.8770  0.4111
  130OSM    H5G14032   4.246   6.276   7.247 -0.2280  0.8215 -2.1796
  130OSM    C6F14033   4.384   6.104   7.260 -0.6040  0.4291 -0.1200
  130OSM    H6F14034   4.473   6.170   7.255 -0.7103  0.5399 -0.6000
  130OSM    H6G14035   4.404   6.024   7.185 -0.1885  0.7991 -0.4109
  130OSM    C7F14036   4.365   6.037   7.397 -0.6664  0.5090  0.2068
  130OSM    H7F14037   4.453   5.974   7.423 -0.6675 -0.4671 -2.0781
  130OSM    H7G14038   4.281   5.966   7.382 -0.1146  0.3006 -2.0339
  130OSM    C8F14039   4.336   6.128   7.522  0.4738  0.0580 -0.3310
  130OSM    H8F14040   4.238   6.110   7.571  0.7430 -1.3490 -0.2967
  130OSM    H8G14041   4.332   6.235   7.494  0.7068 -0.0764 -0.8857
  130OSM    C9F14042   4.435   6.112   7.633  0.2322  0.2793 -0.3371
  130OSM    H9F14043   4.532   6.157   7.607  0.6533  0.0360  0.7705
  130OSM   C10F14044   4.425   6.059   7.762  0.0534 -0.2706  0.2574
  130OSM   H10F14045   4.518   6.061   7.821  0.5032  5.1752 -0.3678
  130OSM   C11F14046   4.306   6.007   7.836  0.5297  0.1359 -0.1955
  130OSM   H11F14047   4.314   5.896   7.839 -1.2974 -0.0369 -1.4406
  130OSM   H11G14048   4.218   6.042   7.778  1.6076  0.3587 -1.7266
  130OSM   C12F14049   4.307   6.076   7.975  0.3785  0.5594 -0.8301
  130OSM   H12F14050   4.283   6.183   7.958 -0.1391  0.4861 -0.5635
  130OSM   H12G14051   4.408   6.059   8.019 -0.2649 -0.2022  0.4037
  130OSM   C13F14052   4.198   6.008   8.048  0.1695  0.2113  0.2898
  130OSM   H13F14053   4.211   5.898   8.054  0.7987  0.3864  2.4357
  130OSM   H13G14054   4.100   6.041   8.006  1.5122  0.9870 -2.3426
  130OSM   C14F14055   4.195   6.056   8.197  0.0283 -0.4298  0.1947
  130OSM   H14F14056   4.167   6.162   8.211  0.3638 -0.5335  1.7433
  130OSM   H14G14057   4.300   6.041   8.232  0.2137  1.5043  0.4807
  130OSM   C15F14058   4.084   5.983   8.282 -0.1140  0.0769 -0.3146
  130OSM   H15F14059   4.088   5.875   8.258 -0.5011 -0.1967  0.7943
  130OSM   H15G14060   3.989   6.030   8.251  0.7970  0.6675 -2.2729
  130OSM   C16F14061   4.106   6.021   8.428  0.0899  0.2591  0.0478
  130OSM   H16F14062   4.084   6.127   8.453  0.6765  0.4515 -0.2520
  130OSM   H16G14063   4.210   5.995   8.459 -0.4924  0.0770  1.9194
  130OSM   C17F14064   4.014   5.939   8.529 -0.2447 -0.2998  0.3727
  130OSM   H17F14065   3.910   5.965   8.499  0.3002 -0.0784 -1.3872
  130OSM   H17G14066   4.036   5.965   8.635 -0.6832 -0.5387  0.5203
  130OSM   C18F14067   4.029   5.782   8.524  0.0122  0.6915  0.0024
  130OSM   H18F14068   4.133   5.753   8.554 -0.0917 -1.8344 -1.9518
  130OSM   H18G14069   4.016   5.742   8.422 -2.5620  0.0254  0.5767
  130OSM   H18H14070   3.958   5.733   8.594  0.0940  1.2067  0.4532
  131OSM      N14071   2.471   2.075   5.641 -0.0188 -0.7378  0.2124
  131OSM    C1514072   2.464   2.172   5.531 -0.0730  0.5826  0.5068
  131OSM   H15A14073   2.393   2.135   5.459 -0.7379  0.1493  1.3721
  131OSM   H15B14074   2.557   2.181   5.478 -1.5361 -0.1259 -2.2503
  131OSM   H15C14075   2.433   2.274   5.551  0.3781  0.4300  2.1065
  131OSM    C1414076   2.344   2.067   5.716  1.0133  0.3912 -0.3413
  131OSM   H14A14077   2.279   2.000   5.662  0.3092  2.4371 -2.0648
  131OSM   H14B14078   2.311   2.164   5.750 -3.8771 -0.4883 -2.1732
  131OSM   H14C14079   2.364   2.006   5.803 -1.9158  1.0422  0.8389
  131OSM    C1314080   2.509   1.935   5.590 -0.4814 -0.2200  0.5156
  131OSM   H13A14081   2.540   1.865   5.666  1.5941 -1.5808 -1.5416
  131OSM   H13B14082   2.592   1.934   5.521 -0.9468  0.7599 -0.0621
  131OSM   H13C14083   2.424   1.905   5.531  0.4015  2.8143 -2.4567
  131OSM    C1214084   2.584   2.125   5.732  1.0830 -0.3225 -0.1795
  131OSM   H12A14085   2.570   2.232   5.742  0.4939 -0.3478 -0.6642
  131OSM   H12B14086   2.672   2.107   5.672  0.4218  0.3688 -1.3868
  131OSM    C1114087   2.595   2.056   5.865 -0.9593 -0.2564 -0.4898
  131OSM   H11A14088   2.594   1.945   5.855 -1.4996 -0.1535 -1.6099
  131OSM   H11B14089   2.506   2.067   5.931 -0.9636  0.3745 -0.6038
  131OSM      P14090   2.735   2.245   5.982  0.1739  0.1698 -0.2231
  131OSM    O1314091   2.863   2.249   6.058  0.2470 -0.4598  0.6510
  131OSM    O1414092   2.719   2.347   5.874 -0.3039 -0.7645  0.5044
  131OSM    O1114093   2.621   2.247   6.085  0.1784 -0.7189 -0.2213
  131OSM    O1214094   2.718   2.096   5.927 -0.3131 -0.1637  0.4866
  131OSM    C1S14095   2.603   2.145   6.184 -0.1099 -0.0038  0.0041
  131OSM    H1S14096   2.697   2.136   6.243  0.6515 -0.1554 -1.2039
  131OSM    H1T14097   2.578   2.047   6.138 -0.0058 -0.5335  1.0721
  131OSM     NF14098   2.480   2.107   6.394 -0.0715 -0.2679 -0.3707
  131OSM    HNF14099   2.394   2.057   6.399 -0.5658  0.3529 -2.2277
  131OSM    C2S14100   2.492   2.198   6.281  0.5445 -0.6988  0.6949
  131OSM    H2S14101   2.517   2.290   6.338  1.3542 -0.1491 -0.5482
  131OSM    C3S14102   2.353   2.227   6.209 -0.3615  0.0433  0.5219
  131OSM    H3S14103   2.332   2.136   6.149  1.8818  0.0209 -0.3019
  131OSM     O314104   2.370   2.328   6.111  0.1066 -0.1592 -0.1464
  131OSM    HO314105   2.465   2.323   6.100  0.4076  0.4361  1.9391
  131OSM    C4S14106   2.250   2.259   6.306  0.6814  0.0017  0.3514
  131OSM    H4S14107   2.195   2.172   6.345 -1.7740  2.1796  1.8817
  131OSM    C5S14108   2.212   2.375   6.356 -0.5998  0.4335 -0.1938
  131OSM    H5S14109   2.245   2.468   6.307 -0.7689  0.2525 -0.6534
  131OSM    C6S14110   2.100   2.393   6.453 -0.2128 -0.2722 -0.4760
  131OSM    H6S14111   2.028   2.454   6.395  0.0671  0.7447  0.2212
  131OSM    H6T14112   2.139   2.445   6.543  0.7470 -1.0414 -0.4359
  131OSM    C7S14113   2.023   2.273   6.505  0.1387  0.9440 -0.6227
  131OSM    H7S14114   2.090   2.204   6.560  0.2780  1.0642 -0.6397
  131OSM    H7T14115   1.987   2.211   6.421  2.1336  0.2562 -0.9954
  131OSM    C8S14116   1.905   2.300   6.589  0.6673 -0.2298 -0.2901
  131OSM    H8S14117   1.842   2.211   6.609 -0.8670  0.5533 -1.5293
  131OSM    H8T14118   1.851   2.375   6.528 -1.3607 -1.5105 -0.1179
  131OSM    C9S14119   1.931   2.373   6.724 -0.2825 -0.1398 -0.3366
  131OSM    H9S14120   1.829   2.409   6.748  0.2150  1.1451 -0.1112
  131OSM    H9T14121   1.981   2.465   6.687 -1.1499  0.7795  0.7488
  131OSM   C10S14122   1.988   2.287   6.837  0.0788 -0.0540  0.1684
  131OSM   H10S14123   2.058   2.209   6.800  0.2751 -0.0833  0.5888
  131OSM   H10T14124   1.913   2.224   6.890  1.1417 -1.9515 -0.5182
  131OSM   C11S14125   2.043   2.380   6.941  0.2216 -0.2491 -0.3728
  131OSM   H11S14126   1.967   2.460   6.955 -1.7460 -2.2606  0.7819
  131OSM   H11T14127   2.137   2.426   6.906 -0.6491  0.2030 -2.1356
  131OSM   C12S14128   2.069   2.294   7.066 -0.0775 -0.5682  0.1070
  131OSM   H12S14129   2.141   2.216   7.033 -0.2010 -0.7751  0.3251
  131OSM   H12T14130   1.970   2.247   7.088  0.1732 -0.7444  0.8727
  131OSM   C13S14131   2.122   2.385   7.178 -0.1124  0.1077  0.6665
  131OSM   H13S14132   2.054   2.473   7.181 -0.0388  0.2456 -1.1182
  131OSM   H13T14133   2.221   2.415   7.136 -0.2353  0.4957  0.6499
  131OSM   C14S14134   2.134   2.315   7.315  0.6088 -0.4009  0.4213
  131OSM   H14S14135   2.207   2.232   7.325  0.4156 -0.5770  0.3832
  131OSM   H14T14136   2.037   2.268   7.340  0.4518 -0.7099 -0.7422
  131OSM   C15S14137   2.182   2.408   7.427  0.4106  0.5158  0.4857
  131OSM   H15S14138   2.279   2.452   7.396  1.1429 -1.3009  0.1201
  131OSM   H15T14139   2.194   2.341   7.515 -1.3907 -1.6003 -0.8190
  131OSM   C16S14140   2.079   2.516   7.449  0.1220 -0.6958 -0.4392
  131OSM   H16S14141   1.981   2.474   7.483  0.6109 -1.2355  0.3382
  131OSM   H16T14142   2.059   2.573   7.356  0.5323 -2.1667 -1.4432
  131OSM   C17S14143   2.131   2.616   7.556 -0.1330  0.2280  0.0506
  131OSM   H17S14144   2.072   2.709   7.543  1.3606  0.9522 -1.7390
  131OSM   H17T14145   2.237   2.641   7.534  0.0080 -0.0455  0.4006
  131OSM   C18S14146   2.116   2.565   7.701  0.6669 -0.6981 -0.2994
  131OSM   H18S14147   2.117   2.651   7.772  1.8129 -1.1081  0.1905
  131OSM   H18T14148   2.208   2.513   7.733  0.1912 -1.4479 -0.1445
  131OSM   H18U14149   2.027   2.507   7.733  1.7725 -0.5613  3.2991
  131OSM    C1F14150   2.574   2.085   6.488  1.3631  0.0949 -0.6010
  131OSM     OF14151   2.691   2.104   6.470 -0.1383 -0.1185  0.0169
  131OSM    C2F14152   2.512   2.031   6.611  0.1410 -0.1529 -0.8309
  131OSM    H2F14153   2.568   1.942   6.648 -2.1052 -1.6233 -0.8734
  131OSM    H2G14154   2.405   2.005   6.598  0.2161 -0.4996 -0.7696
  131OSM    C3F14155   2.522   2.146   6.718  0.0118 -0.2874  0.7482
  131OSM    H3F14156   2.463   2.236   6.693 -0.9636 -1.6198 -2.0093
  131OSM    H3G14157   2.629   2.173   6.729  0.0311  0.8629 -1.9898
  131OSM    C4F14158   2.477   2.090   6.851 -0.3725  0.0210 -0.9548
  131OSM    H4F14159   2.528   1.991   6.854  0.0176  0.2528  0.8471
  131OSM    H4G14160   2.368   2.070   6.845  0.2317 -4.5692  0.9710
  131OSM    C5F14161   2.518   2.170   6.974 -0.6414  0.2914  1.1991
  131OSM    H5F14162   2.462   2.266   6.982  0.4817  1.1882 -1.2491
  131OSM    H5G14163   2.627   2.190   6.979 -0.6435  0.7404 -0.4347
  131OSM    C6F14164   2.476   2.105   7.108 -0.4373  0.2231 -0.8086
  131OSM    H6F14165   2.523   2.009   7.134 -1.8717 -0.5435 -0.9779
  131OSM    H6G14166   2.367   2.088   7.096 -0.6590  0.7244  0.4828
  131OSM    C7F14167   2.500   2.190   7.229 -0.0818  0.1868 -0.0385
  131OSM    H7F14168   2.439   2.282   7.216 -0.6053 -0.2495 -0.6984
  131OSM    H7G14169   2.608   2.216   7.222  0.3069 -0.1606  3.4947
  131OSM    C8F14170   2.458   2.106   7.348 -0.0318 -0.1687 -0.1479
  131OSM    H8F14171   2.506   2.006   7.351  0.8563  0.2940  2.0820
  131OSM    H8G14172   2.347   2.099   7.347  0.0681 -1.9143 -0.2330
  131OSM    C9F14173   2.491   2.167   7.475  1.2113 -0.5056 -0.1061
  131OSM    H9F14174   2.408   2.217   7.528 -0.0459 -1.7679 -0.8627
  131OSM   C10F14175   2.601   2.145   7.541 -0.0899 -0.2583 -0.8119
  131OSM   H10F14176   2.611   2.211   7.629  0.1592 -2.6601  0.9934
  131OSM   C11F14177   2.725   2.065   7.516  0.4719  0.1651  0.4026
  131OSM   H11F14178   2.803   2.143   7.500 -2.6604  3.2858 -0.3211
  131OSM   H11G14179   2.710   2.001   7.427  0.1597  0.6160  0.1328
  131OSM   C12F14180   2.757   1.977   7.631 -0.6437  0.2259 -1.0009
  131OSM   H12F14181   2.852   1.925   7.607 -0.1523  0.3477  0.6419
  131OSM   H12G14182   2.685   1.894   7.649  1.6560 -1.9171 -1.4700
  131OSM   C13F14183   2.761   2.049   7.771  0.2426 -1.0404 -0.2561
  131OSM   H13F14184   2.655   2.079   7.788  1.1759  2.6514 -0.7110
  131OSM   H13G14185   2.827   2.137   7.762  0.2417 -1.1322 -1.1645
  131OSM   C14F14186   2.813   1.968   7.891 -0.1978 -0.5540 -0.0951
  131OSM   H14F14187   2.924   1.967   7.886 -0.2531 -1.8235 -1.4897
  131OSM   H14G14188   2.769   1.866   7.899  0.0093 -0.5345  1.6217
  131OSM   C15F14189   2.778   2.045   8.025 -0.7625 -0.2261  0.1298
  131OSM   H15F14190   2.672   2.029   8.054 -0.9096  0.5017  0.0061
  131OSM   H15G14191   2.815   2.148   8.006  2.4735 -1.3048  0.1986
  131OSM   C16F14192   2.853   1.988   8.148  0.2913  0.6525  0.5036
  131OSM   H16F14193   2.827   2.056   8.232  2.0765  1.2146  0.6137
  131OSM   H16G14194   2.963   1.999   8.133  0.2516 -0.4162 -0.6803
  131OSM   C17F14195   2.815   1.841   8.174 -0.7949 -0.3550  0.1789
  131OSM   H17F14196   2.796   1.797   8.074  1.0903  2.9684 -1.7176
  131OSM   H17G14197   2.714   1.823   8.218 -0.6759 -0.9176  0.2140
  131OSM   C18F14198   2.914   1.775   8.264  0.0619  0.1535 -0.1466
  131OSM   H18F14199   2.868   1.678   8.293 -1.1158  0.7778  0.0831
  131OSM   H18G14200   2.938   1.825   8.360 -1.3427 -0.1970  0.4054
  131OSM   H18H14201   3.004   1.731   8.216 -0.4902 -1.6235  0.4027
  132OSM      N14202   4.244   3.273   6.090 -0.4005 -0.4146 -0.8371
  132OSM    C1514203   4.193   3.136   6.057  0.3328 -0.3437 -0.0981
  132OSM   H15A14204   4.217   3.115   5.954  1.4932  1.8774 -0.3170
  132OSM   H15B14205   4.087   3.120   6.072  0.0088  0.3155 -1.5862
  132OSM   H15C14206   4.237   3.059   6.119  3.1309 -0.7653 -2.5189
  132OSM    C1414207   4.391   3.281   6.083  0.0423  0.1398  0.1056
  132OSM   H14A14208   4.430   3.257   5.985 -0.5593  2.1191 -0.6255
  132OSM   H14B14209   4.434   3.214   6.157  2.0264  0.9932 -0.2450
  132OSM   H14C14210   4.424   3.381   6.106 -1.7791  1.2457 -1.9304
  132OSM    C1314211   4.184   3.370   5.989 -0.1107  0.2757 -0.6001
  132OSM   H13A14212   4.083   3.392   6.020 -0.1080 -1.6166  0.8935
  132OSM   H13B14213   4.186   3.327   5.890  0.1457 -0.4186 -0.3012
  132OSM   H13C14214   4.239   3.463   5.994  0.3896 -0.0808  0.9926
  132OSM    C1214215   4.202   3.304   6.231  0.1434  0.1402 -0.1110
  132OSM   H12A14216   4.240   3.230   6.300 -2.2565 -1.1330 -0.1056
  132OSM   H12B14217   4.095   3.289   6.227  0.5200 -2.6067 -1.7114
  132OSM    C1114218   4.226   3.444   6.285  0.0450  0.2824  0.4088
  132OSM   H11A14219   4.331   3.476   6.267  0.3599 -0.5712  0.6615
  132OSM   H11B14220   4.213   3.441   6.395  0.1606 -0.3533  0.4127
  132OSM      P14221   4.152   3.695   6.230  0.4113 -0.0211 -0.1797
  132OSM    O1314222   4.289   3.735   6.197  0.2602  0.3913 -0.1991
  132OSM    O1414223   4.050   3.742   6.141 -0.2144 -0.6445 -0.5016
  132OSM    O1114224   4.121   3.742   6.371 -0.1457  0.1761  0.1311
  132OSM    O1214225   4.133   3.536   6.233 -0.2252 -0.2093 -0.0811
  132OSM    C1S14226   4.029   3.670   6.458  0.2180  0.6894  0.2137
  132OSM    H1S14227   4.057   3.563   6.451  0.5857  0.7392  0.8771
  132OSM    H1T14228   3.929   3.669   6.409  0.8536  0.5965 -1.1202
  132OSM     NF14229   3.966   3.634   6.686  0.2469  0.2830  0.4390
  132OSM    HNF14230   3.868   3.652   6.680  0.5998  2.2829  0.1147
  132OSM    C2S14231   4.030   3.727   6.600  0.2200  0.6191  0.2799
  132OSM    H2S14232   4.137   3.719   6.631  0.0664 -2.6712  0.1405
  132OSM    C3S14233   3.983   3.876   6.605  0.4326 -0.2799  0.6623
  132OSM    H3S14234   3.877   3.876   6.572 -0.0837 -0.2303  2.2356
  132OSM     O314235   4.059   3.951   6.504  1.4187 -0.9634 -0.1680
  132OSM    HO314236   4.119   3.893   6.458  2.8025  1.0404 -0.9697
  132OSM    C4S14237   3.988   3.930   6.747  0.3571 -0.1163 -0.1619
  132OSM    H4S14238   3.898   3.919   6.809  0.9797  0.4069  0.8673
  132OSM    C5S14239   4.083   4.003   6.809  0.1409  0.0052  0.7472
  132OSM    H5S14240   4.172   4.041   6.756 -0.7691  0.7459 -0.2650
  132OSM    C6S14241   4.078   4.054   6.950 -0.5164  0.5626 -0.0578
  132OSM    H6S14242   4.100   4.163   6.945 -0.2753  0.5155 -0.0142
  132OSM    H6T14243   4.157   4.001   7.008 -1.1567 -0.3011  0.0339
  132OSM    C7S14244   3.952   4.037   7.038  0.1973  0.0265 -0.4078
  132OSM    H7S14245   3.919   3.932   7.051 -0.2704  0.0329 -1.4859
  132OSM    H7T14246   3.868   4.097   6.997 -0.6166 -0.4158  0.5968
  132OSM    C8S14247   3.982   4.098   7.178  0.0920  0.4739  0.8934
  132OSM    H8S14248   3.993   4.207   7.161  0.5571 -0.0901 -2.7571
  132OSM    H8T14249   4.080   4.058   7.211  0.0913  1.0474  1.5929
  132OSM    C9S14250   3.866   4.058   7.277 -0.1556  0.4219  0.5027
  132OSM    H9S14251   3.887   3.958   7.323  0.7210  0.6434  0.6001
  132OSM    H9T14252   3.762   4.062   7.240  0.1420 -0.8516 -0.5445
  132OSM   C10S14253   3.871   4.157   7.398  0.1121 -0.0534 -0.5111
  132OSM   H10S14254   3.801   4.122   7.477  3.0592 -3.4603  0.7137
  132OSM   H10T14255   3.845   4.260   7.365 -0.2627 -0.2357 -0.7901
  132OSM   C11S14256   4.010   4.166   7.460  0.1730  0.4397  0.8075
  132OSM   H11S14257   4.094   4.209   7.401  0.6670 -2.3587 -0.6030
  132OSM   H11T14258   4.051   4.063   7.471 -4.0067 -1.5376 -1.1905
  132OSM   C12S14259   4.002   4.220   7.603 -0.2149 -0.5433  0.2426
  132OSM   H12S14260   3.917   4.170   7.654 -1.7532  1.1247 -0.6176
  132OSM   H12T14261   3.984   4.330   7.603  0.0861 -0.4674  2.2432
  132OSM   C13S14262   4.133   4.198   7.670 -0.4883 -0.7207  0.3671
  132OSM   H13S14263   4.201   4.283   7.650 -2.0203  0.1723 -1.1449
  132OSM   H13T14264   4.180   4.105   7.632 -1.7751 -0.7992 -1.0877
  132OSM   C14S14265   4.116   4.194   7.819 -0.5700 -0.3746  0.0654
  132OSM   H14S14266   4.031   4.135   7.858 -0.3586 -1.5779 -1.2669
  132OSM   H14T14267   4.097   4.302   7.837 -0.9548 -0.5577  0.7536
  132OSM   C15S14268   4.248   4.152   7.883 -0.5458  0.2233  0.0428
  132OSM   H15S14269   4.330   4.220   7.853 -0.8035  0.4989 -0.0370
  132OSM   H15T14270   4.278   4.049   7.855  2.9542  1.2045 -0.0611
  132OSM   C16S14271   4.237   4.154   8.043  1.0248  0.3746 -0.5774
  132OSM   H16S14272   4.148   4.094   8.071  1.5432  0.5269  1.4764
  132OSM   H16T14273   4.219   4.260   8.069  1.8931  0.2060  0.7268
  132OSM   C17S14274   4.357   4.097   8.118  0.7619 -0.0941 -0.4197
  132OSM   H17S14275   4.386   3.998   8.078 -0.9479 -1.4791  1.6403
  132OSM   H17T14276   4.338   4.084   8.227 -0.0538  1.3206 -0.3778
  132OSM   C18S14277   4.470   4.196   8.108  0.3412  0.5572 -0.8050
  132OSM   H18S14278   4.563   4.152   8.150 -0.1991 -0.2335 -0.4181
  132OSM   H18T14279   4.454   4.279   8.180  2.1346 -0.4499  0.8131
  132OSM   H18U14280   4.499   4.235   8.008 -1.0280  1.7296 -0.7410
  132OSM    C1F14281   4.018   3.520   6.723  0.0767  0.2901  1.1052
  132OSM     OF14282   4.127   3.480   6.690 -0.0553  0.0944  0.0205
  132OSM    C2F14283   3.927   3.432   6.812  0.0638 -0.5239 -0.0329
  132OSM    H2F14284   3.941   3.330   6.770 -1.9879 -0.3455 -1.2263
  132OSM    H2G14285   3.823   3.469   6.803  1.2012  2.7603 -0.4383
  132OSM    C3F14286   3.986   3.436   6.958  0.2389 -0.8365 -0.2197
  132OSM    H3F14287   3.961   3.536   6.998 -0.8249 -0.2043 -2.3722
  132OSM    H3G14288   4.097   3.438   6.962  0.1979  0.7883  0.4597
  132OSM    C4F14289   3.927   3.317   7.035 -0.1529 -0.0416  0.2770
  132OSM    H4F14290   3.956   3.222   6.986  1.4845  0.8056 -0.4428
  132OSM    H4G14291   3.816   3.327   7.034 -0.2434 -0.9741  0.9794
  132OSM    C5F14292   3.989   3.312   7.175 -0.4450 -0.3368 -0.2305
  132OSM    H5F14293   3.986   3.413   7.222  0.5072  0.7257 -2.3898
  132OSM    H5G14294   4.097   3.292   7.164 -0.0158  1.9130 -0.3478
  132OSM    C6F14295   3.905   3.215   7.260 -0.1145 -0.6064 -0.3987
  132OSM    H6F14296   3.877   3.118   7.213 -0.4876 -1.7077  2.0165
  132OSM    H6G14297   3.812   3.275   7.273 -0.8358 -1.0834 -3.0360
  132OSM    C7F14298   3.966   3.202   7.406 -0.9070 -0.3008 -0.1107
  132OSM    H7F14299   4.055   3.141   7.380 -1.0206 -0.3547 -0.3706
  132OSM    H7G14300   3.909   3.130   7.469 -3.3467  1.0323 -0.7057
  132OSM    C8F14301   3.989   3.318   7.499 -0.0729  0.0859  1.0956
  132OSM    H8F14302   4.044   3.386   7.431  1.3512 -1.4907  0.6341
  132OSM    H8G14303   4.062   3.288   7.577 -1.2122  0.7987  2.4630
  132OSM    C9F14304   3.870   3.380   7.548 -0.0961 -0.1586  0.4036
  132OSM    H9F14305   3.831   3.456   7.479  1.1855 -0.6834 -0.9263
  132OSM   C10F14306   3.819   3.369   7.672 -0.5556  0.0153 -0.7305
  132OSM   H10F14307   3.724   3.420   7.696 -1.0490 -0.7124 -1.1350
  132OSM   C11F14308   3.868   3.291   7.783 -0.8400  0.0567 -0.3221
  132OSM   H11F14309   3.978   3.302   7.793 -0.7081 -0.9072 -0.6601
  132OSM   H11G14310   3.835   3.185   7.784 -0.9724  0.0988  0.4046
  132OSM   C12F14311   3.815   3.333   7.926 -0.3710 -0.2377 -0.4979
  132OSM   H12F14312   3.707   3.355   7.915 -0.5538 -0.2537  1.1466
  132OSM   H12G14313   3.861   3.428   7.959 -2.1469  0.1658  0.9056
  132OSM   C13F14314   3.845   3.228   8.030 -0.7857  0.8141 -0.4123
  132OSM   H13F14315   3.956   3.220   8.027 -0.7526  0.0825  1.8649
  132OSM   H13G14316   3.808   3.127   8.006  0.7441  0.0909  0.1830
  132OSM   C14F14317   3.803   3.262   8.171 -0.0629  0.4109  0.4910
  132OSM   H14F14318   3.696   3.290   8.163 -0.3198 -0.8747 -0.6636
  132OSM   H14G14319   3.865   3.351   8.194  1.0520 -0.1046 -0.4815
  132OSM   C15F14320   3.805   3.147   8.279  0.1297  0.0371  0.0122
  132OSM   H15F14321   3.909   3.140   8.318 -0.7507 -0.7514  2.2797
  132OSM   H15G14322   3.767   3.053   8.234 -0.6850  0.0315  0.7032
  132OSM   C16F14323   3.703   3.177   8.396 -0.4416 -0.1916 -0.0284
  132OSM   H16F14324   3.704   3.094   8.470  1.0633  1.7160  2.1623
  132OSM   H16G14325   3.606   3.172   8.342 -1.0318 -0.0429  1.0088
  132OSM   C17F14326   3.733   3.305   8.467 -0.4213 -0.5305  0.2087
  132OSM   H17F14327   3.754   3.389   8.397 -0.6453  0.1963  1.0088
  132OSM   H17G14328   3.814   3.283   8.539 -0.5614  3.5766  1.7591
  132OSM   C18F14329   3.612   3.347   8.560  0.4382  0.0229  0.6711
  132OSM   H18F14330   3.524   3.385   8.504  0.0837  1.7973  2.3901
  132OSM   H18G14331   3.641   3.429   8.629  1.3591 -1.7045  2.3814
  132OSM   H18H14332   3.571   3.260   8.616 -1.6533 -0.6937 -1.8848
  133OSM      N14333   4.783   3.561   5.983  0.6959 -0.2674 -0.7031
  133OSM    C1514334   4.889   3.564   6.079  0.0988 -0.3989 -0.0316
  133OSM   H15A14335   4.872   3.508   6.170  1.0542 -0.0213  0.3831
  133OSM   H15B14336   4.899   3.660   6.127  2.8162 -0.9600  0.5951
  133OSM   H15C14337   4.983   3.539   6.033  0.2658 -0.2310  0.2191
  133OSM    C1414338   4.815   3.656   5.873  0.6361 -0.0715  0.7455
  133OSM   H14A14339   4.894   3.630   5.803 -1.7633  1.0609 -2.4825
  133OSM   H14B14340   4.845   3.753   5.909 -1.1613 -0.6084  3.8317
  133OSM   H14C14341   4.730   3.686   5.813  2.0694 -0.7842 -1.7065
  133OSM    C1314342   4.766   3.417   5.935 -0.7291 -0.0029 -0.1645
  133OSM   H13A14343   4.740   3.350   6.016  0.8891 -0.2009  0.2063
  133OSM   H13B14344   4.866   3.391   5.904 -0.1830  0.1605  1.4127
  133OSM   H13C14345   4.696   3.412   5.853  0.9792  2.5367 -1.8685
  133OSM    C1214346   4.654   3.612   6.056  0.4321  0.8122 -0.6434
  133OSM   H12A14347   4.566   3.574   6.006  0.4958 -2.5605  1.6483
  133OSM   H12B14348   4.655   3.720   6.061 -2.0658  0.8665 -0.9644
  133OSM    C1114349   4.628   3.550   6.198 -0.6725  0.2352  0.0092
  133OSM   H11A14350   4.531   3.587   6.237 -0.8250  0.8428 -0.9386
  133OSM   H11B14351   4.699   3.581   6.277 -0.7279 -1.9689  0.9658
  133OSM      P14352   4.680   3.303   6.291 -0.4656  0.2275  0.1025
  133OSM    O1314353   4.616   3.173   6.276 -0.0387  0.5179  0.3734
  133OSM    O1414354   4.830   3.302   6.286  0.4428  0.2718  0.8285
  133OSM    O1114355   4.633   3.378   6.425 -1.0078 -0.6953 -0.3056
  133OSM    O1214356   4.628   3.404   6.186 -0.9043  0.0008  0.2846
  133OSM    C1S14357   4.520   3.343   6.503 -0.2683  0.0913 -0.4051
  133OSM    H1S14358   4.529   3.237   6.536 -0.1577  0.3001  0.2517
  133OSM    H1T14359   4.430   3.348   6.439 -0.9135  0.3586  0.5040
  133OSM     NF14360   4.381   3.344   6.705  0.0510  0.3293 -0.4368
  133OSM    HNF14361   4.298   3.400   6.713 -1.4021 -1.7521 -0.6680
  133OSM    C2S14362   4.492   3.415   6.639 -0.0729  0.5865  0.0943
  133OSM    H2S14363   4.584   3.406   6.699  0.4049  1.4938 -0.5010
  133OSM    C3S14364   4.460   3.564   6.604  0.1252  0.0744 -0.4738
  133OSM    H3S14365   4.358   3.568   6.562 -1.2371  0.1095  2.7019
  133OSM     O314366   4.547   3.636   6.523 -0.3360 -0.5777 -0.5401
  133OSM    HO314367   4.616   3.583   6.483  0.1099 -0.0352 -0.4889
  133OSM    C4S14368   4.463   3.634   6.736  0.1962  0.7839  0.2854
  133OSM    H4S14369   4.556   3.684   6.766  0.8417 -0.5289  0.5317
  133OSM    C5S14370   4.359   3.662   6.815  0.0515  0.0255 -0.0298
  133OSM    H5S14371   4.259   3.627   6.787  0.4106 -0.6653 -0.4596
  133OSM    C6S14372   4.363   3.731   6.954 -0.9108 -0.7561  0.1974
  133OSM    H6S14373   4.337   3.838   6.938  1.7806 -0.0743  0.0127
  133OSM    H6T14374   4.462   3.737   7.005 -1.6890 -1.3462  1.8245
  133OSM    C7S14375   4.262   3.666   7.053  0.4075 -0.3389 -0.2965
  133OSM    H7S14376   4.280   3.557   7.060 -0.1054 -0.4484 -0.6660
  133OSM    H7T14377   4.163   3.673   7.004  0.7692 -3.7239 -1.5975
  133OSM    C8S14378   4.260   3.732   7.194 -0.1220  0.2189 -0.4710
  133OSM    H8S14379   4.272   3.842   7.198  0.8879  0.0479  2.0101
  133OSM    H8T14380   4.352   3.696   7.245 -0.3824  2.1819  1.4689
  133OSM    C9S14381   4.142   3.698   7.271 -0.2298 -0.5716 -0.6739
  133OSM    H9S14382   4.119   3.590   7.275 -0.4960 -0.5116 -0.5446
  133OSM    H9T14383   4.049   3.750   7.239 -0.1931 -1.0620 -1.6028
  133OSM   C10S14384   4.163   3.743   7.419 -0.0851 -0.4206 -0.0001
  133OSM   H10S14385   4.167   3.854   7.427  0.5598 -0.4056 -0.4647
  133OSM   H10T14386   4.256   3.699   7.461  1.9966  0.4251 -3.5194
  133OSM   C11S14387   4.050   3.697   7.511 -0.0122 -0.0060  0.1132
  133OSM   H11S14388   4.043   3.586   7.512 -0.7137  0.0443  2.0986
  133OSM   H11T14389   3.964   3.737   7.453 -0.9574 -1.1878  0.6808
  133OSM   C12S14390   4.043   3.754   7.651 -0.3930  0.8871  0.0287
  133OSM   H12S14391   4.068   3.863   7.647  0.9320  0.6344  0.8945
  133OSM   H12T14392   4.123   3.704   7.710 -0.1102  1.5341  0.2006
  133OSM   C13S14393   3.901   3.747   7.722  0.2260  0.3351 -0.1517
  133OSM   H13S14394   3.889   3.637   7.733 -1.2262  0.6374  1.3654
  133OSM   H13T14395   3.827   3.795   7.655  1.0671 -0.5730 -1.7597
  133OSM   C14S14396   3.902   3.800   7.854 -0.1150 -0.0232 -0.9648
  133OSM   H14S14397   3.805   3.777   7.904  0.7780 -1.1393  0.3142
  133OSM   H14T14398   3.914   3.909   7.836 -1.1748  0.4632  1.0580
  133OSM   C15S14399   4.011   3.739   7.952 -0.4253 -0.0521  0.3469
  133OSM   H15S14400   4.105   3.776   7.906 -1.8662  3.2919 -0.0642
  133OSM   H15T14401   4.003   3.629   7.940  3.7486 -0.1945 -2.1523
  133OSM   C16S14402   3.996   3.789   8.098  0.4382  0.2112 -0.5077
  133OSM   H16S14403   3.892   3.786   8.136  0.3286  0.1727 -0.8079
  133OSM   H16T14404   4.018   3.898   8.092  3.5661 -0.1203  3.3644
  133OSM   C17S14405   4.100   3.721   8.182 -1.0255  0.3536  0.5077
  133OSM   H17S14406   4.181   3.688   8.113 -0.5151  2.3338  0.1308
  133OSM   H17T14407   4.042   3.646   8.239 -0.4481  1.6220  2.8089
  133OSM   C18S14408   4.165   3.807   8.285 -0.1797  0.0887 -0.0460
  133OSM   H18S14409   4.208   3.904   8.251 -0.9167 -0.1862 -1.7764
  133OSM   H18T14410   4.248   3.758   8.341 -0.2806  0.2812  0.2771
  133OSM   H18U14411   4.086   3.833   8.359  0.5970  0.8325  0.5460
  133OSM    C1F14412   4.380   3.225   6.769  0.4631 -0.2359 -0.3279
  133OSM     OF14413   4.483   3.149   6.778 -0.0614  0.4391  0.1973
  133OSM    C2F14414   4.256   3.190   6.854 -0.4030  0.3710  0.1507
  133OSM    H2F14415   4.163   3.206   6.795 -0.2522  0.9106  0.0513
  133OSM    H2G14416   4.258   3.264   6.937  0.0544 -0.5103  0.9244
  133OSM    C3F14417   4.258   3.045   6.907  1.1341 -0.2570  0.2039
  133OSM    H3F14418   4.359   3.025   6.948  1.6911 -0.3935 -1.2140
  133OSM    H3G14419   4.240   2.971   6.827  1.5208 -1.2172  0.9941
  133OSM    C4F14420   4.153   3.026   7.022 -0.3031  0.8956  0.2670
  133OSM    H4F14421   4.055   3.038   6.971  0.1500  2.2438 -0.3171
  133OSM    H4G14422   4.161   3.112   7.092  2.1849  1.1061 -0.2367
  133OSM    C5F14423   4.173   2.892   7.083 -0.5757 -0.2936  0.2546
  133OSM    H5F14424   4.158   2.812   7.007 -0.6181  0.0364 -0.0861
  133OSM    H5G14425   4.083   2.878   7.147 -0.0273 -0.7900  0.9364
  133OSM    C6F14426   4.298   2.883   7.170 -0.2650  0.1547 -0.4453
  133OSM    H6F14427   4.306   2.965   7.244 -0.8898 -0.6729  0.5628
  133OSM    H6G14428   4.379   2.883   7.094 -0.4404  1.4518 -0.6506
  133OSM    C7F14429   4.297   2.757   7.259 -0.3542  0.5616 -0.2407
  133OSM    H7F14430   4.402   2.727   7.280 -0.0677  0.5783 -1.5671
  133OSM    H7G14431   4.257   2.675   7.195  0.0103 -0.4755  0.8459
  133OSM    C8F14432   4.211   2.778   7.379  0.6369 -0.2254  0.2275
  133OSM    H8F14433   4.203   2.679   7.428 -2.2190 -0.2698 -0.2580
  133OSM    H8G14434   4.105   2.798   7.355 -0.4091 -1.5975  3.4580
  133OSM    C9F14435   4.280   2.864   7.484  0.4119 -0.1088  0.0405
  133OSM    H9F14436   4.380   2.896   7.451 -0.5597  1.7243 -1.1968
  133OSM   C10F14437   4.245   2.874   7.616 -0.1999 -0.7068 -0.3750
  133OSM   H10F14438   4.319   2.923   7.682  0.0456  0.6595 -1.6417
  133OSM   C11F14439   4.119   2.832   7.689  0.2857 -0.3264 -0.0744
  133OSM   H11F14440   4.131   2.731   7.734 -1.7583 -0.1855  0.8296
  133OSM   H11G14441   4.028   2.835   7.626  0.1433  2.3551  0.1934
  133OSM   C12F14442   4.084   2.932   7.806 -0.5143 -0.3459  0.5085
  133OSM   H12F14443   3.981   2.917   7.845 -0.1095 -0.6581  1.4624
  133OSM   H12G14444   4.083   3.038   7.773 -0.3928 -1.0852 -1.9935
  133OSM   C13F14445   4.178   2.924   7.930  0.0936 -0.2698 -0.2618
  133OSM   H13F14446   4.278   2.961   7.900  0.3770 -1.3540 -0.6973
  133OSM   H13G14447   4.195   2.815   7.943 -2.7251 -0.8497 -1.2189
  133OSM   C14F14448   4.131   2.993   8.055 -0.1059 -0.0143  0.1304
  133OSM   H14F14449   4.045   2.942   8.103  0.1093  1.7391  2.4426
  133OSM   H14G14450   4.114   3.101   8.036  2.1357  0.7059  2.0128
  133OSM   C15F14451   4.247   3.010   8.161  0.3964 -0.0898 -0.0683
  133OSM   H15F14452   4.312   3.087   8.115 -1.1452  0.4103 -1.4663
  133OSM   H15G14453   4.296   2.911   8.171 -1.4592 -1.0087  0.2417
  133OSM   C16F14454   4.194   3.047   8.298  0.3630 -0.0799 -0.4466
  133OSM   H16F14455   4.261   3.009   8.378  1.1992 -2.5252 -2.2272
  133OSM   H16G14456   4.095   3.008   8.328 -1.7106  3.0918 -2.8743
  133OSM   C17F14457   4.197   3.197   8.310  0.3198  0.2968  0.8259
  133OSM   H17F14458   4.112   3.236   8.250  0.3371 -0.2132  0.4585
  133OSM   H17G14459   4.292   3.238   8.270 -0.7535  1.2241 -0.8614
  133OSM   C18F14460   4.171   3.239   8.458  0.2213 -0.4299  0.0073
  133OSM   H18F14461   4.070   3.224   8.503  0.0731 -0.7197 -0.4164
  133OSM   H18G14462   4.184   3.349   8.463 -0.4492 -0.3601  0.3638
  133OSM   H18H14463   4.237   3.187   8.531 -0.7360  0.4517  1.5454
  134OSM      N14464   5.257   0.015   6.524 -0.0811 -0.1672 -0.1680
  134OSM    C1514465   5.205   0.152   6.524  0.1341 -1.0614  0.4308
  134OSM   H15A14466   5.133   0.176   6.601  0.1398  0.4509 -0.0175
  134OSM   H15B14467   5.161   0.178   6.429  1.7496 -0.1336 -0.0918
  134OSM   H15C14468   5.288   0.221   6.535  0.4772 -1.5853  1.1956
  134OSM    C1414469   5.377  -0.010   6.430  0.1895  0.1342 -0.2861
  134OSM   H14A14470   5.458   0.058   6.450 -0.0285 -0.0355  1.2874
  134OSM   H14B14471   5.356   0.002   6.325 -1.1476  1.7260  0.1344
  134OSM   H14C14472   5.395  -0.115   6.444  0.2886  0.1675 -0.1619
  134OSM    C1314473   5.306  -0.027   6.665  0.4299 -0.9969  0.2294
  134OSM   H13A14474   5.228   0.009   6.730  1.9243  1.1789  0.8657
  134OSM   H13B14475   5.396   0.031   6.682 -1.5249  1.8310  1.1910
  134OSM   H13C14476   5.316  -0.134   6.676  1.4996 -0.8932  0.3252
  134OSM    C1214477   5.144  -0.075   6.484  0.1771 -0.4508 -0.4927
  134OSM   H12A14478   5.111  -0.039   6.388  2.3274 -0.4609 -1.2760
  134OSM   H12B14479   5.063  -0.073   6.555  0.2975 -0.7511 -0.3422
  134OSM    C1114480   5.188  -0.224   6.455  0.0294 -0.4246  0.3557
  134OSM   H11A14481   5.244  -0.242   6.360  2.1339  1.8513  1.1050
  134OSM   H11B14482   5.091  -0.278   6.448 -0.8014  1.0291  0.6693
  134OSM      P14483   5.342  -0.414   6.543  0.4247  0.1123 -0.1717
  134OSM    O1314484   5.333  -0.461   6.400  0.4784 -0.2307 -0.1499
  134OSM    O1414485   5.475  -0.381   6.598  0.3874  0.1806 -0.1092
  134OSM    O1114486   5.274  -0.527   6.633  0.4177 -0.6328 -0.6615
  134OSM    O1214487   5.256  -0.284   6.561  0.4342  0.5473 -0.9543
  134OSM    C1S14488   5.301  -0.527   6.773 -0.6106 -0.1660  0.3744
  134OSM    H1S14489   5.251  -0.444   6.829  1.9903 -0.0760  2.6576
  134OSM    H1T14490   5.408  -0.523   6.800 -0.4249 -0.8294 -0.2856
  134OSM     NF14491   5.273  -0.662   6.972  0.1380  0.2260 -0.4916
  134OSM    HNF14492   5.335  -0.735   6.999 -0.6473 -0.5920 -0.8391
  134OSM    C2S14493   5.247  -0.654   6.827  0.3207  0.0265  0.0569
  134OSM    H2S14494   5.137  -0.654   6.808  0.4232  0.8569 -0.5924
  134OSM    C3S14495   5.303  -0.780   6.760  0.7977 -0.0668 -0.2788
  134OSM    H3S14496   5.412  -0.793   6.780  1.2025  2.5319 -0.6175
  134OSM     O314497   5.304  -0.786   6.618 -0.5044  0.1167 -0.2334
  134OSM    HO314498   5.296  -0.693   6.599  0.5594  0.4333  0.8406
  134OSM    C4S14499   5.229  -0.905   6.812  0.1699  0.3340  0.3409
  134OSM    H4S14500   5.120  -0.912   6.796  0.5524 -1.2284 -1.7917
  134OSM    C5S14501   5.281  -1.006   6.885  0.1581 -0.8785  0.0377
  134OSM    H5S14502   5.387  -0.997   6.915  0.8005 -1.8368 -1.8450
  134OSM    C6S14503   5.212  -1.136   6.934  0.2695 -0.7192 -0.0572
  134OSM    H6S14504   5.243  -1.223   6.872  0.0901 -0.3675 -0.6368
  134OSM    H6T14505   5.101  -1.136   6.933  0.2429  1.3111  0.6610
  134OSM    C7S14506   5.253  -1.153   7.075  0.0253 -1.0094 -0.0704
  134OSM    H7S14507   5.363  -1.138   7.081 -0.2093  0.9646 -0.3370
  134OSM    H7T14508   5.242  -1.260   7.104 -0.8643 -0.6439  0.9509
  134OSM    C8S14509   5.182  -1.080   7.181 -0.2528 -0.5846 -0.0082
  134OSM    H8S14510   5.075  -1.108   7.186 -0.3533  0.0961  2.0552
  134OSM    H8T14511   5.181  -0.970   7.169 -0.2196 -0.3994  1.6259
  134OSM    C9S14512   5.234  -1.111   7.323  0.0045  0.1546 -0.3300
  134OSM    H9S14513   5.237  -1.220   7.346 -0.1882  0.1871 -0.1580
  134OSM    H9T14514   5.164  -1.071   7.399  1.4758  1.2845  0.4667
  134OSM   C10S14515   5.372  -1.065   7.353 -0.1662  0.1806  0.2744
  134OSM   H10S14516   5.394  -0.965   7.308  0.1112 -0.8436 -1.9165
  134OSM   H10T14517   5.437  -1.135   7.296 -2.2262 -2.1176  0.6757
  134OSM   C11S14518   5.410  -1.062   7.499  0.5921  0.0603 -0.0215
  134OSM   H11S14519   5.521  -1.065   7.514  0.5469 -0.8310  0.1747
  134OSM   H11T14520   5.380  -1.163   7.533  1.2311 -0.3540 -0.6761
  134OSM   C12S14521   5.342  -0.954   7.587  0.1382 -0.0164  0.1450
  134OSM   H12S14522   5.231  -0.958   7.578  0.3306 -1.5754 -2.1259
  134OSM   H12T14523   5.384  -0.862   7.541  0.0677  0.2293  0.5748
  134OSM   C13S14524   5.380  -0.956   7.730 -0.4207 -0.1832 -0.5289
  134OSM   H13S14525   5.373  -0.851   7.763  2.8441  0.9447 -3.0571
  134OSM   H13T14526   5.486  -0.989   7.737 -0.1815  0.0744 -2.5007
  134OSM   C14S14527   5.277  -1.040   7.809  0.3087  0.8047  0.4563
  134OSM   H14S14528   5.276  -1.144   7.770  2.1573  1.6185 -1.9635
  134OSM   H14T14529   5.175  -0.998   7.799  0.3033  0.6087 -0.3147
  134OSM   C15S14530   5.318  -1.041   7.953 -0.0947  0.0968  0.2808
  134OSM   H15S14531   5.239  -1.075   8.023  0.6095 -1.7308  0.2093
  134OSM   H15T14532   5.347  -0.942   7.993  0.5397  0.2862 -0.6380
  134OSM   C16S14533   5.431  -1.135   7.983 -0.5609  0.0657 -0.3244
  134OSM   H16S14534   5.529  -1.097   8.020 -0.8423  0.6134 -0.1307
  134OSM   H16T14535   5.461  -1.201   7.900 -0.6619  0.5760 -0.7662
  134OSM   C17S14536   5.395  -1.234   8.094  0.0859  0.5194  0.2292
  134OSM   H17S14537   5.332  -1.322   8.067 -1.4288  1.4804  0.5506
  134OSM   H17T14538   5.353  -1.186   8.185 -2.4196  1.9723 -1.6217
  134OSM   C18S14539   5.524  -1.302   8.140 -0.0721  1.1487  0.0011
  134OSM   H18S14540   5.604  -1.228   8.163 -3.1879  3.8528  2.6838
  134OSM   H18T14541   5.556  -1.371   8.059 -2.9723  0.5431 -0.6716
  134OSM   H18U14542   5.511  -1.362   8.232  1.9809  1.6302  0.6503
  134OSM    C1F14543   5.217  -0.583   7.063  0.5805  0.5000  0.2435
  134OSM     OF14544   5.134  -0.500   7.020 -0.0329 -0.4094  0.0182
  134OSM    C2F14545   5.260  -0.605   7.205  0.2444 -0.1244  0.6584
  134OSM    H2F14546   5.360  -0.566   7.233  0.7292 -1.3294  0.6049
  134OSM    H2G14547   5.269  -0.715   7.204  0.3309 -0.1111 -0.0797
  134OSM    C3F14548   5.157  -0.570   7.313 -0.5666  0.1524 -0.3031
  134OSM    H3F14549   5.064  -0.622   7.283  1.9184 -4.7306 -0.0878
  134OSM    H3G14550   5.130  -0.463   7.310 -0.0251  0.4149  2.8121
  134OSM    C4F14551   5.196  -0.615   7.458  0.2276  0.2346 -0.0661
  134OSM    H4F14552   5.290  -0.572   7.498 -0.9547  1.1627  1.7620
  134OSM    H4G14553   5.212  -0.725   7.462  0.8213  0.1315 -3.4506
  134OSM    C5F14554   5.074  -0.597   7.558  0.5149  0.3914 -0.4145
  134OSM    H5F14555   4.993  -0.669   7.535  0.9331 -0.9277  2.1364
  134OSM    H5G14556   5.024  -0.499   7.543 -2.1781 -0.8575  0.2495
  134OSM    C6F14557   5.120  -0.611   7.705  0.2113  0.1585  0.3625
  134OSM    H6F14558   5.183  -0.520   7.717 -0.9191  0.9495  0.4227
  134OSM    H6G14559   5.180  -0.702   7.724  0.6940  0.7910  1.8772
  134OSM    C7F14560   4.999  -0.605   7.798  0.1144 -0.4778  0.4414
  134OSM    H7F14561   4.926  -0.679   7.758 -0.5918 -0.3067  1.4042
  134OSM    H7G14562   4.950  -0.507   7.814 -0.6263 -0.0183 -3.9676
  134OSM    C8F14563   5.049  -0.656   7.941 -0.0825 -0.0142  0.5186
  134OSM    H8F14564   5.103  -0.748   7.911  0.4203  0.6785 -0.7108
  134OSM    H8G14565   4.964  -0.682   8.008 -0.5906  1.1544  0.3266
  134OSM    C9F14566   5.146  -0.554   8.005 -0.4047  0.5495  0.0821
  134OSM    H9F14567   5.251  -0.561   7.973 -0.4453 -2.8311  0.5328
  134OSM   C10F14568   5.106  -0.450   8.077  0.2445 -0.1222  0.1267
  134OSM   H10F14569   5.185  -0.394   8.129 -0.4178  1.0483 -0.1084
  134OSM   C11F14570   4.967  -0.415   8.116 -0.3227  0.0170  0.3044
  134OSM   H11F14571   4.889  -0.466   8.056 -0.5307  0.8198 -0.1081
  134OSM   H11G14572   4.954  -0.305   8.109 -0.2239 -0.0662 -1.5616
  134OSM   C12F14573   4.953  -0.454   8.259  0.4450 -0.1981 -0.0346
  134OSM   H12F14574   4.994  -0.551   8.293  1.0796  0.0695 -0.0205
  134OSM   H12G14575   4.846  -0.441   8.287  0.4010 -1.1818  0.2477
  134OSM   C13F14576   5.002  -0.337   8.357  0.0767 -0.0002 -0.0616
  134OSM   H13F14577   4.930  -0.254   8.368 -0.1588 -0.2807  0.4870
  134OSM   H13G14578   5.090  -0.284   8.314 -0.5346 -0.0619 -1.4272
  134OSM   C14F14579   5.056  -0.379   8.495 -0.6052  0.2652  0.4849
  134OSM   H14F14580   5.091  -0.288   8.548  1.3002  0.5346 -1.1716
  134OSM   H14G14581   5.146  -0.444   8.485 -0.2097  1.0531 -1.1358
  134OSM   C15F14582   4.955  -0.457   8.580 -0.2293 -0.0840  0.5975
  134OSM   H15F14583   4.910  -0.545   8.530 -1.2835  1.5660 -1.4396
  134OSM   H15G14584   4.866  -0.393   8.599 -0.2529 -0.2467  1.0337
  134OSM   C16F14585   5.014  -0.494   8.716  0.1686 -0.4758 -0.0840
  134OSM   H16F14586   5.038  -0.393   8.755 -0.4437 -0.8105  1.1852
  134OSM   H16G14587   5.110  -0.549   8.699  0.1269 -0.4804 -0.3078
  134OSM   C17F14588   4.932  -0.593   8.804  0.4072  0.9012  0.5621
  134OSM   H17F14589   4.992  -0.611   8.896  2.6434 -0.7604 -1.1550
  134OSM   H17G14590   4.928  -0.692   8.753 -0.5316 -0.0965  2.5285
  134OSM   C18F14591   4.787  -0.550   8.846 -0.4750  0.6805  0.6382
  134OSM   H18F14592   4.796  -0.455   8.902 -2.2084 -0.0961  2.2567
  134OSM   H18G14593   4.739  -0.630   8.904  0.1578 -0.4755 -0.3974
  134OSM   H18H14594   4.733  -0.521   8.753  0.1976 -0.5557 -0.1553
  135OSM      N14595   4.940   5.995   6.305  0.8535 -0.1460  0.2661
  135OSM    C1514596   5.082   5.981   6.258  0.1338  0.1534  0.2550
  135OSM   H15A14597   5.140   5.904   6.308 -2.4162  0.3144  3.5824
  135OSM   H15B14598   5.135   6.074   6.272  0.8413 -0.1360 -0.4073
  135OSM   H15C14599   5.078   5.969   6.150 -1.5573  0.0089  0.3226
  135OSM    C1414600   4.875   6.102   6.223  0.0005  0.2189  0.5771
  135OSM   H14A14601   4.768   6.118   6.230 -0.4386 -1.6051 -1.6460
  135OSM   H14B14602   4.895   6.085   6.119 -0.1274  0.1337  0.5664
  135OSM   H14C14603   4.922   6.197   6.245  1.9323 -0.3049 -1.1739
  135OSM    C1314604   4.867   5.871   6.264 -0.6008  0.0255  0.2581
  135OSM   H13A14605   4.876   5.846   6.159 -2.3794  1.4782 -0.2848
  135OSM   H13B14606   4.764   5.892   6.287 -0.0521  3.6291 -0.2185
  135OSM   H13C14607   4.908   5.793   6.326 -0.9688  0.1721  0.6848
  135OSM    C1214608   4.928   6.030   6.453  0.4428 -0.3340  0.1260
  135OSM   H12A14609   4.955   5.942   6.509  3.4406 -0.4064 -1.3682
  135OSM   H12B14610   4.825   6.056   6.474  0.6374  0.0538  0.6127
  135OSM    C1114611   5.018   6.152   6.495 -0.1681 -0.2432  0.4963
  135OSM   H11A14612   5.126   6.136   6.474 -0.3442 -0.7702 -0.0149
  135OSM   H11B14613   5.004   6.172   6.604 -0.2222  3.8998 -0.1592
  135OSM      P14614   4.851   6.356   6.460  0.0330 -0.2323  0.3725
  135OSM    O1314615   4.858   6.482   6.388  0.4071 -0.0165 -0.2820
  135OSM    O1414616   4.739   6.264   6.427 -0.0001 -0.1851  0.0280
  135OSM    O1114617   4.856   6.370   6.610  0.6281 -0.1870 -0.1508
  135OSM    O1214618   4.981   6.274   6.427  0.0548 -0.2182  0.0222
  135OSM    C1S14619   4.955   6.430   6.688  0.0557 -0.0527 -0.0887
  135OSM    H1S14620   4.982   6.525   6.637  0.2359 -0.3452 -0.5464
  135OSM    H1T14621   5.039   6.361   6.710 -0.2929 -0.1827  0.8528
  135OSM     NF14622   5.005   6.525   6.909 -0.2657 -0.4457  0.0456
  135OSM    HNF14623   5.064   6.453   6.945 -0.3096  0.1029  1.1985
  135OSM    C2S14624   4.895   6.468   6.827 -0.2309  0.7015 -0.1459
  135OSM    H2S14625   4.818   6.548   6.826  1.0646  2.0983  3.4914
  135OSM    C3S14626   4.834   6.343   6.904  0.0620  0.3702  0.0802
  135OSM    H3S14627   4.912   6.266   6.918  0.4682  0.8057  0.2294
  135OSM     O314628   4.744   6.268   6.821  0.1052 -0.0661 -0.0428
  135OSM    HO314629   4.768   6.305   6.735  0.2904 -1.3589 -0.5538
  135OSM    C4S14630   4.768   6.374   7.032  0.1962  0.4120  0.2909
  135OSM    H4S14631   4.666   6.414   7.018 -0.1416 -1.0409 -1.6838
  135OSM    C5S14632   4.811   6.335   7.153 -0.5095 -0.3187  0.0248
  135OSM    H5S14633   4.905   6.279   7.165  0.5566  1.5800  0.8383
  135OSM    C6S14634   4.745   6.364   7.278 -0.1348 -0.3183  0.4575
  135OSM    H6S14635   4.819   6.362   7.361 -0.2623 -1.8518  0.5429
  135OSM    H6T14636   4.678   6.282   7.310 -2.9177  1.4437 -0.6783
  135OSM    C7S14637   4.659   6.479   7.294 -0.0496 -0.0562 -0.0405
  135OSM    H7S14638   4.586   6.486   7.211 -0.2433 -0.6596  0.0750
  135OSM    H7T14639   4.733   6.560   7.307  2.2410 -2.0276 -0.5838
  135OSM    C8S14640   4.574   6.481   7.425  0.7868  0.0282 -0.4542
  135OSM    H8S14641   4.500   6.400   7.411  1.0480 -0.4773  0.9699
  135OSM    H8T14642   4.525   6.580   7.439  0.1278 -0.4350  0.6159
  135OSM    C9S14643   4.654   6.460   7.552 -0.2955  0.2219 -0.0611
  135OSM    H9S14644   4.741   6.529   7.561  0.0469 -0.2940  0.5979
  135OSM    H9T14645   4.692   6.357   7.565  0.4963  0.5524  0.2931
  135OSM   C10S14646   4.557   6.468   7.670 -0.8265 -0.3220 -0.6013
  135OSM   H10S14647   4.485   6.384   7.661 -1.2203 -0.2942  1.9782
  135OSM   H10T14648   4.506   6.567   7.669  0.4319  0.3384 -0.4961
  135OSM   C11S14649   4.622   6.458   7.812 -0.0410  0.3415  0.2581
  135OSM   H11S14650   4.697   6.537   7.835 -0.8715  1.4245 -0.6889
  135OSM   H11T14651   4.686   6.368   7.812 -1.7764 -0.9585  2.7356
  135OSM   C12S14652   4.520   6.440   7.925 -0.7115 -0.1802  0.3582
  135OSM   H12S14653   4.462   6.358   7.877  1.7486 -1.7589 -0.0448
  135OSM   H12T14654   4.463   6.534   7.939 -0.4252 -0.0290  0.5064
  135OSM   C13S14655   4.585   6.396   8.059 -0.5645  0.0910  0.1925
  135OSM   H13S14656   4.668   6.469   8.064 -0.6634  0.4206 -2.2550
  135OSM   H13T14657   4.632   6.295   8.050 -0.4862  0.1221  0.2501
  135OSM   C14S14658   4.487   6.385   8.171 -0.7502  0.2619 -0.5306
  135OSM   H14S14659   4.421   6.304   8.133 -1.9370  0.6390  0.6886
  135OSM   H14T14660   4.421   6.473   8.183 -3.5977 -2.0631  1.5108
  135OSM   C15S14661   4.537   6.361   8.314 -0.2528 -0.0839  0.0976
  135OSM   H15S14662   4.578   6.460   8.341  0.3776 -0.5320  0.8145
  135OSM   H15T14663   4.613   6.280   8.311 -4.0611 -3.8619  0.5447
  135OSM   C16S14664   4.429   6.316   8.402  0.1920 -0.1384  0.0009
  135OSM   H16S14665   4.379   6.223   8.370  0.3276  0.2659 -1.4209
  135OSM   H16T14666   4.346   6.390   8.403  2.2954  2.3201 -1.7624
  135OSM   C17S14667   4.477   6.296   8.550  0.1188 -0.5667 -0.3253
  135OSM   H17S14668   4.538   6.386   8.573  0.1342 -0.8085  0.6175
  135OSM   H17T14669   4.547   6.210   8.550  2.3541  1.1631  2.2124
  135OSM   C18S14670   4.358   6.257   8.641  0.2805 -0.1233  0.5848
  135OSM   H18S14671   4.310   6.162   8.612 -0.6622  0.1990  1.0540
  135OSM   H18T14672   4.276   6.329   8.664  0.0913 -0.2092  0.1706
  135OSM   H18U14673   4.403   6.230   8.739 -0.3214  0.1929  0.9537
  135OSM    C1F14674   5.053   6.651   6.913  0.5552  0.1258  0.1025
  135OSM     OF14675   5.011   6.749   6.849  0.1654 -0.4074  0.8673
  135OSM    C2F14676   5.188   6.664   6.992  1.3271 -0.9449  0.2919
  135OSM    H2F14677   5.250   6.739   6.939 -0.3901 -0.4181 -1.0097
  135OSM    H2G14678   5.240   6.566   6.983  6.5226  1.5557  1.2549
  135OSM    C3F14679   5.163   6.712   7.135  0.2041 -0.2263  0.2095
  135OSM    H3F14680   5.101   6.803   7.124 -2.2478 -1.8272  0.3173
  135OSM    H3G14681   5.265   6.728   7.176 -0.3135  2.0403  0.6425
  135OSM    C4F14682   5.069   6.629   7.218  0.1082 -0.2554  0.0316
  135OSM    H4F14683   5.061   6.527   7.175  1.1131 -0.2155 -0.2571
  135OSM    H4G14684   4.971   6.680   7.218  0.2294  0.0262 -2.4783
  135OSM    C5F14685   5.117   6.628   7.367  0.0256 -0.3978 -0.4919
  135OSM    H5F14686   5.155   6.731   7.385  1.0259 -0.8097 -0.2170
  135OSM    H5G14687   5.206   6.562   7.369 -0.7078 -1.4308 -1.7500
  135OSM    C6F14688   5.018   6.583   7.473  0.3131  0.0884 -0.1294
  135OSM    H6F14689   4.982   6.480   7.448 -1.3572  0.7010 -0.3229
  135OSM    H6G14690   4.931   6.650   7.455  0.2496 -0.8265 -3.5845
  135OSM    C7F14691   5.065   6.600   7.619  0.1894 -0.6629 -0.3216
  135OSM    H7F14692   5.121   6.696   7.627  0.8226 -0.9591 -1.0641
  135OSM    H7G14693   5.149   6.532   7.645  1.2549  0.3360 -1.0926
  135OSM    C8F14694   4.965   6.593   7.723  0.5462 -0.2841 -0.0372
  135OSM    H8F14695   4.925   6.489   7.726  0.6527 -0.2873  1.8068
  135OSM    H8G14696   4.882   6.663   7.698 -0.6544 -1.8720 -0.5576
  135OSM    C9F14697   5.013   6.625   7.866 -0.4659 -0.1917  0.7130
  135OSM    H9F14698   5.066   6.540   7.912 -0.7696  0.1555  1.7236
  135OSM   C10F14699   5.007   6.747   7.924  0.0104  0.3767 -0.7612
  135OSM   H10F14700   5.051   6.759   8.025  2.4520 -2.4025 -1.4177
  135OSM   C11F14701   4.950   6.874   7.864  0.4183 -0.4054 -0.1970
  135OSM   H11F14702   4.869   6.912   7.931  1.1352  0.3094  0.2756
  135OSM   H11G14703   4.913   6.858   7.761 -1.4086  0.3952  0.2982
  135OSM   C12F14704   5.053   6.990   7.858 -0.8374 -0.0707  0.1381
  135OSM   H12F14705   5.002   7.065   7.794 -0.4486 -1.1168 -1.4054
  135OSM   H12G14706   5.137   6.943   7.803  0.1520  1.3705  0.3495
  135OSM   C13F14707   5.098   7.045   7.993 -0.5141  0.6683 -1.4068
  135OSM   H13F14708   5.208   7.057   7.988 -0.3146  0.0813  0.8052
  135OSM   H13G14709   5.071   6.967   8.068 -0.3026  1.0991 -0.8753
  135OSM   C14F14710   5.039   7.177   8.033 -1.0531 -0.2720  0.1818
  135OSM   H14F14711   4.933   7.179   8.068 -0.8923  1.6051  0.6183
  135OSM   H14G14712   5.053   7.235   7.939  0.0193 -0.3346  0.3038
  135OSM   C15F14713   5.119   7.252   8.138  0.0120  0.2008 -0.3482
  135OSM   H15F14714   5.100   7.362   8.137 -1.5943 -0.0615 -0.8202
  135OSM   H15G14715   5.226   7.227   8.126  0.4040  0.2848  2.5987
  135OSM   C16F14716   5.083   7.208   8.285 -0.3389  0.1031 -0.3500
  135OSM   H16F14717   5.158   7.249   8.356 -0.0821 -0.6932 -0.1574
  135OSM   H16G14718   5.099   7.098   8.280  0.2446  0.1282  0.7480
  135OSM   C17F14719   4.939   7.242   8.331  0.2775  0.0625 -0.6183
  135OSM   H17F14720   4.933   7.202   8.435  0.4909 -2.3976 -1.5303
  135OSM   H17G14721   4.867   7.187   8.268 -0.7663  1.8627 -1.0191
  135OSM   C18F14722   4.901   7.395   8.356  0.1780  0.4505 -0.1162
  135OSM   H18F14723   4.961   7.436   8.440  0.5833 -0.8664  0.2444
  135OSM   H18G14724   4.792   7.409   8.372 -0.3297 -1.4549 -1.6725
  135OSM   H18H14725   4.934   7.454   8.267 -0.6878  0.4292 -0.4626
  136OSM      N14726   3.967   0.430   6.100  0.8708  1.0442 -0.0642
  136OSM    C1514727   3.878   0.413   5.987  0.6212  0.0436  0.8040
  136OSM   H15A14728   3.897   0.321   5.932 -0.7861 -0.1785  0.6573
  136OSM   H15B14729   3.903   0.487   5.912 -0.4039  2.3540  2.6918
  136OSM   H15C14730   3.777   0.415   6.025  1.1225 -0.4887  2.1950
  136OSM    C1414731   3.981   0.299   6.170  0.0531 -0.0670  1.3327
  136OSM   H14A14732   4.039   0.318   6.259 -1.5457 -1.4428  2.6780
  136OSM   H14B14733   4.045   0.229   6.118 -0.2089 -0.3252  1.3635
  136OSM   H14C14734   3.888   0.251   6.194 -0.4888  0.1852 -0.1744
  136OSM    C1314735   4.100   0.469   6.047  0.5478  0.6201  0.2438
  136OSM   H13A14736   4.124   0.403   5.964 -0.4940  1.6921 -0.9246
  136OSM   H13B14737   4.176   0.461   6.123 -0.0117 -1.4087  0.6282
  136OSM   H13C14738   4.107   0.572   6.016 -2.1006  0.9218  0.5880
  136OSM    C1214739   3.909   0.534   6.201  0.2558 -0.7062  0.8069
  136OSM   H12A14740   3.879   0.623   6.148  0.6216 -0.7138  0.5853
  136OSM   H12B14741   3.990   0.562   6.267 -0.9218  1.2076  1.4700
  136OSM    C1114742   3.782   0.497   6.290  0.5397 -0.3055 -0.2039
  136OSM   H11A14743   3.761   0.570   6.371  0.9794 -0.1799 -0.2035
  136OSM   H11B14744   3.802   0.408   6.354  2.7883  0.0587 -0.3833
  136OSM      P14745   3.582   0.578   6.144  0.4262 -0.3103  0.4059
  136OSM    O1314746   3.679   0.666   6.070  0.3904 -0.1931  0.5475
  136OSM    O1414747   3.468   0.520   6.061 -0.0277 -0.3841  0.1605
  136OSM    O1114748   3.525   0.656   6.267  0.3022  0.5088 -0.2390
  136OSM    O1214749   3.668   0.461   6.207  0.4333 -0.1131  0.1596
  136OSM    C1S14750   3.440   0.585   6.361  1.2008 -0.9858  0.3006
  136OSM    H1S14751   3.489   0.493   6.400  2.3313  0.2862  1.9727
  136OSM    H1T14752   3.340   0.564   6.319  0.5685  1.8488  0.3095
  136OSM     NF14753   3.313   0.607   6.579 -0.2759  0.9716 -0.2743
  136OSM    HNF14754   3.216   0.628   6.578  0.0046  2.3276  0.0565
  136OSM    C2S14755   3.407   0.673   6.489 -0.3941 -0.0564  0.4178
  136OSM    H2S14756   3.498   0.691   6.550 -0.0834  2.0316 -0.6058
  136OSM    C3S14757   3.356   0.821   6.448  0.5548 -0.0830 -0.6635
  136OSM    H3S14758   3.260   0.810   6.393 -1.1805 -1.3767  2.5070
  136OSM     O314759   3.454   0.884   6.364  0.1837 -0.2253  0.2029
  136OSM    HO314760   3.516   0.812   6.358 -1.7574 -1.9592  0.3799
  136OSM    C4S14761   3.328   0.899   6.573 -0.5533 -0.1967 -0.2347
  136OSM    H4S14762   3.414   0.917   6.640  0.1331  1.5653 -1.5266
  136OSM    C5S14763   3.210   0.957   6.610  0.1015 -0.3335 -0.2307
  136OSM    H5S14764   3.116   0.927   6.562  0.6906  1.1521 -2.4110
  136OSM    C6S14765   3.207   1.040   6.736  0.0417  0.2912 -0.7705
  136OSM    H6S14766   3.163   1.142   6.735 -2.9338 -0.9149  0.2511
  136OSM    H6T14767   3.307   1.051   6.782 -1.0436 -0.4199  1.8586
  136OSM    C7S14768   3.128   0.967   6.848  0.2122 -0.2493 -0.0216
  136OSM    H7S14769   3.174   0.871   6.879  2.0860  0.6230 -0.0316
  136OSM    H7T14770   3.031   0.930   6.807  1.1744 -0.2386 -2.4223
  136OSM    C8S14771   3.101   1.053   6.968  0.2184  0.2762 -0.3353
  136OSM    H8S14772   3.029   1.133   6.940 -0.2746  0.1022  0.4316
  136OSM    H8T14773   3.193   1.100   7.010  0.4032 -0.2723 -0.1195
  136OSM    C9S14774   3.046   0.972   7.087 -0.3645  0.0614 -0.3190
  136OSM    H9S14775   3.095   0.872   7.092 -0.3738  0.0503 -0.4384
  136OSM    H9T14776   2.939   0.955   7.063 -0.1847 -0.0493 -1.0532
  136OSM   C10S14777   3.053   1.042   7.225  0.3122  0.5306  0.0489
  136OSM   H10S14778   2.989   1.132   7.227 -1.8933 -1.0152  1.5446
  136OSM   H10T14779   3.160   1.070   7.228  0.5978 -0.7018  2.3165
  136OSM   C11S14780   3.015   0.947   7.334  0.1505 -0.5305  0.2141
  136OSM   H11S14781   3.061   0.847   7.320 -2.7003 -1.8620 -0.0340
  136OSM   H11T14782   2.905   0.932   7.340 -0.4472  2.1269 -2.7630
  136OSM   C12S14783   3.066   0.989   7.473 -0.5404 -0.1367 -0.2640
  136OSM   H12S14784   3.177   0.990   7.463 -0.7048  0.7438 -2.1902
  136OSM   H12T14785   3.042   0.916   7.554 -0.6412  2.6033  2.2737
  136OSM   C13S14786   3.026   1.129   7.513  0.1712  0.0245 -0.6256
  136OSM   H13S14787   2.918   1.148   7.500  0.1915 -0.3530 -1.3941
  136OSM   H13T14788   3.083   1.196   7.445  0.0818  0.4397 -0.2935
  136OSM   C14S14789   3.070   1.166   7.661  0.5157  0.0872  0.7849
  136OSM   H14S14790   3.043   1.273   7.678  0.8268  0.5836 -1.5730
  136OSM   H14T14791   3.181   1.158   7.662  0.7346  2.3200 -0.2607
  136OSM   C15S14792   2.995   1.081   7.768 -0.2944  0.4085 -0.0666
  136OSM   H15S14793   2.988   0.977   7.729 -1.0515  0.6861 -0.6785
  136OSM   H15T14794   2.890   1.115   7.775 -0.8306 -0.8230 -1.7668
  136OSM   C16S14795   3.063   1.102   7.902 -0.3201  0.6087 -0.4141
  136OSM   H16S14796   2.990   1.122   7.983 -0.7900 -2.0690 -0.1262
  136OSM   H16T14797   3.131   1.190   7.911  1.0620 -0.4082 -0.6429
  136OSM   C17S14798   3.145   0.981   7.946  0.3959  0.5282 -1.1348
  136OSM   H17S14799   3.243   0.985   7.895  1.3551 -0.3578  0.6239
  136OSM   H17T14800   3.101   0.883   7.918 -0.9445  0.9553 -0.5760
  136OSM   C18S14801   3.174   0.995   8.090  0.5537 -0.0815 -0.3578
  136OSM   H18S14802   3.245   1.077   8.115  1.2384 -0.5799 -0.6590
  136OSM   H18T14803   3.220   0.898   8.119  1.1879  0.4708  0.5663
  136OSM   H18U14804   3.083   1.008   8.152  1.0753 -2.2619  0.9206
  136OSM    C1F14805   3.354   0.503   6.646 -0.1664  0.4315 -0.0641
  136OSM     OF14806   3.474   0.482   6.650 -0.5422  0.2119 -0.0949
  136OSM    C2F14807   3.248   0.413   6.704 -0.0172 -0.7479 -0.3315
  136OSM    H2F14808   3.256   0.310   6.663 -1.8279 -1.0061 -0.0498
  136OSM    H2G14809   3.149   0.457   6.683  0.4338  1.4790  1.9278
  136OSM    C3F14810   3.273   0.418   6.860 -0.3914  0.5554  0.4362
  136OSM    H3F14811   3.181   0.377   6.906  1.7261 -1.3804  3.0930
  136OSM    H3G14812   3.284   0.523   6.895  1.8832  0.8198 -0.9189
  136OSM    C4F14813   3.391   0.328   6.901  0.4146 -0.1562 -0.2191
  136OSM    H4F14814   3.490   0.371   6.872 -0.2636  0.6225 -1.4336
  136OSM    H4G14815   3.380   0.235   6.841  0.3536 -1.7979  2.3045
  136OSM    C5F14816   3.385   0.295   7.047 -0.3224 -0.1387  0.0931
  136OSM    H5F14817   3.478   0.238   7.072 -0.1338 -0.1508 -0.6174
  136OSM    H5G14818   3.295   0.236   7.074  0.9226 -1.1160  2.2365
  136OSM    C6F14819   3.389   0.417   7.139  0.2073 -0.0968  0.0949
  136OSM    H6F14820   3.302   0.481   7.110 -0.1901 -1.2053 -1.2095
  136OSM    H6G14821   3.488   0.467   7.148 -0.2398  0.6305  1.1016
  136OSM    C7F14822   3.365   0.372   7.285 -0.2989 -1.5275 -0.7099
  136OSM    H7F14823   3.423   0.281   7.312  1.6016 -0.2668 -0.4577
  136OSM    H7G14824   3.260   0.349   7.314 -0.2629 -1.2402 -0.3500
  136OSM    C8F14825   3.391   0.490   7.386 -0.2400 -0.4455  0.2414
  136OSM    H8F14826   3.495   0.523   7.364 -0.3001 -0.4552 -0.0567
  136OSM    H8G14827   3.398   0.437   7.483 -0.4271 -0.8818  0.0150
  136OSM    C9F14828   3.295   0.607   7.392 -0.5811 -0.4798  0.0657
  136OSM    H9F14829   3.303   0.683   7.313  1.8888 -1.5759 -0.7653
  136OSM   C10F14830   3.187   0.620   7.474  0.1147  0.0481 -0.6987
  136OSM   H10F14831   3.132   0.715   7.473 -1.4123 -0.8166 -1.0112
  136OSM   C11F14832   3.147   0.523   7.582  0.4907 -0.8159 -0.6514
  136OSM   H11F14833   3.177   0.417   7.566  0.7743 -0.9512  0.7234
  136OSM   H11G14834   3.037   0.519   7.601  1.0324  0.6999  3.0909
  136OSM   C12F14835   3.231   0.568   7.705  0.6812  0.1993  0.3759
  136OSM   H12F14836   3.174   0.649   7.755 -0.3237  0.1436 -0.6746
  136OSM   H12G14837   3.334   0.608   7.694 -0.2456  2.3001 -0.8217
  136OSM   C13F14838   3.247   0.449   7.804 -0.2121  0.0106  0.1484
  136OSM   H13F14839   3.141   0.413   7.812 -0.3690  0.2023 -1.0214
  136OSM   H13G14840   3.276   0.484   7.905 -0.9647  1.7260 -0.2165
  136OSM   C14F14841   3.355   0.343   7.758  1.0619 -0.2218  0.3249
  136OSM   H14F14842   3.441   0.407   7.728  0.1690  0.6344 -0.5102
  136OSM   H14G14843   3.305   0.297   7.670 -3.8762  1.9343  1.8264
  136OSM   C15F14844   3.393   0.237   7.862  0.0451 -0.4378  0.5399
  136OSM   H15F14845   3.459   0.169   7.804 -0.8263 -0.1441 -0.8158
  136OSM   H15G14846   3.299   0.186   7.891 -0.6323  0.0104 -0.8105
  136OSM   C16F14847   3.454   0.296   7.989  0.2339  0.3202 -1.2767
  136OSM   H16F14848   3.383   0.369   8.032  1.2283  0.4910  0.1085
  136OSM   H16G14849   3.550   0.350   7.975  0.7527  0.2685  1.7923
  136OSM   C17F14850   3.481   0.191   8.100  0.5699 -0.3933 -0.0184
  136OSM   H17F14851   3.564   0.122   8.076 -1.6681 -3.1011 -0.2919
  136OSM   H17G14852   3.386   0.133   8.104  1.0077 -1.1106 -0.1166
  136OSM   C18F14853   3.515   0.251   8.239  0.3911 -0.1142  0.4897
  136OSM   H18F14854   3.584   0.338   8.230  0.4958 -0.3215 -0.7423
  136OSM   H18G14855   3.545   0.169   8.307 -2.2891  0.4148  2.3905
  136OSM   H18H14856   3.422   0.286   8.289  0.0805  0.0034 -0.1679
  137OSM      N14857   5.616   5.743   6.430 -0.1995 -0.5760  0.5091
  137OSM    C1514858   5.493   5.758   6.334  0.0858 -0.2198  0.0805
  137OSM   H15A14859   5.463   5.860   6.319 -0.9514 -0.7048 -1.3344
  137OSM   H15B14860   5.413   5.690   6.361 -2.0941  2.1696 -0.1891
  137OSM   H15C14861   5.525   5.740   6.232  0.7537  0.7337  0.1200
  137OSM    C1414862   5.725   5.829   6.380 -0.5981  0.3702  0.4787
  137OSM   H14A14863   5.690   5.930   6.372 -0.0132  0.5552  0.2452
  137OSM   H14B14864   5.766   5.798   6.285  1.1888  0.9275  1.0585
  137OSM   H14C14865   5.814   5.824   6.440  0.4560 -2.4128 -1.2068
  137OSM    C1314866   5.572   5.800   6.565 -0.3577 -0.0093  0.2988
  137OSM   H13A14867   5.663   5.802   6.624  0.8485  0.3202 -1.5217
  137OSM   H13B14868   5.494   5.741   6.610  0.1892 -1.5520 -0.7213
  137OSM   H13C14869   5.545   5.905   6.562 -2.5884 -0.5977 -1.7823
  137OSM    C1214870   5.659   5.602   6.445  0.0484  0.0369 -0.5964
  137OSM   H12A14871   5.687   5.567   6.347 -1.0125  3.0093 -1.9976
  137OSM   H12B14872   5.570   5.546   6.468  0.6577 -0.6029  0.2805
  137OSM    C1114873   5.775   5.572   6.544  0.2527 -0.3071  0.1855
  137OSM   H11A14874   5.787   5.465   6.574 -0.3719  0.0192  1.6544
  137OSM   H11B14875   5.771   5.618   6.645  0.3328  1.5309 -0.6353
  137OSM      P14876   5.972   5.531   6.382 -0.3100  0.4154  0.1731
  137OSM    O1314877   5.875   5.461   6.290 -0.0041 -0.4280  0.0647
  137OSM    O1414878   6.079   5.606   6.316 -0.1211 -0.1520  0.2426
  137OSM    O1114879   6.037   5.425   6.470 -0.2317 -0.1614  0.0340
  137OSM    O1214880   5.899   5.615   6.489 -0.1414 -0.2750  0.4375
  137OSM    C1S14881   6.117   5.466   6.584  0.5572  0.8729  0.2236
  137OSM    H1S14882   6.134   5.575   6.597  1.5738  0.8468 -0.7567
  137OSM    H1T14883   6.220   5.422   6.585 -0.4417 -1.5555  1.6598
  137OSM     NF14884   6.113   5.468   6.837 -0.4524  0.2717  0.1418
  137OSM    HNF14885   6.182   5.406   6.875  1.6277  1.5664 -1.4170
  137OSM    C2S14886   6.041   5.431   6.721 -0.5812 -0.6923  0.1214
  137OSM    H2S14887   5.941   5.481   6.729 -0.1137  0.7643 -2.3495
  137OSM    C3S14888   6.017   5.273   6.722  0.4422  0.5607 -0.0006
  137OSM    H3S14889   6.110   5.215   6.705  1.2895  1.9419 -0.1707
  137OSM     O314890   5.924   5.233   6.620  0.2007  0.2589 -0.1376
  137OSM    HO314891   5.929   5.299   6.551  1.8284  1.3167  0.9672
  137OSM    C4S14892   5.972   5.222   6.862  0.7558 -0.1318  0.4582
  137OSM    H4S14893   6.054   5.204   6.934 -0.9608  0.8573  2.6868
  137OSM    C5S14894   5.845   5.198   6.901  0.0378  0.9032 -0.0220
  137OSM    H5S14895   5.773   5.211   6.819 -0.4051  2.1196  0.5461
  137OSM    C6S14896   5.780   5.152   7.036  0.1307  0.1837 -0.2526
  137OSM    H6S14897   5.716   5.063   7.027 -2.3180  1.7682  0.9427
  137OSM    H6T14898   5.716   5.234   7.075  0.8034  1.1070 -1.0790
  137OSM    C7S14899   5.887   5.107   7.147  0.6059 -0.8863 -0.6855
  137OSM    H7S14900   5.944   5.199   7.172 -0.3995  0.6030 -3.5934
  137OSM    H7T14901   5.948   5.021   7.113 -0.6950 -1.2900 -2.0382
  137OSM    C8S14902   5.811   5.061   7.278  0.6516 -0.1186  0.3502
  137OSM    H8S14903   5.763   4.961   7.267  0.1747  0.1021  0.3896
  137OSM    H8T14904   5.729   5.133   7.298  0.3147 -0.4948  0.3324
  137OSM    C9S14905   5.905   5.059   7.396  0.6062  0.5819  0.2234
  137OSM    H9S14906   5.986   4.996   7.353  0.4098  1.5901 -1.6814
  137OSM    H9T14907   5.870   4.996   7.481  3.8549  0.2545  1.4127
  137OSM   C10S14908   5.956   5.186   7.459  0.2560  0.5900  0.4620
  137OSM   H10S14909   5.881   5.236   7.523 -0.9143  0.1748 -0.5773
  137OSM   H10T14910   6.001   5.258   7.387  4.1041  0.4759  2.5913
  137OSM   C11S14911   6.064   5.157   7.571 -0.2275 -0.4898 -0.1284
  137OSM   H11S14912   6.119   5.252   7.588 -3.2330  1.3470 -0.4509
  137OSM   H11T14913   6.151   5.095   7.539  1.2961  0.6642  1.6480
  137OSM   C12S14914   6.018   5.127   7.711 -0.5236  0.0427 -0.3152
  137OSM   H12S14915   5.983   5.023   7.730  1.1304 -0.5470 -0.3995
  137OSM   H12T14916   5.927   5.186   7.735 -1.2493 -1.1129 -0.1955
  137OSM   C13S14917   6.125   5.170   7.815  0.3275 -0.5563 -0.3511
  137OSM   H13S14918   6.090   5.152   7.919  1.0737  1.0955  0.1905
  137OSM   H13T14919   6.132   5.280   7.818  2.5637 -0.6451 -1.4817
  137OSM   C14S14920   6.262   5.104   7.790  0.6936  0.2472  0.5651
  137OSM   H14S14921   6.295   5.141   7.691  1.1359 -3.3653 -0.7254
  137OSM   H14T14922   6.239   4.998   7.766 -1.6592  0.7386  0.5132
  137OSM   C15S14923   6.365   5.148   7.894  0.2935  0.3365 -0.5321
  137OSM   H15S14924   6.327   5.114   7.992 -1.5073  2.3670 -0.4868
  137OSM   H15T14925   6.368   5.259   7.902  1.0068  0.2463  0.4936
  137OSM   C16S14926   6.506   5.093   7.863 -0.0209 -0.9745 -0.1984
  137OSM   H16S14927   6.532   5.150   7.771  1.7905  2.1217  2.1377
  137OSM   H16T14928   6.509   4.989   7.825 -1.2902 -0.8061 -0.8037
  137OSM   C17S14929   6.623   5.111   7.955  0.1219 -0.7806  0.5283
  137OSM   H17S14930   6.621   5.042   8.043 -0.3036 -0.0497  1.0946
  137OSM   H17T14931   6.621   5.210   8.005 -2.8192  1.1901 -3.2103
  137OSM   C18S14932   6.752   5.094   7.866  0.3576  0.7686  0.0738
  137OSM   H18S14933   6.839   5.135   7.923  0.5026 -1.3246  1.4103
  137OSM   H18T14934   6.736   5.151   7.772 -0.6962  1.1056  0.4501
  137OSM   H18U14935   6.753   4.984   7.851 -0.4327  0.6418  0.8724
  137OSM    C1F14936   6.126   5.596   6.869 -0.5023 -0.3455 -0.6789
  137OSM     OF14937   6.080   5.683   6.798 -0.1749  0.2334 -0.0561
  137OSM    C2F14938   6.197   5.628   6.992 -0.2542 -0.2044 -0.6138
  137OSM    H2F14939   6.299   5.584   6.983 -0.1365 -0.5215  1.9483
  137OSM    H2G14940   6.142   5.580   7.076  2.0052 -0.5527  0.7095
  137OSM    C3F14941   6.200   5.779   7.036 -0.0857  0.5091 -0.7859
  137OSM    H3F14942   6.099   5.820   7.061 -0.5227 -0.6810 -0.5635
  137OSM    H3G14943   6.246   5.851   6.965 -2.4333  1.3157 -1.5357
  137OSM    C4F14944   6.264   5.784   7.175  0.2385  0.1988 -0.1238
  137OSM    H4F14945   6.372   5.764   7.156 -0.2647 -1.3505 -1.4473
  137OSM    H4G14946   6.225   5.711   7.248 -0.5251  0.9455  0.2180
  137OSM    C5F14947   6.247   5.922   7.247 -0.5024 -0.1458 -0.3018
  137OSM    H5F14948   6.138   5.929   7.264 -0.6794  3.2549 -2.3747
  137OSM    H5G14949   6.267   6.004   7.174 -2.7280  0.9208  0.2466
  137OSM    C6F14950   6.320   5.939   7.384  0.4881  0.4012  0.5527
  137OSM    H6F14951   6.430   5.953   7.377  0.8355 -2.2703  0.2846
  137OSM    H6G14952   6.298   5.845   7.439  1.2305  0.3692  0.8051
  137OSM    C7F14953   6.285   6.075   7.454 -0.9521 -0.3511 -0.0936
  137OSM    H7F14954   6.174   6.078   7.467 -1.4002 -2.5899 -2.7920
  137OSM    H7G14955   6.322   6.161   7.395 -0.4541 -1.6025 -1.6549
  137OSM    C8F14956   6.349   6.085   7.590  0.5440  0.2081 -0.8131
  137OSM    H8F14957   6.334   5.988   7.642 -0.0176  0.6208 -0.1934
  137OSM    H8G14958   6.291   6.164   7.642 -0.8590 -1.5511  0.3464
  137OSM    C9F14959   6.493   6.140   7.581  1.0674 -0.7085 -0.1238
  137OSM    H9F14960   6.546   6.088   7.500  0.2107 -0.1014 -1.0885
  137OSM   C10F14961   6.565   6.216   7.664 -0.2120 -0.2641  0.2439
  137OSM   H10F14962   6.669   6.243   7.640  0.4241 -3.5134 -0.9246
  137OSM   C11F14963   6.508   6.266   7.797 -0.0020 -0.7754  0.5293
  137OSM   H11F14964   6.407   6.226   7.819 -1.0335  2.7200  2.5186
  137OSM   H11G14965   6.513   6.377   7.798  2.6846 -0.8610  0.9067
  137OSM   C12F14966   6.609   6.222   7.911  0.3205 -0.3234  0.2166
  137OSM   H12F14967   6.576   6.280   8.000  0.4921 -1.6974  1.2094
  137OSM   H12G14968   6.711   6.251   7.880 -0.7273  0.6783 -2.4244
  137OSM   C13F14969   6.591   6.065   7.942 -0.9085  0.5533 -0.3230
  137OSM   H13F14970   6.619   6.013   7.848  0.3196  2.2819 -0.9429
  137OSM   H13G14971   6.493   6.022   7.968 -1.3168 -0.7269 -3.7216
  137OSM   C14F14972   6.688   6.025   8.046 -0.2888 -0.6166 -0.8164
  137OSM   H14F14973   6.785   6.068   8.015 -1.2751  1.1571 -1.5144
  137OSM   H14G14974   6.700   5.915   8.046  1.8669 -0.4152  0.8028
  137OSM   C15F14975   6.643   6.051   8.199  0.9874 -0.3056  0.0083
  137OSM   H15F14976   6.642   6.157   8.234 -0.9993  0.2131 -1.5103
  137OSM   H15G14977   6.710   6.004   8.273  0.7644  2.6448  2.1749
  137OSM   C16F14978   6.507   5.990   8.241  0.1045 -0.1265 -0.6222
  137OSM   H16F14979   6.501   5.886   8.202 -1.3456 -0.3099  0.0631
  137OSM   H16G14980   6.431   6.051   8.189  0.0733 -0.4313 -0.9396
  137OSM   C17F14981   6.482   6.003   8.395 -0.0517  0.7189  0.0006
  137OSM   H17F14982   6.456   6.110   8.404  3.4453  1.7026 -0.9301
  137OSM   H17G14983   6.573   5.975   8.451 -0.4928 -2.1515 -0.6210
  137OSM   C18F14984   6.368   5.922   8.454 -0.0555  0.6930 -0.0445
  137OSM   H18F14985   6.357   5.944   8.562  1.7647  2.1828 -0.1363
  137OSM   H18G14986   6.386   5.813   8.436 -0.6016  0.3683  1.3365
  137OSM   H18H14987   6.266   5.945   8.416 -0.0282 -1.1194 -1.3272
  138OSM      N14988   0.160   0.893   5.864  0.4551  0.5002 -0.7291
  138OSM    C1514989   0.156   0.745   5.882 -0.6093  0.0769 -0.7586
  138OSM   H15A14990   0.058   0.721   5.921 -0.6186 -0.5828 -1.1619
  138OSM   H15B14991   0.228   0.698   5.947  0.4958  0.0710 -1.9612
  138OSM   H15C14992   0.187   0.698   5.789  1.6321  0.5037 -0.2429
  138OSM    C1414993   0.046   0.933   5.767  0.0823  0.3759 -0.5846
  138OSM   H14A14994  -0.051   0.921   5.813 -0.8170 -1.0334 -2.7930
  138OSM   H14B14995   0.048   0.866   5.683 -0.6611 -0.0657 -0.2601
  138OSM   H14C14996   0.059   1.027   5.716 -1.5582  0.1381 -1.4662
  138OSM    C1314997   0.144   0.958   5.999  0.5613  0.3116  0.0352
  138OSM   H13A14998   0.044   0.955   6.041  1.0366  0.4013  1.1889
  138OSM   H13B14999   0.178   1.060   6.007  0.1516  0.5203 -0.8504
  138OSM   H13C15000   0.201   0.903   6.072 -2.0212 -0.2058  1.7578
  138OSM    C1215001   0.293   0.924   5.798 -0.1308 -0.7110  0.5617
  138OSM   H12A15002   0.292   1.027   5.764 -1.4427 -1.0871 -0.5792
  138OSM   H12B15003   0.300   0.865   5.708  1.0309  0.0592  0.1311
  138OSM    C1115004   0.428   0.903   5.878  0.4275 -0.5873  0.6614
  138OSM   H11A15005   0.421   0.964   5.970 -0.4794 -0.4173  0.4819
  138OSM   H11B15006   0.517   0.934   5.820 -0.9583  1.6989 -0.2863
  138OSM      P15007   0.569   0.719   5.999  0.1258 -0.1669 -0.1420
  138OSM    O1315008   0.584   0.575   6.011  0.1434  0.0925 -0.5239
  138OSM    O1415009   0.687   0.795   5.951  0.0861  0.3011 -0.1269
  138OSM    O1115010   0.524   0.787   6.137 -0.1962 -0.0445 -0.2291
  138OSM    O1215011   0.446   0.766   5.907  0.2160  0.2038 -0.0759
  138OSM    C1S15012   0.454   0.698   6.228  0.4500 -0.3004 -0.0917
  138OSM    H1S15013   0.514   0.608   6.254  0.0646 -0.5635 -0.1139
  138OSM    H1T15014   0.358   0.658   6.189  1.5350 -1.2003 -1.8668
  138OSM     NF15015   0.332   0.674   6.442  0.3463  0.4157 -0.0000
  138OSM    HNF15016   0.232   0.671   6.438  0.4100 -1.8493  0.0058
  138OSM    C2S15017   0.404   0.771   6.358 -0.2217  0.3978  0.1599
  138OSM    H2S15018   0.499   0.800   6.406  0.3527 -2.1269  0.6388
  138OSM    C3S15019   0.329   0.905   6.317  0.7084 -0.7809 -0.1758
  138OSM    H3S15020   0.236   0.889   6.258 -0.7594  1.3804  1.4595
  138OSM     O315021   0.409   0.994   6.245 -0.5037 -0.2515  0.1742
  138OSM    HO315022   0.476   0.933   6.213  0.3433  0.7595  0.0046
  138OSM    C4S15023   0.289   0.983   6.445  0.3093  0.2866  0.0889
  138OSM    H4S15024   0.382   1.019   6.491  0.9887  0.3734 -1.3299
  138OSM    C5S15025   0.163   1.001   6.486 -0.9375  1.2793  0.1458
  138OSM    H5S15026   0.078   0.958   6.431  0.6726 -0.8995 -0.7237
  138OSM    C6S15027   0.135   1.071   6.613  0.4738 -0.6314 -0.2425
  138OSM    H6S15028   0.121   1.003   6.699 -0.7654  0.7897  0.7069
  138OSM    H6T15029   0.043   1.133   6.614  1.7084  1.2442  0.8702
  138OSM    C7S15030   0.254   1.167   6.663  0.4330 -0.5313 -0.2741
  138OSM    H7S15031   0.286   1.234   6.581 -0.2898 -1.2831 -1.1807
  138OSM    H7T15032   0.348   1.117   6.694  0.8631  0.4963  0.0991
  138OSM    C8S15033   0.217   1.247   6.798  0.1830 -0.4169  0.3061
  138OSM    H8S15034   0.120   1.300   6.790 -0.2261 -1.5253 -2.4154
  138OSM    H8T15035   0.292   1.328   6.809  0.2402 -0.3661 -0.4781
  138OSM    C9S15036   0.216   1.147   6.921 -0.5571 -0.8007  0.1404
  138OSM    H9S15037   0.305   1.080   6.916  0.6321  0.9007 -2.5259
  138OSM    H9T15038   0.132   1.079   6.897  0.0439 -0.8711 -1.8670
  138OSM   C10S15039   0.212   1.221   7.056 -0.7472 -0.4418  0.8804
  138OSM   H10S15040   0.115   1.276   7.055 -0.2919  0.3676 -0.2885
  138OSM   H10T15041   0.300   1.289   7.053 -2.5981  1.9549 -1.6639
  138OSM   C11S15042   0.224   1.131   7.178 -0.2309 -0.1214  0.5473
  138OSM   H11S15043   0.296   1.050   7.154  1.2237  1.8686 -2.0533
  138OSM   H11T15044   0.123   1.096   7.206  0.5440 -2.3512  0.6292
  138OSM   C12S15045   0.291   1.205   7.296 -0.6213 -0.1099  0.8385
  138OSM   H12S15046   0.251   1.309   7.287  0.1492  0.0327 -1.2403
  138OSM   H12T15047   0.402   1.200   7.289 -0.6246 -0.1573  0.8238
  138OSM   C13S15048   0.259   1.146   7.426  0.5135  0.0052 -0.3685
  138OSM   H13S15049   0.255   1.036   7.443 -0.5051  0.3662  1.9015
  138OSM   H13T15050   0.156   1.181   7.448  1.0257  1.1556  0.2370
  138OSM   C14S15051   0.354   1.205   7.531  0.0402 -0.1347 -0.0030
  138OSM   H14S15052   0.358   1.315   7.514 -0.4184 -0.3792 -1.8003
  138OSM   H14T15053   0.455   1.162   7.510  0.2434  0.2702  0.1339
  138OSM   C15S15054   0.310   1.175   7.677 -0.9769  0.5858 -0.3272
  138OSM   H15S15055   0.276   1.070   7.681  1.1213 -0.1927 -1.9397
  138OSM   H15T15056   0.218   1.236   7.686 -0.5272  1.6036 -2.3096
  138OSM   C16S15057   0.424   1.199   7.782  0.4086 -0.3598 -0.1192
  138OSM   H16S15058   0.436   1.309   7.780 -1.3142 -0.1702 -0.5525
  138OSM   H16T15059   0.508   1.147   7.731  0.1818 -1.2850  0.4356
  138OSM   C17S15060   0.399   1.141   7.920 -0.5917 -0.0905  0.0870
  138OSM   H17S15061   0.495   1.158   7.973  0.7447 -1.4225 -1.8359
  138OSM   H17T15062   0.396   1.031   7.907  1.7889 -0.1085 -0.5739
  138OSM   C18S15063   0.278   1.197   7.995 -0.3981 -0.2010 -0.1003
  138OSM   H18S15064   0.313   1.292   8.042 -0.1904 -1.1917  1.8134
  138OSM   H18T15065   0.252   1.121   8.072  0.8382 -0.3680  0.1743
  138OSM   H18U15066   0.196   1.240   7.934 -2.2573 -0.8769  1.8487
  138OSM    C1F15067   0.391   0.576   6.509  0.0473 -0.3367  0.5170
  138OSM     OF15068   0.506   0.572   6.511 -0.3381 -0.1913  0.1468
  138OSM    C2F15069   0.301   0.484   6.586  0.2826  0.3490  0.2584
  138OSM    H2F15070   0.234   0.436   6.511  0.9819 -0.4250  0.1170
  138OSM    H2G15071   0.242   0.541   6.661  0.6976 -1.9602  2.3810
  138OSM    C3F15072   0.372   0.363   6.664  0.1902 -0.2186 -0.6596
  138OSM    H3F15073   0.464   0.392   6.719 -0.5035 -0.5641  0.7074
  138OSM    H3G15074   0.407   0.289   6.589  0.1757 -0.1427 -0.7422
  138OSM    C4F15075   0.279   0.279   6.747 -0.0821 -0.5743 -0.5113
  138OSM    H4F15076   0.334   0.195   6.794  0.2257  1.1699  2.3466
  138OSM    H4G15077   0.194   0.244   6.684 -1.4019  0.6487  0.5495
  138OSM    C5F15078   0.225   0.358   6.870  0.2136 -0.8556  0.3056
  138OSM    H5F15079   0.134   0.404   6.826  0.8744  0.1853  0.0134
  138OSM    H5G15080   0.304   0.435   6.888 -0.3209  0.9412 -4.2658
  138OSM    C6F15081   0.189   0.264   6.986 -0.2745  0.2337  0.8901
  138OSM    H6F15082   0.125   0.175   6.970 -0.0250 -0.1891  2.1610
  138OSM    H6G15083   0.134   0.329   7.058  1.6201  0.2598  2.3630
  138OSM    C7F15084   0.315   0.210   7.059 -0.2955  0.4323  0.5115
  138OSM    H7F15085   0.395   0.285   7.077  0.1333 -0.2766  1.6174
  138OSM    H7G15086   0.367   0.128   7.004 -0.5639  0.5431  0.0856
  138OSM    C8F15087   0.279   0.169   7.204  0.0795  1.1433 -0.6443
  138OSM    H8F15088   0.370   0.119   7.244 -0.4649 -1.0548 -2.0309
  138OSM    H8G15089   0.192   0.100   7.200 -2.3654  4.1477 -0.6419
  138OSM    C9F15090   0.252   0.290   7.288 -0.0575  0.4641  0.7237
  138OSM    H9F15091   0.215   0.381   7.239 -1.3916 -0.6053 -0.3061
  138OSM   C10F15092   0.278   0.297   7.419  0.4886 -0.7973  0.0732
  138OSM   H10F15093   0.238   0.382   7.476  0.4231 -0.9315  0.2269
  138OSM   C11F15094   0.341   0.196   7.509  0.6674  0.1405 -0.2052
  138OSM   H11F15095   0.358   0.102   7.452  1.3767 -0.1992  0.5714
  138OSM   H11G15096   0.274   0.170   7.593  1.0637  2.0598  0.7477
  138OSM   C12F15097   0.487   0.230   7.553 -0.7539  0.9310 -0.3558
  138OSM   H12F15098   0.493   0.339   7.572  0.3711  0.4866  1.9803
  138OSM   H12G15099   0.555   0.209   7.467 -2.9921 -1.9478 -1.5083
  138OSM   C13F15100   0.532   0.146   7.675  0.4148  0.0411  0.3418
  138OSM   H13F15101   0.525   0.037   7.655  0.5109 -0.0110  0.5924
  138OSM   H13G15102   0.459   0.162   7.757  1.1579 -1.1499  1.2317
  138OSM   C14F15103   0.678   0.167   7.723 -0.0645  0.0654  0.7229
  138OSM   H14F15104   0.708   0.268   7.758  2.1123 -0.0577 -0.6624
  138OSM   H14G15105   0.741   0.135   7.638  0.4701  0.4186  0.9830
  138OSM   C15F15106   0.704   0.069   7.841  0.2185  0.3549 -0.4951
  138OSM   H15F15107   0.813   0.071   7.862  0.7556 -0.1904 -3.0571
  138OSM   H15G15108   0.682  -0.035   7.811 -0.1877 -0.0424  1.1177
  138OSM   C16F15109   0.622   0.108   7.966 -0.0612 -0.1680  0.2883
  138OSM   H16F15110   0.514   0.103   7.942  0.1968 -0.7888 -0.7913
  138OSM   H16G15111   0.642   0.210   8.005 -0.4580 -0.2406  0.6923
  138OSM   C17F15112   0.651   0.001   8.079  0.4241  0.8493  0.0298
  138OSM   H17F15113   0.760   0.005   8.101 -0.1800 -1.5477  4.0133
  138OSM   H17G15114   0.628  -0.096   8.028  0.1686  1.7246 -1.5563
  138OSM   C18F15115   0.576   0.013   8.211 -0.0917 -0.3374  0.7953
  138OSM   H18F15116   0.631  -0.049   8.286  2.8067  0.8080 -0.2963
  138OSM   H18G15117   0.468  -0.012   8.206  0.1317 -1.3024  0.7945
  138OSM   H18H15118   0.593   0.114   8.254 -0.3561 -0.2233  0.6309
  139OSM      N15119   5.943   1.387   5.910 -0.7871 -0.0930 -0.8312
  139OSM    C1515120   5.996   1.247   5.887  0.2242 -0.1804  0.3633
  139OSM   H15A15121   5.966   1.187   5.802  0.1888  1.3763 -0.7354
  139OSM   H15B15122   5.965   1.190   5.973 -0.1864 -0.0118  0.3250
  139OSM   H15C15123   6.104   1.253   5.887  0.3056  0.0624 -4.2306
  139OSM    C1415124   6.000   1.479   5.803 -0.4584  0.0671 -0.1482
  139OSM   H14A15125   5.981   1.584   5.819  1.3319  0.8067 -2.5874
  139OSM   H14B15126   5.965   1.439   5.709 -1.2450  1.7918 -0.5988
  139OSM   H14C15127   6.105   1.454   5.797 -0.2322  1.0463 -0.3456
  139OSM    C1315128   5.797   1.395   5.900  0.1578  0.2958 -0.0361
  139OSM   H13A15129   5.757   1.376   5.802  1.3545  2.1668 -0.9121
  139OSM   H13B15130   5.748   1.483   5.938 -0.4692  0.4232 -1.1289
  139OSM   H13C15131   5.765   1.304   5.949 -0.3096  0.6457  0.3142
  139OSM    C1215132   5.981   1.435   6.046 -0.4030  0.4719  1.0519
  139OSM   H12A15133   5.955   1.539   6.057 -2.4286  0.0014  0.7808
  139OSM   H12B15134   6.089   1.430   6.052 -0.1741 -0.3419 -2.6363
  139OSM    C1115135   5.924   1.374   6.175 -0.5500 -0.5785 -0.3052
  139OSM   H11A15136   5.817   1.401   6.180  0.0960  2.0835 -0.1926
  139OSM   H11B15137   5.981   1.419   6.258  0.3350  0.2333 -1.3361
  139OSM      P15138   6.074   1.176   6.248  0.2129  0.0681 -0.0825
  139OSM    O1315139   6.079   1.032   6.222  0.2965  0.3057 -0.0760
  139OSM    O1415140   6.197   1.250   6.218 -0.5349  0.0735 -0.0424
  139OSM    O1115141   6.030   1.203   6.399  0.2541 -0.3138 -0.1191
  139OSM    O1215142   5.945   1.233   6.178 -0.3786 -0.0677  0.4114
  139OSM    C1S15143   6.094   1.291   6.489  0.5767  0.1666  0.4271
  139OSM    H1S15144   6.169   1.352   6.434 -0.1281  0.0617 -0.6576
  139OSM    H1T15145   6.161   1.233   6.556  0.4595 -1.3644 -0.7819
  139OSM     NF15146   6.080   1.442   6.677  0.3873  0.1192  0.3609
  139OSM    HNF15147   6.096   1.416   6.772  1.4889  0.8698  0.3940
  139OSM    C2S15148   6.000   1.360   6.586 -0.0097 -0.4409  0.1666
  139OSM    H2S15149   5.936   1.421   6.519  2.0813  2.2216  0.4990
  139OSM    C3S15150   5.919   1.245   6.664 -0.0700 -0.1328  0.5437
  139OSM    H3S15151   5.987   1.187   6.731 -1.2231 -0.4037  1.4926
  139OSM     O315152   5.860   1.153   6.576  0.0807  0.0939 -0.2162
  139OSM    HO315153   5.919   1.143   6.501  1.2659  1.2923  0.5345
  139OSM    C4S15154   5.806   1.316   6.747 -1.1779  0.2229  0.2415
  139OSM    H4S15155   5.744   1.387   6.690 -1.2143  1.0322  1.2675
  139OSM    C5S15156   5.772   1.307   6.876  0.2860  0.2357 -0.0104
  139OSM    H5S15157   5.826   1.235   6.939 -1.8575 -2.1403 -0.8209
  139OSM    C6S15158   5.659   1.380   6.936  1.3211  0.3555 -0.2336
  139OSM    H6S15159   5.600   1.302   6.990  2.4735  2.0783  3.7111
  139OSM    H6T15160   5.589   1.438   6.872 -0.4679  0.3045  1.6273
  139OSM    C7S15161   5.709   1.483   7.046  0.5652 -0.5488  0.5775
  139OSM    H7S15162   5.614   1.529   7.079  0.9151  1.6743 -1.3231
  139OSM    H7T15163   5.764   1.573   7.011  2.7536 -1.1082  2.4452
  139OSM    C8S15164   5.785   1.417   7.173 -0.0119  0.0325 -0.2388
  139OSM    H8S15165   5.884   1.392   7.130  0.9808  1.2281  1.3123
  139OSM    H8T15166   5.718   1.333   7.201 -1.5633  1.5035  0.6237
  139OSM    C9S15167   5.801   1.508   7.294 -0.3721 -0.2504 -0.1725
  139OSM    H9S15168   5.698   1.530   7.329 -0.8121  0.5758 -1.9351
  139OSM    H9T15169   5.856   1.596   7.255 -0.9225  0.3000  0.2833
  139OSM   C10S15170   5.887   1.434   7.398  0.0917 -0.1508 -0.0808
  139OSM   H10S15171   5.983   1.409   7.348  0.6711  0.0062  0.9462
  139OSM   H10T15172   5.852   1.332   7.425 -1.9396  0.2199 -1.1841
  139OSM   C11S15173   5.910   1.517   7.532 -0.4237 -0.2223  0.0401
  139OSM   H11S15174   5.810   1.521   7.580 -0.7040  1.3312 -0.6301
  139OSM   H11T15175   5.948   1.616   7.499  2.1424 -1.3440 -0.5373
  139OSM   C12S15176   6.015   1.457   7.619  0.0231  0.5751  0.0114
  139OSM   H12S15177   6.103   1.415   7.565 -0.0635 -0.1303  0.4106
  139OSM   H12T15178   5.973   1.364   7.663 -0.6118  1.3944  1.1777
  139OSM   C13S15179   6.051   1.546   7.731 -0.2145  0.7391 -0.0877
  139OSM   H13S15180   5.962   1.565   7.795  0.1590 -2.0942  1.3872
  139OSM   H13T15181   6.075   1.647   7.694 -1.0510  1.0872  0.3028
  139OSM   C14S15182   6.155   1.496   7.824 -0.0005 -0.6755  0.1431
  139OSM   H14S15183   6.244   1.473   7.761  0.1628  1.0703 -0.2984
  139OSM   H14T15184   6.126   1.407   7.884 -2.9562 -0.1484 -0.4405
  139OSM   C15S15185   6.194   1.605   7.927  0.1736 -0.0239  0.2314
  139OSM   H15S15186   6.111   1.641   7.992 -0.3604 -1.0996  0.1579
  139OSM   H15T15187   6.218   1.688   7.856 -1.0005  0.2386  0.1326
  139OSM   C16S15188   6.315   1.559   8.014  0.3600 -0.3960 -0.1209
  139OSM   H16S15189   6.343   1.650   8.071  0.5205 -1.6435  1.8658
  139OSM   H16T15190   6.401   1.545   7.946  0.6934 -1.5276  0.5121
  139OSM   C17S15191   6.288   1.450   8.116  0.3994 -0.7262 -0.3211
  139OSM   H17S15192   6.388   1.442   8.163  1.5249 -1.1977 -2.6700
  139OSM   H17T15193   6.268   1.353   8.065 -0.3147  0.0817 -1.6172
  139OSM   C18S15194   6.186   1.489   8.221 -0.5177  0.1099 -0.1269
  139OSM   H18S15195   6.217   1.589   8.259 -1.7242  0.4078  0.0766
  139OSM   H18T15196   6.180   1.424   8.310 -0.0902  1.7434  1.1265
  139OSM   H18U15197   6.086   1.496   8.173 -0.1742  1.3069 -0.6995
  139OSM    C1F15198   6.126   1.561   6.640 -0.6648  0.4057  0.7588
  139OSM     OF15199   6.112   1.602   6.524 -0.1451  0.1318 -0.0595
  139OSM    C2F15200   6.219   1.636   6.739  0.4539  0.0704 -0.2201
  139OSM    H2F15201   6.289   1.702   6.684 -0.3041  2.4214  1.5728
  139OSM    H2G15202   6.276   1.559   6.795 -1.2695 -2.4404 -1.7888
  139OSM    C3F15203   6.143   1.720   6.837  0.1439  0.2973 -0.4239
  139OSM    H3F15204   6.079   1.656   6.901  0.3591 -0.5834 -1.0837
  139OSM    H3G15205   6.076   1.790   6.782  1.0329  1.9199  0.5199
  139OSM    C4F15206   6.239   1.807   6.921  0.2573  0.4385 -0.6102
  139OSM    H4F15207   6.324   1.854   6.866  1.2602  0.0754  0.5965
  139OSM    H4G15208   6.280   1.733   6.993  0.2742  0.0440 -1.0252
  139OSM    C5F15209   6.168   1.913   7.006  0.0473  0.1695 -0.2443
  139OSM    H5F15210   6.064   1.888   7.036 -0.4138  1.2848 -0.8600
  139OSM    H5G15211   6.166   2.007   6.946 -2.0298  2.3653  3.1112
  139OSM    C6F15212   6.263   1.941   7.128  0.2047  0.1680 -0.2204
  139OSM    H6F15213   6.248   2.047   7.158 -0.3508 -0.3172  1.2793
  139OSM    H6G15214   6.369   1.950   7.097  0.0241 -1.8280 -1.4864
  139OSM    C7F15215   6.244   1.855   7.254  0.1041  0.9426  0.0692
  139OSM    H7F15216   6.277   1.757   7.214 -2.4500  0.5485 -1.2025
  139OSM    H7G15217   6.136   1.854   7.280  0.4057 -0.3364  1.3339
  139OSM    C8F15218   6.319   1.905   7.377 -0.1519 -0.3668  0.1208
  139OSM    H8F15219   6.279   2.006   7.401  1.2414 -0.0324  1.0729
  139OSM    H8G15220   6.424   1.922   7.345  0.4558  0.3828  2.4378
  139OSM    C9F15221   6.292   1.799   7.483 -0.0748  1.1436 -0.1086
  139OSM    H9F15222   6.195   1.748   7.481  0.9325 -0.7658 -1.9741
  139OSM   C10F15223   6.380   1.760   7.572  0.3599  0.5708  0.1818
  139OSM   H10F15224   6.344   1.695   7.653  3.3783 -1.3296  0.0530
  139OSM   C11F15225   6.513   1.816   7.597 -0.4467 -0.3440  0.3662
  139OSM   H11F15226   6.538   1.906   7.537  1.2490 -0.2778  1.1482
  139OSM   H11G15227   6.581   1.731   7.573  1.4417  1.5960 -1.2910
  139OSM   C12F15228   6.515   1.853   7.749 -0.0062 -0.0820 -0.0322
  139OSM   H12F15229   6.538   1.761   7.806  1.2852 -1.0245 -2.0135
  139OSM   H12G15230   6.414   1.893   7.775  0.5301  0.8423  0.6345
  139OSM   C13F15231   6.625   1.958   7.783  0.2978  0.8909  0.4680
  139OSM   H13F15232   6.604   2.051   7.725  1.7290  0.4778 -0.7241
  139OSM   H13G15233   6.726   1.916   7.763 -0.8210 -2.6218  1.8274
  139OSM   C14F15234   6.625   1.996   7.941 -0.2158 -0.0467 -0.2363
  139OSM   H14F15235   6.644   1.908   8.005 -0.3759  0.5097  0.5834
  139OSM   H14G15236   6.525   2.042   7.957  0.8394  1.6300  1.7711
  139OSM   C15F15237   6.720   2.113   7.954  0.9184 -0.1973 -0.2490
  139OSM   H15F15238   6.706   2.197   7.883 -0.0923  0.8672  1.1911
  139OSM   H15G15239   6.827   2.081   7.949  1.1649  0.5898 -0.0971
  139OSM   C16F15240   6.717   2.170   8.094 -0.2843 -0.3888 -0.4500
  139OSM   H16F15241   6.613   2.202   8.117 -0.2217 -0.7954  0.4539
  139OSM   H16G15242   6.784   2.258   8.103  0.5740 -1.0444 -0.3732
  139OSM   C17F15243   6.755   2.065   8.203 -0.4688  0.2542  0.4517
  139OSM   H17F15244   6.831   1.996   8.161  1.9120  2.5256  0.8837
  139OSM   H17G15245   6.669   2.000   8.229 -1.7234  1.6059 -0.2160
  139OSM   C18F15246   6.815   2.128   8.328  0.0610 -0.5399  0.6085
  139OSM   H18F15247   6.796   2.060   8.415  1.2716 -1.8914 -0.1665
  139OSM   H18G15248   6.775   2.226   8.361 -0.0278 -0.2971 -0.2095
  139OSM   H18H15249   6.926   2.126   8.328  0.0730 -0.1181 -0.5541
  140OSM      N15250   6.250   3.434   6.020  0.2360  0.0579  0.2975
  140OSM    C1515251   6.316   3.304   6.052  0.7519 -0.3886  0.1021
  140OSM   H15A15252   6.370   3.318   6.144 -3.4018 -1.2702  2.8271
  140OSM   H15B15253   6.378   3.275   5.969  0.4164  1.0893 -0.6765
  140OSM   H15C15254   6.243   3.225   6.067  1.3169 -1.0362 -0.5101
  140OSM    C1415255   6.359   3.531   6.004 -0.3576  0.0102  0.9578
  140OSM   H14A15256   6.391   3.549   6.106 -2.2294  1.7981  1.2742
  140OSM   H14B15257   6.327   3.623   5.958 -0.9660 -0.6701  0.0225
  140OSM   H14C15258   6.445   3.495   5.949 -1.1954 -3.1590  1.6545
  140OSM    C1315259   6.178   3.431   5.890  0.1322  0.4852  0.4133
  140OSM   H13A15260   6.091   3.368   5.898  0.1620  0.2162 -1.1598
  140OSM   H13B15261   6.236   3.401   5.804 -1.0178 -1.8836  0.4180
  140OSM   H13C15262   6.137   3.527   5.862  1.6756  1.3318  1.0080
  140OSM    C1215263   6.150   3.474   6.124 -0.4360 -0.0125 -0.0616
  140OSM   H12A15264   6.065   3.410   6.108 -0.4716  0.2891 -1.1245
  140OSM   H12B15265   6.117   3.576   6.111  1.7026  0.5664 -1.2103
  140OSM    C1115266   6.195   3.474   6.272  0.6323  0.2561  0.3779
  140OSM   H11A15267   6.217   3.367   6.291  0.2703 -0.4603 -2.8846
  140OSM   H11B15268   6.104   3.501   6.330 -1.2994 -2.0020 -1.4964
  140OSM      P15269   6.311   3.707   6.323 -0.2715  0.3240 -0.2268
  140OSM    O1315270   6.452   3.753   6.319  0.1055 -0.8266 -0.3027
  140OSM    O1415271   6.218   3.782   6.240 -0.1916 -0.2388 -0.2267
  140OSM    O1115272   6.261   3.692   6.475  0.3263 -0.1411 -0.1842
  140OSM    O1215273   6.309   3.559   6.286 -0.7714  0.1835  0.1423
  140OSM    C1S15274   6.329   3.601   6.567 -0.3681  0.2516  0.1364
  140OSM    H1S15275   6.432   3.641   6.575 -0.2606  0.0389 -0.1936
  140OSM    H1T15276   6.322   3.498   6.525  0.2872  0.2544  0.0143
  140OSM     NF15277   6.299   3.517   6.800  0.2099  0.0104 -0.0199
  140OSM    HNF15278   6.263   3.425   6.812 -0.1111 -0.0754 -1.5337
  140OSM    C2S15279   6.244   3.610   6.702  0.0924 -0.4471 -0.2564
  140OSM    H2S15280   6.245   3.716   6.737  0.9610 -1.2395  2.2242
  140OSM    C3S15281   6.090   3.595   6.673 -0.7522  0.5262  0.2694
  140OSM    H3S15282   6.082   3.491   6.635  0.9895 -0.1967  1.7727
  140OSM     O315283   6.025   3.675   6.588  0.0683 -0.5655  0.1786
  140OSM    HO315284   6.098   3.717   6.543 -0.2418 -0.4847 -0.2582
  140OSM    C4S15285   6.016   3.588   6.806  0.4115  0.0459  0.3640
  140OSM    H4S15286   5.989   3.486   6.839 -4.1017  0.1657 -2.4495
  140OSM    C5S15287   5.970   3.686   6.885 -0.7252  0.4620  0.4422
  140OSM    H5S15288   5.989   3.792   6.862  1.5566  0.4042  1.9254
  140OSM    C6S15289   5.905   3.656   7.021  0.3960  0.9382 -0.0642
  140OSM    H6S15290   5.823   3.590   6.987  1.8794 -0.4840 -0.9469
  140OSM    H6T15291   5.859   3.750   7.059  0.5818  0.8038  0.5010
  140OSM    C7S15292   5.992   3.578   7.124 -0.1384  0.0766  0.1182
  140OSM    H7S15293   6.075   3.640   7.163  0.5421 -1.7052  1.5749
  140OSM    H7T15294   6.032   3.484   7.081  1.0079 -0.1019  1.5435
  140OSM    C8S15295   5.913   3.543   7.256 -0.4798 -0.0450 -0.0801
  140OSM    H8S15296   5.849   3.461   7.217 -1.3009  0.6188 -0.1419
  140OSM    H8T15297   5.845   3.627   7.279 -0.9614 -0.0064 -1.5538
  140OSM    C9S15298   6.004   3.497   7.371 -0.0112 -0.5830  0.0518
  140OSM    H9S15299   6.071   3.585   7.381 -0.0367 -0.7225  1.6307
  140OSM    H9T15300   6.058   3.404   7.341  0.4943  0.2221 -1.5945
  140OSM   C10S15301   5.923   3.485   7.504 -0.1342 -0.2092 -0.3843
  140OSM   H10S15302   5.848   3.403   7.508  0.7943 -0.9418  4.1955
  140OSM   H10T15303   5.867   3.581   7.513  2.1080  0.9803  1.4914
  140OSM   C11S15304   6.016   3.480   7.626  0.7648 -0.7109 -0.0730
  140OSM   H11S15305   6.105   3.545   7.610  0.1280  0.4449  0.9511
  140OSM   H11T15306   6.045   3.374   7.639 -1.2173 -0.9622  2.5173
  140OSM   C12S15307   5.935   3.521   7.743  0.4084 -0.6473  0.5078
  140OSM   H12S15308   5.843   3.463   7.765 -0.2092 -0.4238 -1.4407
  140OSM   H12T15309   5.890   3.620   7.721  1.8918  0.1054  0.7871
  140OSM   C13S15310   6.021   3.525   7.870 -0.3871 -0.6968 -0.4460
  140OSM   H13S15311   6.078   3.621   7.860  1.1741 -1.5849 -0.2865
  140OSM   H13T15312   6.093   3.441   7.879  1.8070  1.1938  0.4030
  140OSM   C14S15313   5.934   3.526   7.993 -0.0547  0.3478 -0.3921
  140OSM   H14S15314   5.860   3.443   7.996  0.8463 -0.4378  0.5066
  140OSM   H14T15315   5.885   3.625   8.004  4.2080  2.4344  1.1886
  140OSM   C15S15316   6.017   3.511   8.121  0.9728 -0.1190  0.0063
  140OSM   H15S15317   6.101   3.583   8.124  2.1381 -1.4471 -0.3071
  140OSM   H15T15318   6.073   3.415   8.111  2.1012  0.3793  1.3303
  140OSM   C16S15319   5.943   3.524   8.251 -0.2064  0.4334  0.6373
  140OSM   H16S15320   5.863   3.447   8.260 -1.0063  1.2750  0.7791
  140OSM   H16T15321   5.893   3.623   8.257 -0.5276  0.3258 -0.2236
  140OSM   C17S15322   6.032   3.514   8.369 -0.0544  0.5726  0.1839
  140OSM   H17S15323   6.119   3.455   8.333  0.3136  2.0468 -1.3900
  140OSM   H17T15324   5.982   3.465   8.456  0.4227  0.0705  0.1813
  140OSM   C18S15325   6.078   3.647   8.422  0.1076  0.1116 -0.1731
  140OSM   H18S15326   6.121   3.704   8.338 -0.9386 -0.3538 -1.0369
  140OSM   H18T15327   6.152   3.637   8.504  1.4596  0.4869 -1.3373
  140OSM   H18U15328   5.999   3.707   8.473 -0.4321 -0.3877 -0.4122
  140OSM    C1F15329   6.414   3.550   6.855  0.1661 -0.2302 -0.6289
  140OSM     OF15330   6.477   3.651   6.812  0.4197 -0.5808 -0.2552
  140OSM    C2F15331   6.474   3.464   6.960 -0.7734 -0.3571  0.5708
  140OSM    H2F15332   6.581   3.486   6.985  0.2346 -2.2024 -1.9336
  140OSM    H2G15333   6.481   3.362   6.916  0.1507  0.1514 -0.4813
  140OSM    C3F15334   6.401   3.463   7.089  0.5904  0.1693 -0.0225
  140OSM    H3F15335   6.296   3.428   7.080 -0.0037  2.3933 -2.1749
  140OSM    H3G15336   6.386   3.561   7.139 -0.8233 -0.0515 -0.0027
  140OSM    C4F15337   6.469   3.366   7.189  0.4029  0.1521 -0.0329
  140OSM    H4F15338   6.562   3.413   7.227  0.8981 -1.7526  1.2024
  140OSM    H4G15339   6.489   3.270   7.137  0.9144  0.1410  0.1798
  140OSM    C5F15340   6.393   3.322   7.321 -1.0329 -0.0540 -0.5272
  140OSM    H5F15341   6.296   3.280   7.287 -0.5580  0.4809 -2.6294
  140OSM    H5G15342   6.371   3.417   7.374 -3.6395 -0.1695 -1.3073
  140OSM    C6F15343   6.467   3.220   7.414 -0.3590 -0.0637 -0.8640
  140OSM    H6F15344   6.564   3.265   7.443 -2.1619  1.5963  2.9824
  140OSM    H6G15345   6.498   3.129   7.360  0.3629  0.7999 -1.9184
  140OSM    C7F15346   6.385   3.180   7.538  0.1150  0.1975  0.1692
  140OSM    H7F15347   6.430   3.097   7.597  0.3666  1.8949  2.4360
  140OSM    H7G15348   6.282   3.146   7.513 -0.8880  0.4974  3.6122
  140OSM    C8F15349   6.382   3.296   7.650 -0.1076  0.2190  0.0497
  140OSM    H8F15350   6.330   3.385   7.610  0.9049  1.3851  1.2553
  140OSM    H8G15351   6.486   3.331   7.667 -0.2994  0.2732  1.1484
  140OSM    C9F15352   6.318   3.243   7.774  0.3059 -0.5903 -0.5045
  140OSM    H9F15353   6.243   3.167   7.751  0.6836 -1.0084 -0.3489
  140OSM   C10F15354   6.340   3.283   7.901 -0.4781 -0.3866 -0.3724
  140OSM   H10F15355   6.290   3.222   7.977 -0.3897  1.3332  1.0890
  140OSM   C11F15356   6.445   3.382   7.947  0.0131 -0.3987 -0.8634
  140OSM   H11F15357   6.392   3.479   7.949 -0.4086 -0.6278 -1.0456
  140OSM   H11G15358   6.522   3.407   7.871  0.1339 -0.1312 -0.6540
  140OSM   C12F15359   6.487   3.364   8.094  0.3080  0.1841 -0.3226
  140OSM   H12F15360   6.560   3.440   8.129 -0.9689  0.8945  0.8689
  140OSM   H12G15361   6.545   3.271   8.107  0.2357  0.1239 -0.4225
  140OSM   C13F15362   6.370   3.361   8.196 -0.8316 -0.1515 -0.2342
  140OSM   H13F15363   6.297   3.281   8.171 -1.4510  0.1892  0.4415
  140OSM   H13G15364   6.320   3.461   8.197 -0.4525  0.0402  1.7970
  140OSM   C14F15365   6.421   3.325   8.341  0.3439 -0.2894 -0.4830
  140OSM   H14F15366   6.500   3.247   8.331 -1.2590 -1.7924 -1.4579
  140OSM   H14G15367   6.341   3.283   8.405  0.5176 -0.8747 -0.6538
  140OSM   C15F15368   6.501   3.442   8.414  0.0360  0.6016 -0.4537
  140OSM   H15F15369   6.450   3.537   8.386 -0.6070  1.1084  2.2977
  140OSM   H15G15370   6.599   3.454   8.363  1.2818  2.5636  2.3069
  140OSM   C16F15371   6.523   3.423   8.560  0.6402  0.6153  0.3058
  140OSM   H16F15372   6.610   3.482   8.595  0.0443  1.9876 -0.4927
  140OSM   H16G15373   6.544   3.318   8.590 -0.3029  0.0098 -1.1109
  140OSM   C17F15374   6.399   3.465   8.644 -0.6501  0.2456  0.6819
  140OSM   H17F15375   6.309   3.414   8.602 -0.6147  0.9258 -0.2494
  140OSM   H17G15376   6.383   3.573   8.625 -0.5917  0.2078  0.4161
  140OSM   C18F15377   6.416   3.421   8.793  0.2839 -0.0753  0.1127
  140OSM   H18F15378   6.417   3.311   8.808 -0.8750 -0.0188  0.7180
  140OSM   H18G15379   6.342   3.474   8.858 -1.3810  1.4818 -2.9440
  140OSM   H18H15380   6.513   3.457   8.833 -0.0549 -0.1089  0.9758
  141OSM      N15381   5.020   4.861   6.149 -0.2969  0.4172  0.8332
  141OSM    C1515382   5.042   4.737   6.237 -0.2704 -0.0697  0.3686
  141OSM   H15A15383   5.115   4.669   6.195 -0.6384 -1.0879  1.3312
  141OSM   H15B15384   4.948   4.688   6.257 -1.8215  3.0948  1.0326
  141OSM   H15C15385   5.083   4.770   6.331 -1.4082  1.0828  0.4652
  141OSM    C1415386   5.155   4.908   6.099 -0.3062  0.5190 -0.1983
  141OSM   H14A15387   5.214   4.916   6.189  0.8056  0.8373 -0.9470
  141OSM   H14B15388   5.138   5.005   6.055  0.9122  0.9109  0.1758
  141OSM   H14C15389   5.194   4.831   6.034 -0.7511  0.3381 -0.2497
  141OSM    C1315390   4.920   4.825   6.037  0.0866 -0.6316 -0.3953
  141OSM   H13A15391   4.965   4.746   5.978 -0.0220  0.0972 -1.4556
  141OSM   H13B15392   4.898   4.909   5.973 -0.3771  1.8664  2.9091
  141OSM   H13C15393   4.830   4.791   6.087  0.4938 -0.6611  0.3194
  141OSM    C1215394   4.960   4.963   6.245  0.3068  0.9125  0.5196
  141OSM   H12A15395   5.039   5.002   6.308  0.6081  0.4470  0.4311
  141OSM   H12B15396   4.888   4.912   6.306 -0.3110  0.0112 -0.9507
  141OSM    C1115397   4.893   5.086   6.177 -0.1550  0.0869  0.1602
  141OSM   H11A15398   4.845   5.149   6.255 -0.4209 -0.7302  0.6576
  141OSM   H11B15399   4.808   5.056   6.112 -0.0032 -0.5307  0.2381
  141OSM      P15400   5.103   5.258   6.177  0.1919 -0.4745  0.0518
  141OSM    O1315401   5.229   5.252   6.103 -0.2915  0.2929  0.3948
  141OSM    O1415402   5.052   5.397   6.199  0.3853 -0.1930  0.2639
  141OSM    O1115403   5.131   5.193   6.315 -0.4889 -0.4561  0.0560
  141OSM    O1215404   4.993   5.164   6.099 -0.0463  0.4889 -0.1085
  141OSM    C1S15405   5.228   5.228   6.410  0.0949  0.1710  1.2587
  141OSM    H1S15406   5.301   5.302   6.372 -1.3274  0.4656 -0.9667
  141OSM    H1T15407   5.286   5.135   6.426 -0.5612 -0.9658 -2.4269
  141OSM     NF15408   5.279   5.291   6.641  0.7008 -1.0893  0.1893
  141OSM    HNF15409   5.295   5.215   6.704 -1.0273 -1.1470  0.5837
  141OSM    C2S15410   5.173   5.284   6.545  0.4877  0.4508  0.2653
  141OSM    H2S15411   5.129   5.383   6.521  0.6160 -0.1747 -2.6530
  141OSM    C3S15412   5.047   5.197   6.589 -0.5920  0.2458  0.1555
  141OSM    H3S15413   5.087   5.094   6.598 -1.4253 -0.3077 -2.1103
  141OSM     O315414   4.943   5.177   6.495 -0.2431  0.7015 -0.4475
  141OSM    HO315415   4.986   5.164   6.410  0.6608 -1.6037  0.3222
  141OSM    C4S15416   4.989   5.247   6.719 -1.0802 -0.2148 -0.3972
  141OSM    H4S15417   5.023   5.195   6.809  1.1878 -0.9590 -1.6489
  141OSM    C5S15418   4.892   5.342   6.729  0.1635 -0.3144  0.2385
  141OSM    H5S15419   4.844   5.392   6.644  0.1457  0.0589  0.4686
  141OSM    C6S15420   4.829   5.390   6.860 -0.3118 -0.5405 -0.0338
  141OSM    H6S15421   4.733   5.338   6.876 -1.1948  0.7992 -0.8354
  141OSM    H6T15422   4.810   5.500   6.858 -1.3246 -0.7111  0.1015
  141OSM    C7S15423   4.913   5.370   6.983  0.1999  0.2707 -0.2143
  141OSM    H7S15424   5.006   5.428   6.962  0.2102  0.2615 -0.1987
  141OSM    H7T15425   4.948   5.266   6.999 -2.4961 -0.5952  0.2485
  141OSM    C8S15426   4.856   5.409   7.119  0.2316 -0.4647 -0.0395
  141OSM    H8S15427   4.767   5.347   7.146 -1.5764  1.6160 -1.0334
  141OSM    H8T15428   4.827   5.516   7.118  0.7857 -0.2704  2.3996
  141OSM    C9S15429   4.973   5.381   7.223  0.1121  1.1111 -0.3662
  141OSM    H9S15430   5.062   5.434   7.184  1.8898  0.2902  2.4481
  141OSM    H9T15431   4.993   5.272   7.227 -1.9828  0.6806 -0.9120
  141OSM   C10S15432   4.934   5.428   7.361 -0.3889  0.1565  0.8935
  141OSM   H10S15433   4.827   5.409   7.382 -0.3034  0.2084  1.4033
  141OSM   H10T15434   4.945   5.538   7.357 -1.7577  0.2314 -1.0849
  141OSM   C11S15435   5.009   5.380   7.477  0.2157  0.8839 -0.5169
  141OSM   H11S15436   5.115   5.397   7.447  0.3863 -1.2774 -1.1766
  141OSM   H11T15437   4.985   5.273   7.491 -0.2108  0.9233 -0.9521
  141OSM   C12S15438   4.983   5.449   7.609 -0.1190  0.2128  0.7728
  141OSM   H12S15439   4.873   5.467   7.607 -0.2198 -0.4112  0.6963
  141OSM   H12T15440   5.031   5.549   7.604 -0.0756  0.1073 -1.6481
  141OSM   C13S15441   5.027   5.369   7.731 -0.1609  0.4605 -0.2231
  141OSM   H13S15442   5.133   5.341   7.712 -0.3234 -1.0113  0.9054
  141OSM   H13T15443   4.961   5.279   7.732 -0.7817  0.8709 -2.1552
  141OSM   C14S15444   5.007   5.443   7.866  0.4439 -0.4258 -0.2898
  141OSM   H14S15445   4.900   5.463   7.888  0.3540 -1.5229  0.2699
  141OSM   H14T15446   5.049   5.545   7.851 -0.4150  0.1969  1.3223
  141OSM   C15S15447   5.057   5.361   7.982 -0.1687  0.2001  0.3991
  141OSM   H15S15448   5.162   5.391   8.001  0.2790 -3.2120  4.0759
  141OSM   H15T15449   5.065   5.251   7.972  0.4450  0.4252 -1.7844
  141OSM   C16S15450   4.977   5.408   8.110  0.4362  0.5836  0.5394
  141OSM   H16S15451   4.871   5.376   8.099  0.6486  0.6733 -2.0463
  141OSM   H16T15452   4.980   5.519   8.119  1.0007  0.8180 -2.2574
  141OSM   C17S15453   5.018   5.346   8.244 -0.3820 -0.0328  0.1662
  141OSM   H17S15454   5.123   5.311   8.232  0.0446  1.1230  0.5137
  141OSM   H17T15455   4.963   5.252   8.269 -2.2295  0.7395 -0.9971
  141OSM   C18S15456   5.008   5.441   8.364 -0.0102  0.1721 -0.1220
  141OSM   H18S15457   5.081   5.524   8.346 -0.4297  0.5948  0.1200
  141OSM   H18T15458   5.028   5.388   8.460  0.8576  0.1687 -0.2997
  141OSM   H18U15459   4.910   5.492   8.360  0.3866  0.8486 -1.7557
  141OSM    C1F15460   5.369   5.391   6.641  0.8077  0.2760  0.0991
  141OSM     OF15461   5.348   5.480   6.562 -0.6859  0.7211 -0.1796
  141OSM    C2F15462   5.491   5.378   6.729  0.5540  0.6821 -0.5939
  141OSM    H2F15463   5.572   5.368   6.653  0.1967  0.6588 -0.9718
  141OSM    H2G15464   5.482   5.275   6.771 -0.7769  0.0233 -2.4230
  141OSM    C3F15465   5.511   5.498   6.825  0.5319 -0.0931  0.6850
  141OSM    H3F15466   5.443   5.482   6.911 -0.0653  0.2536  0.2762
  141OSM    H3G15467   5.475   5.584   6.765 -1.8815 -0.8921  0.9643
  141OSM    C4F15468   5.656   5.522   6.893 -0.0229  0.1067 -0.2463
  141OSM    H4F15469   5.739   5.531   6.820  2.2432 -0.1019  2.2604
  141OSM    H4G15470   5.678   5.429   6.949 -1.5273 -0.9165 -1.3156
  141OSM    C5F15471   5.663   5.631   6.997  0.2001  0.0757  0.2703
  141OSM    H5F15472   5.598   5.602   7.082  0.0407  0.8253  0.4106
  141OSM    H5G15473   5.620   5.724   6.953 -3.5935 -1.1071  1.2993
  141OSM    C6F15474   5.804   5.656   7.056 -0.0639 -0.2550 -0.0592
  141OSM    H6F15475   5.859   5.673   6.961 -2.2042 -0.2194 -1.3294
  141OSM    H6G15476   5.857   5.569   7.099  0.0323  0.1954  0.7466
  141OSM    C7F15477   5.809   5.772   7.158  0.3824  1.2080  0.4582
  141OSM    H7F15478   5.748   5.852   7.110  1.0868 -0.0719 -2.6671
  141OSM    H7G15479   5.915   5.799   7.177  1.7114 -4.1153  1.4577
  141OSM    C8F15480   5.744   5.739   7.298 -0.5346  0.7793 -0.4226
  141OSM    H8F15481   5.639   5.723   7.266 -0.3026  1.7447 -1.6830
  141OSM    H8G15482   5.742   5.829   7.364 -0.7069 -0.8678  1.8873
  141OSM    C9F15483   5.798   5.627   7.375 -0.0267 -0.8547  0.9964
  141OSM    H9F15484   5.827   5.538   7.317 -0.4672  0.2108 -0.9040
  141OSM   C10F15485   5.818   5.616   7.504 -0.1569 -0.3093  0.4538
  141OSM   H10F15486   5.865   5.525   7.544 -0.8441  0.4749  3.1380
  141OSM   C11F15487   5.795   5.717   7.611 -0.1160  0.2245  1.1087
  141OSM   H11F15488   5.733   5.675   7.693 -0.8309 -0.2393  0.3338
  141OSM   H11G15489   5.735   5.805   7.581 -0.1691 -0.4093 -0.6899
  141OSM   C12F15490   5.933   5.752   7.680 -0.4692 -0.4696  0.0691
  141OSM   H12F15491   5.994   5.810   7.608 -1.4659 -0.2748 -0.6315
  141OSM   H12G15492   5.984   5.655   7.699  2.0858  0.7314 -0.4938
  141OSM   C13F15493   5.931   5.821   7.819 -0.6451  0.0267 -0.5595
  141OSM   H13F15494   5.865   5.767   7.890  1.3559 -1.7731  0.0180
  141OSM   H13G15495   5.902   5.928   7.814 -0.2170  0.4008  3.4342
  141OSM   C14F15496   6.073   5.820   7.888 -0.4557  0.2300  0.0523
  141OSM   H14F15497   6.141   5.891   7.836  3.1053 -2.0984  1.3042
  141OSM   H14G15498   6.107   5.715   7.873 -3.6117 -0.8489  0.0589
  141OSM   C15F15499   6.059   5.854   8.034 -0.0355 -0.2551 -0.1296
  141OSM   H15F15500   5.982   5.787   8.078 -0.0905  0.8619  1.5162
  141OSM   H15G15501   6.031   5.961   8.040 -0.9934 -0.5635  1.3260
  141OSM   C16F15502   6.198   5.844   8.090  1.1117  0.4807  0.8667
  141OSM   H16F15503   6.207   5.918   8.172  1.1039  1.7558 -0.2580
  141OSM   H16G15504   6.270   5.887   8.017 -1.7456  0.8953 -1.8336
  141OSM   C17F15505   6.216   5.699   8.141  0.0867  0.0846 -0.1854
  141OSM   H17F15506   6.325   5.696   8.163  0.0105  0.8836  0.3329
  141OSM   H17G15507   6.197   5.620   8.065  0.4070  0.1419 -0.3263
  141OSM   C18F15508   6.152   5.657   8.267  0.0483  0.5842 -0.6977
  141OSM   H18F15509   6.204   5.696   8.358  0.5115 -1.1287 -0.2006
  141OSM   H18G15510   6.159   5.547   8.280 -0.5656  1.0401  4.7575
  141OSM   H18H15511   6.043   5.675   8.264  0.0215  0.2884 -1.3889
  142OSM      N15512   6.321   6.708   6.070  0.2737 -0.4952 -0.5492
  142OSM    C1515513   6.354   6.586   6.145  0.0135 -1.0782 -0.4725
  142OSM   H15A15514   6.444   6.547   6.100  0.1231 -0.8206 -0.4750
  142OSM   H15B15515   6.287   6.501   6.140  0.5061 -1.3751 -2.6753
  142OSM   H15C15516   6.367   6.610   6.249 -0.6139  2.3566 -1.1276
  142OSM    C1415517   6.439   6.803   6.081 -0.1787 -0.0398  0.2134
  142OSM   H14A15518   6.461   6.823   6.185 -0.6200 -0.6793  0.4342
  142OSM   H14B15519   6.414   6.901   6.044 -0.1800 -0.2563 -0.3592
  142OSM   H14C15520   6.530   6.767   6.035 -0.1449 -0.9181  0.9476
  142OSM    C1315521   6.316   6.661   5.923  0.8672  0.2307  0.3926
  142OSM   H13A15522   6.415   6.634   5.888  0.1378 -0.5435 -1.1475
  142OSM   H13B15523   6.288   6.746   5.863 -0.4559  0.0789  0.7848
  142OSM   H13C15524   6.249   6.578   5.904  0.5052  1.1236 -2.6417
  142OSM    C1215525   6.194   6.768   6.124  0.1700 -0.3443  0.0796
  142OSM   H12A15526   6.217   6.812   6.220 -0.6382 -2.0612  1.0953
  142OSM   H12B15527   6.119   6.692   6.144 -0.3468 -0.0302 -0.6329
  142OSM    C1115528   6.142   6.885   6.033  0.1120  0.7063  1.0226
  142OSM   H11A15529   6.040   6.897   6.075 -1.2754  1.0987 -2.3018
  142OSM   H11B15530   6.145   6.847   5.928 -0.5837  1.0189  0.8881
  142OSM      P15531   6.235   7.095   6.170 -0.0751 -0.0953  0.3966
  142OSM    O1315532   6.361   7.170   6.152 -0.2036  0.5218 -0.3837
  142OSM    O1415533   6.118   7.185   6.172 -0.3268 -0.0678 -0.0948
  142OSM    O1115534   6.238   7.008   6.300  0.4645  0.2147 -0.0629
  142OSM    O1215535   6.227   6.999   6.046  0.0349  0.3283  0.0388
  142OSM    C1S15536   6.288   7.071   6.421 -0.2286  0.4303  0.5132
  142OSM    H1S15537   6.301   7.182   6.417 -1.1103  0.5961  2.0706
  142OSM    H1T15538   6.392   7.035   6.440  0.1203  0.8259 -0.5831
  142OSM     NF15539   6.247   7.100   6.669 -0.2858  0.1059  0.4190
  142OSM    HNF15540   6.305   7.051   6.734  3.3292 -0.4503 -3.0426
  142OSM    C2S15541   6.199   7.034   6.547 -0.3306  0.1478  0.6939
  142OSM    H2S15542   6.090   7.050   6.531 -1.3655 -4.1852  2.6233
  142OSM    C3S15543   6.206   6.881   6.561 -0.6305 -0.5653 -0.2355
  142OSM    H3S15544   6.313   6.853   6.557 -0.0037  1.8196 -0.8490
  142OSM     O315545   6.153   6.813   6.446  0.9228  0.1590 -0.8197
  142OSM    HO315546   6.135   6.886   6.387  0.2121  0.5000 -0.1843
  142OSM    C4S15547   6.154   6.826   6.686 -0.2598 -0.0232  0.3604
  142OSM    H4S15548   6.054   6.851   6.724 -0.3243 -0.4725  0.4866
  142OSM    C5S15549   6.218   6.741   6.769  1.2013  0.5322 -0.2684
  142OSM    H5S15550   6.322   6.715   6.746  1.1871  2.1893 -2.3103
  142OSM    C6S15551   6.150   6.686   6.888  0.4950  0.0040  0.3453
  142OSM    H6S15552   6.175   6.578   6.900 -0.9231 -0.5597 -1.5504
  142OSM    H6T15553   6.042   6.693   6.862  0.5982  0.2539 -0.0193
  142OSM    C7S15554   6.185   6.765   7.011 -0.0639  0.6827 -0.8703
  142OSM    H7S15555   6.176   6.873   6.991 -0.9220  1.2519  2.3280
  142OSM    H7T15556   6.286   6.735   7.047 -0.8495 -0.1191  0.6851
  142OSM    C8S15557   6.084   6.738   7.116 -0.7255 -0.2755 -0.8097
  142OSM    H8S15558   6.105   6.638   7.161  3.1933 -0.1699 -2.2044
  142OSM    H8T15559   5.994   6.735   7.051 -0.7059 -0.9120 -0.8056
  142OSM    C9S15560   6.092   6.845   7.225  0.0296  0.6399  0.3095
  142OSM    H9S15561   6.073   6.942   7.174 -2.6240  0.0062  0.0092
  142OSM    H9T15562   6.198   6.849   7.257  0.3954 -2.3528 -0.4143
  142OSM   C10S15563   6.006   6.809   7.344 -0.4590 -0.3114 -0.1585
  142OSM   H10S15564   6.013   6.701   7.372  0.8259 -0.4216 -0.8622
  142OSM   H10T15565   5.902   6.827   7.309  0.3527 -0.0652 -2.5502
  142OSM   C11S15566   6.037   6.891   7.464 -0.9968 -0.5544 -0.1894
  142OSM   H11S15567   6.033   7.000   7.446 -0.4397 -0.4613  0.2638
  142OSM   H11T15568   6.145   6.869   7.481 -0.2175  1.8978 -1.7298
  142OSM   C12S15569   5.946   6.858   7.590  0.0195 -0.3058  0.2377
  142OSM   H12S15570   5.952   6.748   7.606  1.1446 -0.1831  0.6683
  142OSM   H12T15571   5.844   6.879   7.550 -0.3283 -0.8681  0.8243
  142OSM   C13S15572   5.970   6.939   7.717  0.2189  0.2783 -0.3284
  142OSM   H13S15573   5.938   7.044   7.704 -1.2246 -0.0198  0.6325
  142OSM   H13T15574   6.079   6.922   7.731 -0.1402 -3.3337 -1.2091
  142OSM   C14S15575   5.909   6.866   7.839 -0.0847  0.4727  0.3085
  142OSM   H14S15576   5.927   6.756   7.834 -1.0879  0.3319 -0.2602
  142OSM   H14T15577   5.798   6.865   7.837 -0.1567  3.5531  0.0405
  142OSM   C15S15578   5.968   6.928   7.961 -0.2368 -0.7438  0.0454
  142OSM   H15S15579   5.951   7.038   7.965 -1.6412 -0.8968 -1.3184
  142OSM   H15T15580   6.076   6.905   7.972  0.5639  1.6942 -2.3899
  142OSM   C16S15581   5.897   6.879   8.086 -0.2679  1.1244 -0.9144
  142OSM   H16S15582   5.920   6.772   8.110  0.3173  1.5515  0.4875
  142OSM   H16T15583   5.787   6.878   8.071 -0.2841  0.0609 -0.7709
  142OSM   C17S15584   5.930   6.957   8.219  0.1867  0.3672  0.7316
  142OSM   H17S15585   5.888   7.056   8.194  0.2286 -0.2185 -1.8170
  142OSM   H17T15586   6.041   6.960   8.216  0.2782 -2.1824 -0.1026
  142OSM   C18S15587   5.898   6.875   8.339  0.3307 -0.0750 -0.3077
  142OSM   H18S15588   5.966   6.901   8.424  0.7723 -2.6776  0.1935
  142OSM   H18T15589   5.918   6.769   8.311  0.8622 -0.4518  1.4253
  142OSM   H18U15590   5.793   6.897   8.367  1.2520  2.9337  1.0871
  142OSM    C1F15591   6.229   7.230   6.695 -0.3448 -0.8058 -0.2153
  142OSM     OF15592   6.148   7.302   6.632 -0.0452 -0.0146 -0.3259
  142OSM    C2F15593   6.311   7.280   6.814  0.3910 -0.0230  0.1021
  142OSM    H2F15594   6.418   7.257   6.798  0.0211 -2.0803  0.4189
  142OSM    H2G15595   6.270   7.226   6.902 -1.4452 -0.3416 -0.9211
  142OSM    C3F15596   6.292   7.435   6.836  0.4211 -0.2326  0.3449
  142OSM    H3F15597   6.183   7.456   6.840  0.2351 -0.2797 -3.1661
  142OSM    H3G15598   6.338   7.486   6.749  2.5158  0.4974  1.8305
  142OSM    C4F15599   6.346   7.484   6.972  0.3944  0.3390  0.0799
  142OSM    H4F15600   6.340   7.594   6.957  0.5929  0.3079 -0.2430
  142OSM    H4G15601   6.450   7.446   6.984  0.4967  0.7469  0.5342
  142OSM    C5F15602   6.258   7.450   7.085  0.1343 -0.2106 -0.2181
  142OSM    H5F15603   6.212   7.350   7.070  0.0972 -0.0393 -1.2987
  142OSM    H5G15604   6.175   7.523   7.095 -0.7682 -1.3438  0.6686
  142OSM    C6F15605   6.330   7.457   7.226 -0.2113 -0.0625  1.2031
  142OSM    H6F15606   6.366   7.562   7.230 -0.9254  0.2420 -0.0267
  142OSM    H6G15607   6.419   7.390   7.224  0.8595  1.3832 -0.3264
  142OSM    C7F15608   6.247   7.419   7.347  0.1004  0.6119 -0.3820
  142OSM    H7F15609   6.140   7.435   7.322 -0.8613 -0.9476  2.5312
  142OSM    H7G15610   6.269   7.487   7.433 -0.9015 -0.8721  1.0702
  142OSM    C8F15611   6.268   7.276   7.406  0.6188  0.1354 -0.1986
  142OSM    H8F15612   6.375   7.246   7.416  0.2512 -0.6453  1.5093
  142OSM    H8G15613   6.233   7.209   7.325 -0.4324  0.2897  0.1216
  142OSM    C9F15614   6.194   7.253   7.534  0.7243  0.0307 -0.0096
  142OSM    H9F15615   6.086   7.266   7.522  0.4603  0.4456  2.5596
  142OSM   C10F15616   6.229   7.224   7.660 -0.8633 -0.9785 -0.1760
  142OSM   H10F15617   6.152   7.209   7.737 -1.8696 -2.2849 -1.4178
  142OSM   C11F15618   6.375   7.229   7.701 -0.2872  0.3167 -0.7235
  142OSM   H11F15619   6.400   7.331   7.739  1.0953 -1.0219  2.1087
  142OSM   H11G15620   6.442   7.205   7.615  0.1117 -1.0848 -0.0387
  142OSM   C12F15621   6.410   7.132   7.818 -1.3386  0.6920  0.3717
  142OSM   H12F15622   6.519   7.142   7.833 -0.9971 -1.0533 -0.8214
  142OSM   H12G15623   6.381   7.030   7.785  0.7838  0.3334 -0.4602
  142OSM   C13F15624   6.341   7.165   7.947  0.5386 -0.0990  0.0191
  142OSM   H13F15625   6.236   7.146   7.917  1.1615 -1.7348 -1.2017
  142OSM   H13G15626   6.359   7.271   7.975  1.3233  0.0775 -1.1135
  142OSM   C14F15627   6.366   7.081   8.066  0.0874 -0.2364  0.5317
  142OSM   H14F15628   6.473   7.095   8.091  0.3562 -2.8177  0.9841
  142OSM   H14G15629   6.356   6.974   8.037 -3.3061  0.4363 -1.0958
  142OSM   C15F15630   6.273   7.118   8.185 -0.3092 -0.0918 -0.2283
  142OSM   H15F15631   6.173   7.079   8.156 -0.8688  0.8370  0.4296
  142OSM   H15G15632   6.265   7.229   8.189 -1.1605 -0.1697  0.4042
  142OSM   C16F15633   6.329   7.053   8.312 -0.3241  0.5878  0.2533
  142OSM   H16F15634   6.436   7.083   8.318  0.0056 -0.5164 -0.0552
  142OSM   H16G15635   6.334   6.942   8.312  2.9185  0.6694  1.2638
  142OSM   C17F15636   6.245   7.095   8.432 -0.3484 -0.4314  0.1104
  142OSM   H17F15637   6.172   7.018   8.466 -0.3283 -1.0710 -1.2529
  142OSM   H17G15638   6.181   7.179   8.397  0.4577  1.5377  3.1536
  142OSM   C18F15639   6.346   7.159   8.536 -0.4255 -0.4824 -0.2098
  142OSM   H18F15640   6.397   7.080   8.596  0.5090 -0.7640 -1.3461
  142OSM   H18G15641   6.287   7.222   8.605  2.0890  2.7379 -0.8949
  142OSM   H18H15642   6.406   7.227   8.472  0.4593 -1.7902 -0.8129
  143OSM      N15643   0.393   3.220   6.085  0.3768  0.0439  0.1590
  143OSM    C1515644   0.460   3.155   6.194 -0.0618 -0.3717 -0.8106
  143OSM   H15A15645   0.529   3.082   6.156 -2.8324 -1.8626 -3.2334
  143OSM   H15B15646   0.387   3.123   6.267  1.4878 -0.3152  0.7769
  143OSM   H15C15647   0.528   3.223   6.241 -2.8416  1.6217  0.4921
  143OSM    C1415648   0.272   3.302   6.140 -0.2653 -0.0270 -0.1358
  143OSM   H14A15649   0.221   3.348   6.057 -1.5062 -1.4302 -0.1725
  143OSM   H14B15650   0.316   3.374   6.207 -1.3746  0.9039 -0.3852
  143OSM   H14C15651   0.200   3.244   6.196 -0.2097  0.2283  0.2020
  143OSM    C1315652   0.489   3.318   6.021  0.2891 -0.5004  0.1522
  143OSM   H13A15653   0.436   3.386   5.955 -1.4078 -0.2180  1.7877
  143OSM   H13B15654   0.565   3.262   5.969 -0.3606 -1.0257 -0.2520
  143OSM   H13C15655   0.536   3.379   6.096 -2.4238  2.1276 -0.1600
  143OSM    C1215656   0.346   3.111   5.983  0.3301 -0.0305  0.0453
  143OSM   H12A15657   0.309   3.164   5.896 -0.3450  0.3303  0.5476
  143OSM   H12B15658   0.261   3.054   6.018  0.0515 -0.8069 -1.8445
  143OSM    C1115659   0.447   3.000   5.927 -0.3033 -0.3526 -0.3953
  143OSM   H11A15660   0.530   3.062   5.884 -1.3780  0.8573 -0.7633
  143OSM   H11B15661   0.387   2.960   5.843 -0.1300 -1.4629  0.0062
  143OSM      P15662   0.616   2.830   5.997 -0.7559 -0.0602 -0.4448
  143OSM    O1315663   0.610   2.735   5.879  0.2576  0.1023  0.1535
  143OSM    O1415664   0.722   2.930   5.994  0.2805  0.0711 -0.5534
  143OSM    O1115665   0.649   2.738   6.129 -0.2147  0.2562 -0.0565
  143OSM    O1215666   0.476   2.897   6.027  0.8514 -0.3358 -0.2597
  143OSM    C1S15667   0.692   2.807   6.252 -0.0460  0.0736 -0.5674
  143OSM    H1S15668   0.661   2.914   6.251 -1.1852 -0.2585 -2.0851
  143OSM    H1T15669   0.803   2.804   6.256 -0.0913  0.5636  2.1044
  143OSM     NF15670   0.653   2.821   6.492 -0.0333  0.2666  0.5803
  143OSM    HNF15671   0.717   2.796   6.564 -0.1199 -0.4282  0.4156
  143OSM    C2S15672   0.635   2.737   6.378 -0.0078 -0.3955 -0.0263
  143OSM    H2S15673   0.527   2.713   6.367 -0.1795  0.5561 -0.5141
  143OSM    C3S15674   0.707   2.597   6.387  0.3437 -0.4001  0.9967
  143OSM    H3S15675   0.816   2.619   6.384  0.2892 -0.2768 -1.3652
  143OSM     O315676   0.673   2.513   6.277  0.1701  0.0762  0.1086
  143OSM    HO315677   0.675   2.580   6.208 -1.4186 -0.0526 -0.0944
  143OSM    C4S15678   0.670   2.530   6.512  0.7774  0.2067  0.0274
  143OSM    H4S15679   0.728   2.572   6.596 -0.3542  0.6173  0.6182
  143OSM    C5S15680   0.583   2.433   6.530  0.9572  0.1071 -0.1220
  143OSM    H5S15681   0.534   2.393   6.440  1.0473  1.8119 -0.9532
  143OSM    C6S15682   0.543   2.373   6.667 -0.4817  0.3436  0.1443
  143OSM    H6S15683   0.593   2.273   6.671 -2.1629 -0.5703 -1.1463
  143OSM    H6T15684   0.438   2.338   6.672  0.0969 -1.6361 -0.7335
  143OSM    C7S15685   0.573   2.440   6.806  0.1188  0.1421 -0.1856
  143OSM    H7S15686   0.515   2.535   6.811 -0.2834 -0.1844  1.7820
  143OSM    H7T15687   0.681   2.458   6.827  0.1599 -0.0651 -0.2231
  143OSM    C8S15688   0.533   2.354   6.931 -0.6756  0.5548  0.2288
  143OSM    H8S15689   0.575   2.252   6.922  0.5564  0.9372  1.3882
  143OSM    H8T15690   0.426   2.331   6.946 -0.6905 -0.5953 -1.4550
  143OSM    C9S15691   0.586   2.412   7.059 -0.0407  0.0869 -0.5413
  143OSM    H9S15692   0.528   2.503   7.083  1.7835  0.6244  2.0523
  143OSM    H9T15693   0.689   2.451   7.045 -0.6420  2.1345  0.6081
  143OSM   C10S15694   0.579   2.315   7.180  0.2325  0.0558  0.3147
  143OSM   H10S15695   0.633   2.225   7.145 -2.1048 -1.8998  1.5811
  143OSM   H10T15696   0.474   2.286   7.203 -0.8504  2.7533 -0.9845
  143OSM   C11S15697   0.643   2.371   7.306  0.9228 -0.3684  0.5406
  143OSM   H11S15698   0.587   2.462   7.337  0.3191  0.3120 -2.4129
  143OSM   H11T15699   0.748   2.407   7.297  1.6034 -2.8329 -2.1268
  143OSM   C12S15700   0.648   2.266   7.415 -0.1055  0.6778  0.3188
  143OSM   H12S15701   0.710   2.183   7.375 -1.0405  0.0120  0.2471
  143OSM   H12T15702   0.545   2.230   7.436 -1.0077  2.4747 -0.8852
  143OSM   C13S15703   0.713   2.324   7.541 -0.5063 -0.0898  0.4127
  143OSM   H13S15704   0.677   2.428   7.556 -2.5071 -0.7154  0.0893
  143OSM   H13T15705   0.821   2.338   7.519 -0.5649 -1.8226 -1.0470
  143OSM   C14S15706   0.695   2.227   7.653 -0.4478 -0.2726 -0.2795
  143OSM   H14S15707   0.725   2.127   7.613 -0.0912 -0.6004  0.7981
  143OSM   H14T15708   0.586   2.209   7.670  0.2466 -3.1146  1.6128
  143OSM   C15S15709   0.759   2.263   7.783 -0.0440  0.4160 -0.6806
  143OSM   H15S15710   0.696   2.337   7.837 -0.4006  0.9515 -1.8095
  143OSM   H15T15711   0.852   2.321   7.766 -0.3070  1.3415  0.9691
  143OSM   C16S15712   0.774   2.152   7.889  0.6058 -0.0080  0.7187
  143OSM   H16S15713   0.809   2.053   7.854  2.5821  1.1054 -0.5392
  143OSM   H16T15714   0.671   2.131   7.926  1.5313  0.6802  3.8809
  143OSM   C17S15715   0.858   2.196   8.014 -0.0903  0.2424 -0.4786
  143OSM   H17S15716   0.824   2.296   8.048 -3.4138 -0.6498 -0.9492
  143OSM   H17T15717   0.962   2.197   7.975  1.2468  0.7902  2.9379
  143OSM   C18S15718   0.834   2.093   8.121  0.0881  0.3661  0.0913
  143OSM   H18S15719   0.882   2.122   8.217  2.4179 -0.5865 -0.7410
  143OSM   H18T15720   0.866   1.989   8.094  1.4718  0.4819  1.2345
  143OSM   H18U15721   0.726   2.095   8.144 -0.5279  1.0391 -2.6431
  143OSM    C1F15722   0.583   2.943   6.498  0.4214  0.0825  0.0677
  143OSM     OF15723   0.476   2.956   6.441 -0.1002 -0.6098  0.5507
  143OSM    C2F15724   0.640   3.048   6.586 -0.0518  0.7060 -0.0780
  143OSM    H2F15725   0.618   3.144   6.536 -1.1994  0.2122 -0.5298
  143OSM    H2G15726   0.748   3.030   6.608 -0.0479  1.2756  0.3650
  143OSM    C3F15727   0.574   3.053   6.721  0.1915  0.6273 -0.3252
  143OSM    H3F15728   0.464   3.071   6.710  0.1355  1.0672  0.9246
  143OSM    H3G15729   0.613   3.140   6.778 -1.8420  1.2611  0.1453
  143OSM    C4F15730   0.608   2.931   6.816 -0.0137  0.4539 -0.5688
  143OSM    H4F15731   0.717   2.910   6.830 -0.5807 -1.9481  0.4887
  143OSM    H4G15732   0.572   2.842   6.760  0.0290  0.6760 -0.9509
  143OSM    C5F15733   0.531   2.937   6.947 -0.5678  0.2984  0.2041
  143OSM    H5F15734   0.424   2.914   6.925  0.4947 -1.5313 -3.4404
  143OSM    H5G15735   0.526   3.041   6.985 -0.0005  0.2651  0.3712
  143OSM    C6F15736   0.586   2.845   7.056  0.0086 -1.2260  0.5014
  143OSM    H6F15737   0.693   2.869   7.074  0.0343 -0.8163 -0.2250
  143OSM    H6G15738   0.581   2.740   7.021  2.2627 -0.9265 -0.8075
  143OSM    C7F15739   0.502   2.853   7.184  0.6821 -0.0882  1.0724
  143OSM    H7F15740   0.402   2.814   7.156 -0.6333  2.7549  1.6406
  143OSM    H7G15741   0.492   2.960   7.215  0.3764  0.4937 -0.9129
  143OSM    C8F15742   0.552   2.765   7.297  0.6409  0.0338  0.3809
  143OSM    H8F15743   0.580   2.664   7.259 -0.2365 -0.3233  0.6793
  143OSM    H8G15744   0.464   2.742   7.360 -0.6175 -1.2061 -1.7494
  143OSM    C9F15745   0.667   2.828   7.363  0.8026  1.0961  0.7487
  143OSM    H9F15746   0.755   2.851   7.302 -0.6879  1.6846 -1.2313
  143OSM   C10F15747   0.672   2.855   7.495  0.5736  0.9963  0.4256
  143OSM   H10F15748   0.756   2.905   7.546  0.1665  1.6264  0.4838
  143OSM   C11F15749   0.567   2.821   7.591  0.4473  0.1914  0.1896
  143OSM   H11F15750   0.497   2.738   7.566  1.1461 -0.8471  1.5951
  143OSM   H11G15751   0.497   2.908   7.588 -0.9561 -0.9633 -1.5320
  143OSM   C12F15752   0.612   2.805   7.736  0.1386  0.3447  0.4515
  143OSM   H12F15753   0.518   2.792   7.795  0.9699 -0.7975  1.5489
  143OSM   H12G15754   0.647   2.902   7.776 -0.7594  0.2697  1.4245
  143OSM   C13F15755   0.713   2.691   7.767  0.1103  0.0000  0.8095
  143OSM   H13F15756   0.802   2.682   7.701 -0.4658  1.1484 -0.1432
  143OSM   H13G15757   0.655   2.598   7.751  0.5037 -0.2403  0.7681
  143OSM   C14F15758   0.764   2.711   7.919 -0.0200  0.0196  0.1890
  143OSM   H14F15759   0.780   2.613   7.969 -1.4226 -0.9738 -1.2822
  143OSM   H14G15760   0.680   2.759   7.973  0.2643 -1.6821  2.2393
  143OSM   C15F15761   0.885   2.804   7.944  1.0217  0.3282  0.2166
  143OSM   H15F15762   0.863   2.901   7.895 -3.2542  1.2792  3.7510
  143OSM   H15G15763   0.977   2.753   7.906  0.3862  0.0450 -0.9559
  143OSM   C16F15764   0.918   2.827   8.091  0.4371 -0.3939  1.1544
  143OSM   H16F15765   0.830   2.862   8.149 -1.2958  0.1655 -1.7197
  143OSM   H16G15766   0.999   2.903   8.095 -1.1436  1.5156 -1.5620
  143OSM   C17F15767   0.982   2.699   8.155 -0.2569 -0.8224  0.2149
  143OSM   H17F15768   1.081   2.673   8.111  1.1510  1.3998  1.9525
  143OSM   H17G15769   0.916   2.610   8.157 -2.6380  0.9120  0.2845
  143OSM   C18F15770   1.011   2.719   8.303  0.0072  0.4625  0.1844
  143OSM   H18F15771   1.068   2.638   8.352 -0.7303  0.0762  0.4042
  143OSM   H18G15772   0.913   2.734   8.352 -0.7930  0.0824 -1.2785
  143OSM   H18H15773   1.057   2.819   8.322  0.0169  0.7451 -1.2340
  144OSM      N15774   6.641   1.680   6.118  0.2468 -0.1325 -1.0390
  144OSM    C1515775   6.508   1.614   6.145  0.4525  0.4470 -0.4610
  144OSM   H15A15776   6.465   1.615   6.244 -0.4700 -1.3492 -0.8299
  144OSM   H15B15777   6.492   1.516   6.103  2.2060  0.7335 -1.8319
  144OSM   H15C15778   6.438   1.675   6.089 -1.4656 -1.9539 -0.7694
  144OSM    C1415779   6.741   1.624   6.216 -0.2778  0.3631  0.0432
  144OSM   H14A15780   6.709   1.634   6.319 -0.2836 -1.2685  0.2255
  144OSM   H14B15781   6.838   1.666   6.195 -0.2466 -0.1033 -0.7602
  144OSM   H14C15782   6.747   1.516   6.203 -1.7299  0.4580 -1.5914
  144OSM    C1315783   6.679   1.647   5.972 -0.1028 -0.3778  0.4430
  144OSM   H13A15784   6.618   1.713   5.912  1.8137  2.1812  1.2179
  144OSM   H13B15785   6.652   1.549   5.936  1.1519 -0.0275 -1.5294
  144OSM   H13C15786   6.781   1.669   5.945  0.6502 -2.1311  1.7589
  144OSM    C1215787   6.634   1.828   6.143  0.1363  0.0085 -0.2981
  144OSM   H12A15788   6.728   1.873   6.116 -0.1779  1.8233  1.5044
  144OSM   H12B15789   6.613   1.842   6.248 -3.5792  2.1324 -1.2509
  144OSM    C1115790   6.533   1.918   6.070  0.3866  0.0383 -0.2023
  144OSM   H11A15791   6.552   1.904   5.962 -0.4213 -1.2327 -0.2021
  144OSM   H11B15792   6.571   2.020   6.090 -1.6049  1.1305 -1.8364
  144OSM      P15793   6.318   1.949   6.222  0.4661  0.5773  0.2029
  144OSM    O1315794   6.285   2.090   6.202  0.1035  0.0584 -0.3486
  144OSM    O1415795   6.203   1.862   6.239  0.4808 -0.2384 -0.4386
  144OSM    O1115796   6.416   1.916   6.344 -0.4504 -0.5314 -0.3624
  144OSM    O1215797   6.403   1.896   6.104 -0.0007  0.0518  0.1470
  144OSM    C1S15798   6.466   2.015   6.436  0.9375  0.0482  0.3732
  144OSM    H1S15799   6.402   2.107   6.436 -1.2781 -1.4530 -0.3691
  144OSM    H1T15800   6.561   2.061   6.400  0.4930  1.0996  0.5184
  144OSM     NF15801   6.542   2.070   6.658  0.5857 -0.2956  0.6706
  144OSM    HNF15802   6.640   2.080   6.666  0.8189 -0.6175 -1.3906
  144OSM    C2S15803   6.501   1.958   6.579  0.3594 -0.3292  0.2133
  144OSM    H2S15804   6.412   1.911   6.626  0.7789  1.1629  2.5586
  144OSM    C3S15805   6.612   1.851   6.570 -0.6707 -0.1692  0.2603
  144OSM    H3S15806   6.699   1.905   6.528 -0.1754 -1.6011 -0.5714
  144OSM     O315807   6.592   1.753   6.473 -0.2927  0.4094  0.3694
  144OSM    HO315808   6.510   1.780   6.431 -0.0616 -1.7291 -1.5314
  144OSM    C4S15809   6.645   1.790   6.707 -1.3251  0.1665 -0.7011
  144OSM    H4S15810   6.706   1.857   6.770  0.2968  0.9344 -3.0232
  144OSM    C5S15811   6.599   1.678   6.767  0.4560  0.4791 -0.7286
  144OSM    H5S15812   6.540   1.604   6.711  1.0123  0.1320 -0.8606
  144OSM    C6S15813   6.630   1.633   6.907  0.1627  0.1848 -0.7292
  144OSM    H6S15814   6.727   1.579   6.914  0.7597  1.3089 -0.1737
  144OSM    H6T15815   6.552   1.566   6.950 -0.7180  1.2325 -0.6956
  144OSM    C7S15816   6.630   1.753   7.008  0.1323 -0.2424  0.4952
  144OSM    H7S15817   6.540   1.816   6.995  1.1359  1.0380 -0.4574
  144OSM    H7T15818   6.722   1.814   6.993  0.3529 -0.7646 -0.3939
  144OSM    C8S15819   6.622   1.705   7.152  0.0294 -0.4446 -0.0146
  144OSM    H8S15820   6.523   1.656   7.168  0.9438 -1.3144  3.4362
  144OSM    H8T15821   6.615   1.798   7.212  0.6227  1.4666 -2.8395
  144OSM    C9S15822   6.735   1.605   7.207  0.6752 -0.2879 -0.0211
  144OSM    H9S15823   6.835   1.644   7.178 -0.3524  2.7994  0.3253
  144OSM    H9T15824   6.733   1.509   7.153 -1.5275 -1.1303  1.4637
  144OSM   C10S15825   6.723   1.555   7.356 -0.1709 -0.4342 -0.3054
  144OSM   H10S15826   6.720   1.444   7.364  0.1595 -0.3536  1.0008
  144OSM   H10T15827   6.623   1.585   7.393  0.6397  2.0483 -0.0511
  144OSM   C11S15828   6.838   1.602   7.452 -0.1783  0.1512 -0.8937
  144OSM   H11S15829   6.850   1.711   7.439 -2.0762  0.4818 -0.0156
  144OSM   H11T15830   6.931   1.552   7.417 -0.2930  0.6524 -1.9351
  144OSM   C12S15831   6.808   1.555   7.597 -0.6303 -0.1962 -0.4457
  144OSM   H12S15832   6.769   1.453   7.575 -1.0261 -0.2259  0.3926
  144OSM   H12T15833   6.736   1.624   7.646 -0.3843  0.7739 -1.4222
  144OSM   C13S15834   6.943   1.553   7.668  0.3619  0.6442 -0.2202
  144OSM   H13S15835   6.992   1.653   7.662  0.2545  0.5874 -2.3284
  144OSM   H13T15836   6.998   1.475   7.611 -1.4672  0.1643 -1.3696
  144OSM   C14S15837   6.941   1.504   7.817 -0.1865 -0.4668 -0.2969
  144OSM   H14S15838   7.035   1.466   7.862 -2.7938 -1.5846  4.5175
  144OSM   H14T15839   6.872   1.417   7.824 -0.1712 -0.2536  2.8574
  144OSM   C15S15840   6.881   1.605   7.913 -0.2308 -0.3948  0.4939
  144OSM   H15S15841   6.805   1.665   7.858 -1.3939 -2.6378 -0.4245
  144OSM   H15T15842   6.952   1.689   7.927 -1.7135  1.4258 -2.2501
  144OSM   C16S15843   6.800   1.540   8.027  0.4194  0.6711  0.6908
  144OSM   H16S15844   6.864   1.500   8.109  0.0824 -2.1025 -0.3715
  144OSM   H16T15845   6.756   1.450   7.980  0.2383  1.6533 -1.0825
  144OSM   C17S15846   6.691   1.625   8.093 -0.1690  0.2588 -0.8077
  144OSM   H17S15847   6.611   1.650   8.021 -0.0133  0.6578 -0.8446
  144OSM   H17T15848   6.745   1.714   8.131 -0.0180 -0.0906 -0.1781
  144OSM   C18S15849   6.612   1.562   8.207 -0.3053 -0.2024  0.8874
  144OSM   H18S15850   6.589   1.458   8.174 -0.4225 -0.0153  0.3853
  144OSM   H18T15851   6.518   1.613   8.239  0.0705 -0.2057  1.9950
  144OSM   H18U15852   6.672   1.538   8.298  1.8877  1.9490  0.0473
  144OSM    C1F15853   6.458   2.160   6.701 -0.0130 -0.9597  1.0836
  144OSM     OF15854   6.337   2.150   6.682  0.3916  0.3270  0.3894
  144OSM    C2F15855   6.523   2.284   6.768 -0.2197  0.0656 -0.1209
  144OSM    H2F15856   6.531   2.355   6.683 -0.9559 -2.7713 -2.6532
  144OSM    H2G15857   6.627   2.269   6.803  0.2583 -0.6286 -1.7774
  144OSM    C3F15858   6.423   2.354   6.869 -0.3690  0.2482  0.1622
  144OSM    H3F15859   6.372   2.286   6.941 -2.1319  0.9622 -0.3799
  144OSM    H3G15860   6.337   2.377   6.802  1.0997  0.9584 -1.5123
  144OSM    C4F15861   6.471   2.492   6.921 -0.5470  0.4002  0.2585
  144OSM    H4F15862   6.381   2.546   6.956 -0.6677  0.5101 -0.2222
  144OSM    H4G15863   6.508   2.546   6.832  0.6098  2.1737  1.7901
  144OSM    C5F15864   6.576   2.505   7.031 -0.0180  0.5695  0.1816
  144OSM    H5F15865   6.602   2.609   7.058 -0.1426  0.5513  0.3724
  144OSM    H5G15866   6.667   2.463   6.982 -0.6429 -0.2805 -0.2784
  144OSM    C6F15867   6.570   2.398   7.147 -0.1248 -0.5725 -0.3237
  144OSM    H6F15868   6.667   2.390   7.200  0.2255  0.0271 -0.8633
  144OSM    H6G15869   6.564   2.301   7.094  2.5518 -1.4511  0.8938
  144OSM    C7F15870   6.443   2.406   7.237  0.8797 -0.3759 -0.1601
  144OSM    H7F15871   6.356   2.411   7.168  1.6720 -1.2658 -1.2376
  144OSM    H7G15872   6.449   2.501   7.294 -0.4509 -1.1695  1.3336
  144OSM    C8F15873   6.412   2.275   7.318 -0.0295 -0.1833 -0.5092
  144OSM    H8F15874   6.412   2.186   7.251 -2.7489  0.0341 -0.8874
  144OSM    H8G15875   6.308   2.278   7.356 -0.4517  1.3356 -1.7257
  144OSM    C9F15876   6.520   2.269   7.421  0.6404  0.5879  0.1309
  144OSM    H9F15877   6.620   2.263   7.376 -0.4769 -1.8172 -2.1204
  144OSM   C10F15878   6.505   2.266   7.557  0.4237 -0.2109  0.1030
  144OSM   H10F15879   6.598   2.268   7.616  1.5738 -1.5220 -1.6130
  144OSM   C11F15880   6.375   2.256   7.634  0.0986  0.2694  0.3993
  144OSM   H11F15881   6.362   2.170   7.702 -1.1010  0.5855  0.5721
  144OSM   H11G15882   6.293   2.266   7.559  2.8773  1.7763 -2.5740
  144OSM   C12F15883   6.359   2.377   7.727  0.8840 -0.2994 -0.3110
  144OSM   H12F15884   6.252   2.374   7.757  0.4828 -0.8083 -1.7522
  144OSM   H12G15885   6.376   2.470   7.668  0.7599 -1.7489 -2.7200
  144OSM   C13F15886   6.457   2.378   7.844 -0.7447  0.1193 -0.2472
  144OSM   H13F15887   6.560   2.372   7.802 -0.4697 -1.3291  0.6080
  144OSM   H13G15888   6.442   2.287   7.905  2.1107 -0.3742 -0.2153
  144OSM   C14F15889   6.454   2.514   7.927  1.0640 -0.3003 -0.6231
  144OSM   H14F15890   6.348   2.538   7.951  1.9882  0.3117  3.1841
  144OSM   H14G15891   6.500   2.594   7.866  1.6184 -1.9017 -2.3582
  144OSM   C15F15892   6.521   2.501   8.065 -0.1692 -0.3682 -0.3089
  144OSM   H15F15893   6.544   2.598   8.114  3.1182 -0.7126 -1.0807
  144OSM   H15G15894   6.622   2.461   8.043 -0.6607 -1.7992 -0.0306
  144OSM   C16F15895   6.451   2.424   8.170 -0.1552  1.1795 -0.1506
  144OSM   H16F15896   6.415   2.326   8.132  0.2560  0.4535  1.2889
  144OSM   H16G15897   6.364   2.481   8.210 -0.0877  0.6842  0.7098
  144OSM   C17F15898   6.550   2.418   8.297 -0.1567  0.0040 -0.0277
  144OSM   H17F15899   6.535   2.511   8.355  0.2505 -1.1804  2.0010
  144OSM   H17G15900   6.657   2.408   8.266  0.2662  2.8621  0.4005
  144OSM   C18F15901   6.513   2.311   8.405 -0.4083  0.5251  0.9428
  144OSM   H18F15902   6.597   2.272   8.466  0.1324  0.5354  0.2120
  144OSM   H18G15903   6.454   2.230   8.358 -1.5005  2.3714 -0.9368
  144OSM   H18H15904   6.449   2.362   8.479 -1.9555 -1.2085  0.8222
  145SAPE     N15905   4.732   2.790  10.823 -0.3213  0.0738  0.2510
  145SAPE   HN115906   4.709   2.824  10.727 -0.7903  1.3450  0.7971
  145SAPE   HN215907   4.736   2.687  10.810 -1.4164 -0.1225  1.3329
  145SAPE   HN315908   4.652   2.815  10.885 -1.6076  3.0059 -2.4199
  145SAPE   C1215909   4.855   2.852  10.878 -0.0674 -0.8174  0.0793
  145SAPE  H12A15910   4.876   2.819  10.982  1.7485 -2.8421 -0.9052
  145SAPE  H12B15911   4.830   2.960  10.887  0.2033 -0.6060 -1.5351
  145SAPE   C1115912   4.976   2.849  10.777  0.6305  0.2779 -0.0231
  145SAPE  H11A15913   5.065   2.886  10.831  2.6714 -2.0952 -1.6772
  145SAPE  H11B15914   4.946   2.916  10.694 -0.7875  0.3380  0.5238
  145SAPE     P15915   5.100   2.611  10.768 -0.4654 -0.5538  0.4595
  145SAPE   O1315916   5.209   2.677  10.842  0.3213 -0.1943 -0.3011
  145SAPE   O1415917   5.036   2.492  10.829 -0.2032 -0.3832  0.1246
  145SAPE   O1215918   4.992   2.715  10.721 -0.1630 -0.1386 -0.0829
  145SAPE   O1115919   5.172   2.564  10.630  0.2642 -0.4716  0.0634
  145SAPE    C115920   5.100   2.549  10.504  0.3402  0.6037  0.2142
  145SAPE    HA15921   5.081   2.440  10.492  0.3762  0.5937  0.2488
  145SAPE    HB15922   4.995   2.585  10.506 -0.7508 -2.3405 -0.4051
  145SAPE    C215923   5.167   2.610  10.381  0.4225  0.1578  0.2877
  145SAPE    HS15924   5.257   2.548  10.362  0.1091 -0.0011 -0.6923
  145SAPE   O2115925   5.199   2.748  10.415 -0.1613 -0.0882 -0.4083
  145SAPE   C2115926   5.311   2.796  10.357  0.1340 -0.5912 -0.6076
  145SAPE   O2215927   5.386   2.728  10.291 -0.4404 -0.0905  0.2219
  145SAPE   C2215928   5.346   2.944  10.382 -0.2860 -0.3989 -0.6538
  145SAPE   H2R15929   5.250   2.995  10.406  0.7613  0.6202  1.5911
  145SAPE   H2S15930   5.401   2.937  10.479  0.0030 -1.3412 -0.8822
  145SAPE    C315931   5.070   2.620  10.255 -0.3049 -0.2868 -0.5155
  145SAPE    HX15932   4.997   2.704  10.260 -1.8259 -1.5585 -0.7986
  145SAPE    HY15933   5.018   2.522  10.239  0.7091 -0.4119 -3.3938
  145SAPE   O3115934   5.146   2.650  10.140 -0.6342 -0.2820 -0.0351
  145SAPE   C3115935   5.205   2.543  10.093 -0.7440  0.4261  0.5395
  145SAPE   O3215936   5.211   2.436  10.145 -0.0441 -0.5986 -0.3605
  145SAPE   C3215937   5.274   2.586   9.965 -0.4421  0.6398  0.7309
  145SAPE   H2X15938   5.381   2.608   9.986 -0.0014 -2.5395  2.1268
  145SAPE   H2Y15939   5.233   2.678   9.919 -1.1506  0.5271  1.1328
  145SAPE   C2315940   5.435   3.022  10.282 -0.0060  0.2810  0.9525
  145SAPE   H3R15941   5.523   2.956  10.265  0.1776  0.9193 -0.6994
  145SAPE   H3S15942   5.458   3.116  10.336  1.8980  0.3685  0.0101
  145SAPE   C2415943   5.360   3.050  10.145  0.0992  0.3452 -0.5255
  145SAPE   H4R15944   5.267   3.107  10.163 -0.7765 -1.0745 -0.4737
  145SAPE   H4S15945   5.322   2.953  10.105 -1.9875  0.5655  0.8394
  145SAPE   C2515946   5.443   3.128  10.042 -0.0236  0.3324  0.3827
  145SAPE   H5R15947   5.509   3.210  10.075 -2.7370  1.8368  2.2707
  145SAPE   C2615948   5.428   3.112   9.912  0.2359  0.2890 -0.0165
  145SAPE   H6R15949   5.495   3.159   9.839 -0.2422 -0.6308 -1.0605
  145SAPE   C2715950   5.342   3.015   9.839 -0.6283  0.7322 -0.1499
  145SAPE   H7R15951   5.292   2.940   9.904  0.4789 -2.7227 -3.1340
  145SAPE   H7S15952   5.411   2.962   9.771  0.0096  0.2228  0.8933
  145SAPE   C2815953   5.236   3.082   9.748  0.3082  0.8067  0.0179
  145SAPE   H8R15954   5.212   3.187   9.768  0.3745  0.5375  1.5765
  145SAPE   C2915955   5.194   3.023   9.636  0.4476  0.7947  0.1726
  145SAPE   H9R15956   5.123   3.069   9.566 -1.5268 -1.4905  0.6165
  145SAPE  C21015957   5.244   2.891   9.584 -0.1114 -0.0517  0.2572
  145SAPE  H10R15958   5.153   2.844   9.541  0.7165  1.2360 -3.1091
  145SAPE  H10S15959   5.265   2.827   9.672 -0.1587  1.9214  1.7424
  145SAPE  C21115960   5.367   2.886   9.496  0.0388  0.5843 -0.6869
  145SAPE  H11R15961   5.448   2.823   9.536  1.4459  0.7552 -3.1992
  145SAPE  C21215962   5.383   2.939   9.374  0.4564 -0.5377  0.0640
  145SAPE  H12R15963   5.480   2.929   9.324  0.6981  0.2358  0.3716
  145SAPE  C21315964   5.267   3.009   9.309 -0.2200 -0.2488  0.2160
  145SAPE  H13R15965   5.310   3.068   9.226 -2.1008 -0.5982 -1.0300
  145SAPE  H13S15966   5.231   3.080   9.387  2.7156  0.2508  1.1666
  145SAPE  C21415967   5.150   2.932   9.259  0.0631 -1.0711 -0.3433
  145SAPE  H14R15968   5.083   2.894   9.337  1.2663  0.6744  1.5799
  145SAPE  C21515969   5.117   2.914   9.128 -0.2027 -0.4831 -0.2236
  145SAPE  H15R15970   5.032   2.849   9.101 -1.6330  0.5987  1.5376
  145SAPE  C21615971   5.193   2.963   9.009 -0.1649  0.0522 -0.5240
  145SAPE  H16R15972   5.290   2.908   9.004  0.0869  0.3304  1.0563
  145SAPE  H16S15973   5.233   3.063   9.033  2.6709 -1.1508 -0.0337
  145SAPE  C21715974   5.123   2.974   8.873  0.2328  0.4819 -0.0388
  145SAPE  H17R15975   5.173   3.053   8.813 -0.0641  0.5687 -0.1739
  145SAPE  H17S15976   5.031   3.033   8.891 -0.6993 -0.6501 -1.0224
  145SAPE  C21815977   5.091   2.843   8.811  0.0162  0.3674  0.3648
  145SAPE  H18R15978   5.036   2.781   8.886  3.0338 -0.3377  2.1051
  145SAPE  H18S15979   5.190   2.794   8.800 -1.5541 -2.7987 -0.3725
  145SAPE  C21915980   5.025   2.854   8.673 -0.0310 -0.3402 -0.0658
  145SAPE  H19R15981   5.012   2.748   8.640 -1.3913 -0.4318  0.7059
  145SAPE  H19S15982   5.089   2.897   8.594 -0.0449  0.0027  0.1114
  145SAPE  C22015983   4.881   2.912   8.670  0.1124  0.3878  0.2096
  145SAPE  H20R15984   4.817   2.853   8.739 -1.4635 -0.8089 -2.2170
  145SAPE  H20S15985   4.843   2.905   8.566  1.2049 -1.0127 -0.1027
  145SAPE  H20T15986   4.883   3.018   8.704  1.8750  0.6017 -0.5160
  145SAPE   C3315987   5.276   2.484   9.849 -0.5297 -0.2690  0.3362
  145SAPE   H3X15988   5.174   2.471   9.808 -0.4292  0.7144 -0.2298
  145SAPE   H3Y15989   5.315   2.384   9.879 -1.9766 -1.5734 -2.0607
  145SAPE   C3415990   5.364   2.531   9.733 -0.5797 -0.6961  0.0948
  145SAPE   H4X15991   5.469   2.542   9.768 -1.1073 -0.2463  1.5689
  145SAPE   H4Y15992   5.332   2.634   9.706  0.0746 -0.4817  0.1211
  145SAPE   C3515993   5.352   2.440   9.610  0.4374 -0.5266 -0.8452
  145SAPE   H5X15994   5.242   2.427   9.595  0.3947  0.9389 -1.9407
  145SAPE   H5Y15995   5.395   2.341   9.636 -0.8127 -0.1594  2.9447
  145SAPE   C3615996   5.431   2.501   9.493  0.7519 -0.9457  0.0372
  145SAPE   H6X15997   5.541   2.497   9.503  0.3729 -2.7803  4.3622
  145SAPE   H6Y15998   5.394   2.604   9.475  0.0890 -0.6987  2.7068
  145SAPE   C3715999   5.405   2.439   9.351  0.1084  0.1050 -0.4470
  145SAPE   H7X16000   5.295   2.432   9.332  0.1673  1.3515 -1.3346
  145SAPE   H7Y16001   5.435   2.332   9.352 -2.4346 -0.6610  1.2043
  145SAPE   C3816002   5.463   2.510   9.229 -0.0627 -0.2705  0.4729
  145SAPE   H8X16003   5.563   2.559   9.224 -1.3922  2.3685 -2.2225
  145SAPE   H8Y16004   5.393   2.592   9.203  0.7579  0.1041 -0.6147
  145SAPE   C3916005   5.442   2.429   9.094  0.4167  0.2527  0.3581
  145SAPE   H9X16006   5.331   2.431   9.088  0.5013  2.0271 -1.0631
  145SAPE   H9Y16007   5.473   2.325   9.118  0.5072 -0.3973 -2.4223
  145SAPE  C31016008   5.500   2.487   8.963  0.6613 -0.2566  0.9874
  145SAPE  H10X16009   5.611   2.496   8.968  0.5957  0.4660  1.3200
  145SAPE  H10Y16010   5.459   2.588   8.940  1.2335 -0.3460 -0.4614
  145SAPE  C31116011   5.476   2.392   8.840 -0.0425  0.5197  0.7097
  145SAPE  H11X16012   5.373   2.397   8.798 -1.0489  0.3619  3.0447
  145SAPE  H11Y16013   5.473   2.285   8.871 -2.5342 -0.5391 -2.9129
  145SAPE  C31216014   5.587   2.407   8.734 -0.5518 -0.2003 -0.5387
  145SAPE  H12X16015   5.681   2.364   8.776  0.1443  0.1708 -1.6828
  145SAPE  H12Y16016   5.589   2.514   8.703 -1.5608 -0.1935 -0.5813
  145SAPE  C31316017   5.560   2.328   8.604 -0.2782  0.4060 -0.0497
  145SAPE  H13X16018   5.481   2.379   8.544  0.9840  1.9209 -0.4731
  145SAPE  H13Y16019   5.525   2.227   8.632 -0.8570  1.1169  1.9042
  145SAPE  C31416020   5.683   2.302   8.515 -0.0976 -0.4156 -0.1329
  145SAPE  H14X16021   5.732   2.215   8.564 -0.9380 -1.3658 -0.9636
  145SAPE  H14Y16022   5.761   2.380   8.517 -1.9338  1.4655 -0.1367
  145SAPE  C31516023   5.641   2.259   8.375 -0.4806  0.3328  0.0030
  145SAPE  H15X16024   5.586   2.339   8.321 -0.9482 -1.2555 -1.9309
  145SAPE  H15Y16025   5.575   2.171   8.379 -0.2836  0.1904  0.1468
  145SAPE  C31616026   5.767   2.211   8.288 -0.0739 -0.1071  0.2887
  145SAPE  H16X16027   5.783   2.105   8.318 -2.4458 -0.9713 -1.2904
  145SAPE  H16Y16028   5.859   2.266   8.317  0.0511  1.2203 -2.4748
  145SAPE  C31716029   5.762   2.214   8.134  0.2017 -0.1069 -0.0022
  145SAPE  H17X16030   5.866   2.185   8.109  0.2002 -2.1407  2.1217
  145SAPE  H17Y16031   5.730   2.316   8.106  1.9878  0.9373  1.6881
  145SAPE  C31816032   5.666   2.102   8.101  0.0546  0.1123  0.1776
  145SAPE  H18X16033   5.685   2.074   7.995  0.2726  0.8220  0.0276
  145SAPE  H18Y16034   5.560   2.130   8.117  0.1371  0.8305 -0.4716
  145SAPE  H18Z16035   5.697   2.009   8.153 -0.0563 -0.0810 -0.1011
  146SAPE     N16036   4.527   4.025  10.846 -0.6278  0.4319  0.2139
  146SAPE   HN116037   4.606   4.075  10.892 -1.6858  2.1930  0.1808
  146SAPE   HN216038   4.545   4.037  10.744  3.2288 -0.5119  0.7176
  146SAPE   HN316039   4.429   4.047  10.876 -1.6605 -2.0931 -1.1394
  146SAPE   C1216040   4.530   3.876  10.867  0.0694 -0.7802 -0.0936
  146SAPE  H12A16041   4.556   3.859  10.974  1.7786  1.5141 -0.1263
  146SAPE  H12B16042   4.610   3.828  10.806 -1.0860 -0.4085 -1.9162
  146SAPE   C1116043   4.388   3.804  10.853  0.1402  0.0975  0.0160
  146SAPE  H11A16044   4.375   3.711  10.913 -0.1263  0.1375  0.0195
  146SAPE  H11B16045   4.379   3.769  10.748  2.1987 -1.4156  0.3206
  146SAPE     P16046   4.149   3.879  10.862  0.1989  0.0208  0.1346
  146SAPE   O1316047   4.102   3.751  10.924  0.4229 -0.1551  0.3877
  146SAPE   O1416048   4.076   4.001  10.899 -0.2885  0.0538  0.0865
  146SAPE   O1216049   4.297   3.903  10.898 -0.8654 -0.1579  0.2317
  146SAPE   O1116050   4.135   3.848  10.708 -0.0611  0.4452 -0.7268
  146SAPE    C116051   4.190   3.925  10.600  0.5761  0.5125  0.1746
  146SAPE    HA16052   4.246   4.015  10.632  0.6687  0.9090 -1.0600
  146SAPE    HB16053   4.263   3.871  10.536  1.1263  2.0261 -0.5071
  146SAPE    C216054   4.077   3.970  10.500 -0.2544  0.0953 -0.3367
  146SAPE    HS16055   3.996   4.016  10.561 -1.7311 -0.7432 -1.6374
  146SAPE   O2116056   4.035   3.851  10.437  0.0231  0.3919  0.1283
  146SAPE   C2116057   3.919   3.870  10.378  0.3856 -0.4156  1.0733
  146SAPE   O2216058   3.845   3.966  10.402 -0.7950 -0.2789 -0.4226
  146SAPE   C2216059   3.884   3.764  10.274 -0.2235  0.5561 -0.0844
  146SAPE   H2R16060   3.899   3.816  10.176  1.1045 -2.7132 -1.6865
  146SAPE   H2S16061   3.944   3.671  10.281  2.4118  2.2055 -0.2891
  146SAPE    C316062   4.132   4.068  10.396  0.6082 -0.3425  0.0685
  146SAPE    HX16063   4.160   4.164  10.446  1.3157 -0.5176  0.0097
  146SAPE    HY16064   4.050   4.099  10.328  1.1589  0.2776 -0.3229
  146SAPE   O3116065   4.248   4.024  10.325  0.1576 -0.2341 -0.2121
  146SAPE   C3116066   4.247   3.972  10.204 -0.3558 -0.5844 -0.5175
  146SAPE   O3216067   4.146   3.951  10.138  0.3068 -0.3401  0.1112
  146SAPE   C3216068   4.385   3.938  10.149 -0.3461 -0.1971 -0.1757
  146SAPE   H2X16069   4.421   3.865  10.225 -1.3874 -0.6000 -0.0598
  146SAPE   H2Y16070   4.448   4.028  10.143  0.2887 -0.6192  0.1322
  146SAPE   C2316071   3.733   3.730  10.282  0.2875  1.2416 -0.3280
  146SAPE   H3R16072   3.672   3.823  10.276 -1.0778  0.3622 -0.2636
  146SAPE   H3S16073   3.728   3.666  10.373 -1.8448  1.5256 -0.2190
  146SAPE   C2416074   3.676   3.635  10.165 -1.0175 -0.3164  0.5048
  146SAPE   H4R16075   3.687   3.700  10.076 -2.9698 -1.1637 -0.3905
  146SAPE   H4S16076   3.566   3.620  10.177 -1.0786 -0.9737 -0.8446
  146SAPE   C2516077   3.752   3.502  10.161  0.0232  0.3053  0.7599
  146SAPE   H5R16078   3.741   3.453  10.259  0.0750  0.0069  0.6166
  146SAPE   C2616079   3.820   3.441  10.059 -0.1485 -0.9443  0.2644
  146SAPE   H6R16080   3.866   3.343  10.076  0.7799 -0.7085 -0.8260
  146SAPE   C2716081   3.847   3.503   9.921  0.9115 -0.0551  0.2144
  146SAPE   H7R16082   3.743   3.523   9.890  1.3349 -2.6409 -3.2299
  146SAPE   H7S16083   3.876   3.420   9.853  0.0868  0.1405 -0.3786
  146SAPE   C2816084   3.942   3.622   9.919  0.0193  0.2139 -0.1330
  146SAPE   H8R16085   3.952   3.677  10.014  0.0037  0.4106 -0.2443
  146SAPE   C2916086   3.993   3.677   9.803 -0.0092 -0.1685  0.1176
  146SAPE   H9R16087   4.066   3.757   9.821 -2.0676  1.6427  0.6900
  146SAPE  C21016088   3.956   3.641   9.669  0.4369  1.1977  0.1084
  146SAPE  H10R16089   3.964   3.737   9.614  0.9092  1.1761  0.1302
  146SAPE  H10S16090   3.850   3.612   9.659  0.7249 -0.2399  1.0476
  146SAPE  C21116091   4.034   3.522   9.613  0.6646  0.4121 -0.1738
  146SAPE  H11R16092   4.045   3.440   9.686 -1.5242 -0.6687 -0.9999
  146SAPE  C21216093   4.101   3.508   9.493  0.3279 -0.8790  0.2552
  146SAPE  H12R16094   4.138   3.408   9.465  2.4798 -0.4714  1.5184
  146SAPE  C21316095   4.104   3.607   9.375 -0.1618 -0.3280  0.3131
  146SAPE  H13R16096   4.208   3.609   9.336 -1.1824  1.2050 -2.4539
  146SAPE  H13S16097   4.077   3.708   9.411  2.0905 -0.5388  2.6950
  146SAPE  C21416098   4.006   3.551   9.283  0.1244 -0.5102  0.0541
  146SAPE  H14R16099   3.912   3.510   9.320 -0.8928  0.2758 -1.5562
  146SAPE  C21516100   4.028   3.550   9.147 -0.4336  0.6497 -0.3634
  146SAPE  H15R16101   3.956   3.492   9.087  0.6641  0.1978 -1.2831
  146SAPE  C21616102   4.153   3.601   9.073  0.0275 -0.4859  0.5664
  146SAPE  H16R16103   4.207   3.508   9.044  0.3590 -0.2081  0.2958
  146SAPE  H16S16104   4.225   3.663   9.130  0.7840 -0.8159 -0.0195
  146SAPE  C21716105   4.113   3.684   8.938  0.1438 -1.5441 -0.2205
  146SAPE  H17R16106   4.208   3.726   8.896  0.4441 -0.1568  1.7498
  146SAPE  H17S16107   4.036   3.760   8.963  0.2470 -1.4378 -0.2218
  146SAPE  C21816108   4.071   3.597   8.822 -0.0220  0.1802 -0.1904
  146SAPE  H18R16109   3.992   3.525   8.852 -1.1879  1.5664  0.1170
  146SAPE  H18S16110   4.150   3.534   8.777  0.0706  0.3405 -0.2537
  146SAPE  C21916111   4.026   3.692   8.702  0.1136 -0.4268  0.2193
  146SAPE  H19R16112   4.105   3.769   8.691  0.0070 -0.2427  0.7639
  146SAPE  H19S16113   3.933   3.736   8.742  0.4093 -0.8341  1.3815
  146SAPE  C22016114   4.004   3.613   8.573  0.0697  0.4339  0.1981
  146SAPE  H20R16115   3.918   3.543   8.580  1.2676 -1.1576 -0.7257
  146SAPE  H20S16116   4.092   3.551   8.544 -0.1459 -0.3699  1.2134
  146SAPE  H20T16117   3.976   3.679   8.489  0.3058  0.2161 -0.0534
  146SAPE   C3316118   4.381   3.867  10.006 -0.9917 -0.0401 -0.7533
  146SAPE   H3X16119   4.301   3.791  10.014 -0.1893 -0.7389  0.6425
  146SAPE   H3Y16120   4.475   3.810   9.991 -1.5818 -1.6590  1.5001
  146SAPE   C3416121   4.373   3.953   9.885  0.2640 -0.3526  0.8760
  146SAPE   H4X16122   4.455   4.027   9.891 -0.3900  0.6673 -1.7581
  146SAPE   H4Y16123   4.271   3.999   9.878  2.1108  3.6898 -1.0645
  146SAPE   C3516124   4.407   3.879   9.758  0.1872  0.8364 -0.3447
  146SAPE   H5X16125   4.349   3.785   9.750  2.0626 -0.2130 -2.1034
  146SAPE   H5Y16126   4.513   3.846   9.752  0.2419  0.7052  1.1752
  146SAPE   C3616127   4.381   3.967   9.637  0.0012  0.8794 -0.6453
  146SAPE   H6X16128   4.449   4.054   9.625  1.5083 -0.2353 -0.3603
  146SAPE   H6Y16129   4.274   3.997   9.632 -0.4214  0.0963  2.5079
  146SAPE   C3716130   4.399   3.887   9.507  0.5383  0.0184 -0.1109
  146SAPE   H7X16131   4.351   3.789   9.523  0.0508  0.0378 -1.3985
  146SAPE   H7Y16132   4.508   3.866   9.496  0.5306  0.1402 -0.4578
  146SAPE   C3816133   4.356   3.963   9.380 -0.2485 -0.1507  0.3006
  146SAPE   H8X16134   4.407   4.061   9.392 -0.6282  0.2285 -1.1252
  146SAPE   H8Y16135   4.248   3.990   9.384 -0.1333  0.2388  1.1272
  146SAPE   C3916136   4.385   3.883   9.255  0.2996  0.1545  0.3699
  146SAPE   H9X16137   4.340   3.783   9.273  0.3967  0.4613  2.4848
  146SAPE   H9Y16138   4.493   3.864   9.234  0.2065 -2.2249  1.8491
  146SAPE  C31016139   4.325   3.943   9.131 -0.0294  0.2420  0.4297
  146SAPE  H10X16140   4.227   3.990   9.150 -0.6263 -1.6797  2.3966
  146SAPE  H10Y16141   4.312   3.861   9.057  3.5656  0.1331 -0.1898
  146SAPE  C31116142   4.420   4.049   9.073  0.4489  0.5543 -0.5596
  146SAPE  H11X16143   4.507   3.990   9.038 -2.0748 -4.0183  0.4841
  146SAPE  H11Y16144   4.439   4.120   9.157 -0.9988  0.6739 -0.3198
  146SAPE  C31216145   4.374   4.118   8.939 -0.0646 -0.9048  0.4098
  146SAPE  H12X16146   4.265   4.138   8.935 -0.3222 -1.2323  3.8163
  146SAPE  H12Y16147   4.407   4.053   8.855 -0.7642  3.8635 -3.7591
  146SAPE  C31316148   4.442   4.253   8.912 -0.3403  0.0493  0.0283
  146SAPE  H13X16149   4.550   4.243   8.887 -0.3710  0.8576 -0.4616
  146SAPE  H13Y16150   4.449   4.320   9.000  0.4273  0.1576 -0.1113
  146SAPE  C31416151   4.378   4.330   8.785  0.0354  0.8390  0.2021
  146SAPE  H14X16152   4.417   4.431   8.758 -0.0174  0.2500 -2.1944
  146SAPE  H14Y16153   4.274   4.353   8.815  0.9676  3.6800  1.5013
  146SAPE  C31516154   4.383   4.262   8.649  0.5916 -0.9275  0.4956
  146SAPE  H15X16155   4.311   4.314   8.583  1.2691 -0.3964  0.1621
  146SAPE  H15Y16156   4.349   4.157   8.660 -1.5247 -0.5310 -1.8871
  146SAPE  C31616157   4.526   4.269   8.590  0.4342 -0.2214  0.2180
  146SAPE  H16X16158   4.601   4.226   8.660  1.5399  1.3691  0.0498
  146SAPE  H16Y16159   4.548   4.377   8.572  3.1304 -0.7770 -0.0677
  146SAPE  C31716160   4.533   4.201   8.451 -0.0799  0.4877  0.3450
  146SAPE  H17X16161   4.465   4.249   8.379  1.7190 -0.4407 -2.0241
  146SAPE  H17Y16162   4.493   4.098   8.462 -1.6368  0.9881 -0.4782
  146SAPE  C31816163   4.676   4.211   8.387 -0.4964  0.5747 -0.4327
  146SAPE  H18X16164   4.671   4.273   8.295  0.8704  2.4680  0.7510
  146SAPE  H18Y16165   4.703   4.106   8.363  2.6897  1.6851 -1.9196
  146SAPE  H18Z16166   4.746   4.248   8.464  1.2347 -1.8330 -0.8010
  147SAPE     N16167   6.068   6.783  10.895  0.2877  0.2505 -0.0583
  147SAPE   HN116168   6.006   6.793  10.978  0.3997  1.6661 -0.1240
  147SAPE   HN216169   6.109   6.690  10.875 -2.7758 -1.5716  1.7252
  147SAPE   HN316170   6.151   6.844  10.911  1.9712 -2.0184  0.0445
  147SAPE   C1216171   5.995   6.822  10.768  0.6869  0.1461 -0.3974
  147SAPE  H12A16172   6.067   6.851  10.689  0.0177 -1.9434 -1.8085
  147SAPE  H12B16173   5.934   6.911  10.796  1.5655  1.0357 -1.3024
  147SAPE   C1116174   5.900   6.709  10.729 -0.0287  0.0251 -0.3760
  147SAPE  H11A16175   5.956   6.613  10.724  1.5483  0.9184 -0.1585
  147SAPE  H11B16176   5.857   6.734  10.629  1.3577  0.1216 -0.9581
  147SAPE     P16177   5.648   6.735  10.809  0.1539 -0.2154 -0.1134
  147SAPE   O1316178   5.581   6.684  10.927 -0.3255  0.1073 -0.2666
  147SAPE   O1416179   5.649   6.883  10.805  0.3873 -0.6491  0.2906
  147SAPE   O1216180   5.799   6.686  10.824 -0.1129 -1.1218 -0.0401
  147SAPE   O1116181   5.581   6.677  10.679 -0.0407 -0.2624 -0.0206
  147SAPE    C116182   5.556   6.535  10.657 -0.5727 -0.4860 -1.4445
  147SAPE    HA16183   5.610   6.474  10.733  0.3076  1.4913 -0.4321
  147SAPE    HB16184   5.448   6.509  10.666 -0.3878 -0.7305  0.2149
  147SAPE    C216185   5.613   6.495  10.519  0.1712  0.4461 -0.6990
  147SAPE    HS16186   5.722   6.514  10.526  0.3772 -0.1493 -2.0905
  147SAPE   O2116187   5.551   6.578  10.414 -0.5372  0.8580 -0.4035
  147SAPE   C2116188   5.618   6.698  10.388 -0.6654 -0.1015 -0.7632
  147SAPE   O2216189   5.723   6.728  10.446  0.8952  0.0906 -0.5320
  147SAPE   C2216190   5.544   6.772  10.275 -0.6955 -0.6133  0.0228
  147SAPE   H2R16191   5.570   6.702  10.193  0.0178 -0.4618  0.1163
  147SAPE   H2S16192   5.434   6.781  10.287 -0.7100 -1.8031  0.7558
  147SAPE    C316193   5.584   6.352  10.489  0.3739 -0.4278  0.0927
  147SAPE    HX16194   5.474   6.339  10.486  0.2670  0.7066 -0.9131
  147SAPE    HY16195   5.629   6.299  10.576  0.4144  0.1762  0.4404
  147SAPE   O3116196   5.645   6.300  10.364 -0.1341  0.7563 -0.6824
  147SAPE   C3116197   5.590   6.188  10.329  0.4909  0.0152 -0.7544
  147SAPE   O3216198   5.484   6.141  10.375 -0.3516 -0.5797  0.2499
  147SAPE   C3216199   5.688   6.111  10.236 -0.4691  0.0072 -0.2119
  147SAPE   H2X16200   5.770   6.075  10.301  1.5938  1.3101 -2.0080
  147SAPE   H2Y16201   5.738   6.193  10.180 -1.4254  0.3811 -0.5332
  147SAPE   C2316202   5.596   6.913  10.254 -0.3765  0.5974  0.2161
  147SAPE   H3R16203   5.703   6.911  10.223 -0.8955 -2.6263 -1.5531
  147SAPE   H3S16204   5.602   6.973  10.348  1.5702  1.6339 -0.5459
  147SAPE   C2416205   5.510   6.984  10.154  0.6009 -0.1943 -0.2703
  147SAPE   H4R16206   5.399   6.978  10.163  0.8087 -2.2804  1.0643
  147SAPE   H4S16207   5.533   6.951  10.050 -0.1364  0.8390 -0.7669
  147SAPE   C2516208   5.546   7.134  10.159 -0.4651  0.4178  0.5767
  147SAPE   H5R16209   5.506   7.188  10.246 -1.9207  0.0213  0.1673
  147SAPE   C2616210   5.609   7.199  10.055  0.6272 -0.1216  0.6524
  147SAPE   H6R16211   5.629   7.306  10.063 -1.2468  0.4305 -1.4328
  147SAPE   C2716212   5.640   7.140   9.921 -0.1166 -0.1149  0.0160
  147SAPE   H7R16213   5.662   7.223   9.851 -0.1824  2.0091  2.4294
  147SAPE   H7S16214   5.553   7.087   9.877 -0.6323  0.5383  0.2426
  147SAPE   C2816215   5.749   7.035   9.937  0.1543 -0.0426  0.7696
  147SAPE   H8R16216   5.803   7.052  10.031  2.2615  2.2929 -0.7873
  147SAPE   C2916217   5.784   6.936   9.856 -0.7158 -0.4173 -0.5630
  147SAPE   H9R16218   5.878   6.883   9.879  0.7045  1.5181 -1.7034
  147SAPE  C21016219   5.720   6.891   9.728  0.2121 -0.2134  0.2463
  147SAPE  H10R16220   5.611   6.913   9.726  0.2075 -0.3577 -1.3102
  147SAPE  H10S16221   5.713   6.780   9.729 -0.5777 -0.1663  0.0836
  147SAPE  C21116222   5.782   6.942   9.601  0.2468  0.4849 -0.1084
  147SAPE  H11R16223   5.865   7.013   9.611 -0.2976  1.1106 -0.0204
  147SAPE  C21216224   5.725   6.920   9.487 -0.2427 -0.4878  0.6515
  147SAPE  H12R16225   5.777   6.960   9.398  3.0501 -1.7562  1.9563
  147SAPE  C21316226   5.608   6.831   9.469 -0.6927 -0.1677 -0.2232
  147SAPE  H13R16227   5.527   6.878   9.530 -0.0332  1.9275 -0.9007
  147SAPE  H13S16228   5.635   6.730   9.505 -0.2704  0.4386  1.2157
  147SAPE  C21416229   5.550   6.825   9.329  1.0395  0.4831 -0.0620
  147SAPE  H14R16230   5.446   6.859   9.324  1.7249  2.3779 -2.1515
  147SAPE  C21516231   5.605   6.772   9.219 -0.1412 -0.3354 -0.3451
  147SAPE  H15R16232   5.544   6.756   9.128 -1.8062 -1.5994  0.9549
  147SAPE  C21616233   5.746   6.724   9.212  0.1846 -0.4615 -0.7131
  147SAPE  H16R16234   5.744   6.614   9.192  0.9572 -0.4933 -0.6395
  147SAPE  H16S16235   5.802   6.752   9.303 -1.0885  4.0012 -1.1836
  147SAPE  C21716236   5.827   6.790   9.096  0.2005 -0.7944 -0.3729
  147SAPE  H17R16237   5.934   6.785   9.122  0.0051 -1.4684  0.3033
  147SAPE  H17S16238   5.808   6.900   9.106  0.8850 -0.8173  1.3055
  147SAPE  C21816239   5.811   6.732   8.958  0.0057  0.4453 -0.0607
  147SAPE  H18R16240   5.708   6.743   8.918  0.3517  1.7163 -0.6387
  147SAPE  H18S16241   5.841   6.625   8.947 -1.4478 -0.0593  0.7376
  147SAPE  C21916242   5.911   6.806   8.858 -0.2612  0.7430 -0.4092
  147SAPE  H19R16243   5.907   6.739   8.769 -2.5332  0.6468 -0.2685
  147SAPE  H19S16244   6.013   6.793   8.899  0.4519 -0.2536 -2.4043
  147SAPE  C22016245   5.878   6.946   8.827  0.4113 -0.3545 -0.4426
  147SAPE  H20R16246   5.790   6.968   8.762 -1.5343 -2.5765  1.3747
  147SAPE  H20S16247   5.965   7.008   8.795 -0.4818  1.4430  0.5440
  147SAPE  H20T16248   5.854   7.005   8.918 -0.6993  1.6582 -1.9818
  147SAPE   C3316249   5.628   6.008  10.132  0.0742 -0.2276  0.4678
  147SAPE   H3X16250   5.539   5.957  10.175  1.3834 -1.9153  1.1972
  147SAPE   H3Y16251   5.699   5.924  10.124 -0.1101 -0.1852 -1.8283
  147SAPE   C3416252   5.591   6.077   9.998  0.3508  0.2562 -0.0231
  147SAPE   H4X16253   5.682   6.113   9.945 -0.7261  1.3715 -1.1495
  147SAPE   H4Y16254   5.514   6.155  10.019 -0.4104 -0.4165 -0.3099
  147SAPE   C3516255   5.529   5.983   9.896  0.1623 -0.2667  0.3732
  147SAPE   H5X16256   5.446   5.925   9.942  1.2739 -1.0746  1.4302
  147SAPE   H5Y16257   5.604   5.909   9.859  0.1609 -0.7672  1.3454
  147SAPE   C3616258   5.478   6.068   9.777 -0.2365 -0.6228  0.0919
  147SAPE   H6X16259   5.551   6.144   9.744  0.9847 -0.3408  3.2834
  147SAPE   H6Y16260   5.385   6.126   9.798  0.3027  0.8473 -1.5321
  147SAPE   C3716261   5.452   5.984   9.661 -0.1918  0.0911 -0.7898
  147SAPE   H7X16262   5.385   5.902   9.694  1.8846 -0.1937  2.9655
  147SAPE   H7Y16263   5.546   5.935   9.627  0.9690  1.4815  0.3611
  147SAPE   C3816264   5.389   6.052   9.534  0.8137  0.1783  0.9267
  147SAPE   H8X16265   5.442   6.139   9.491 -0.5666  0.3721 -0.4037
  147SAPE   H8Y16266   5.290   6.099   9.552 -1.1302 -2.3187 -2.7154
  147SAPE   C3916267   5.371   5.952   9.416  0.4377  0.3573 -0.3490
  147SAPE   H9X16268   5.292   5.880   9.449  0.2576  0.6092 -0.2344
  147SAPE   H9Y16269   5.470   5.905   9.400  0.1678 -0.2587 -0.2504
  147SAPE  C31016270   5.332   6.024   9.282 -0.5354 -0.0631  0.5729
  147SAPE  H10X16271   5.411   6.098   9.257  0.6336 -1.3010  0.6300
  147SAPE  H10Y16272   5.230   6.066   9.299 -0.1286  0.5848  1.4326
  147SAPE  C31116273   5.322   5.926   9.166 -0.4131  0.6409 -0.2783
  147SAPE  H11X16274   5.253   5.841   9.186  0.1186  0.1897 -0.3404
  147SAPE  H11Y16275   5.426   5.888   9.170 -0.3977  0.6063 -0.9827
  147SAPE  C31216276   5.274   5.989   9.035 -0.6110  0.9982 -0.2919
  147SAPE  H12X16277   5.307   6.094   9.020  0.7814  0.6923  0.5967
  147SAPE  H12Y16278   5.163   6.001   9.038 -0.7971 -0.8747  1.1281
  147SAPE  C31316279   5.322   5.913   8.914  0.0654  0.0966  0.3569
  147SAPE  H13X16280   5.286   5.808   8.923 -3.0901  1.2094  1.5648
  147SAPE  H13Y16281   5.433   5.917   8.919  0.0865 -1.5097  1.8022
  147SAPE  C31416282   5.261   5.977   8.788 -0.5638 -0.1784  0.9182
  147SAPE  H14X16283   5.288   6.084   8.776 -0.2276 -0.3517  0.0082
  147SAPE  H14Y16284   5.150   5.974   8.794 -0.6150  2.0215  1.4161
  147SAPE  C31516285   5.293   5.893   8.655  0.5158  0.3977  0.1246
  147SAPE  H15X16286   5.259   5.788   8.672 -1.5716  0.8952 -0.8731
  147SAPE  H15Y16287   5.402   5.891   8.633  0.0695  0.5064 -2.1201
  147SAPE  C31616288   5.226   5.966   8.532 -0.6026  0.1765 -0.3983
  147SAPE  H16X16289   5.241   6.076   8.526  1.7402  0.0644  2.1259
  147SAPE  H16Y16290   5.119   5.953   8.560 -1.3502  1.1423 -2.7377
  147SAPE  C31716291   5.248   5.898   8.394 -0.3598  0.7648 -0.9169
  147SAPE  H17X16292   5.221   5.791   8.405  2.4980  0.0850 -0.0687
  147SAPE  H17Y16293   5.356   5.897   8.366 -0.3495  0.4504 -0.8684
  147SAPE  C31816294   5.195   5.980   8.284  0.0818 -0.1308  0.5950
  147SAPE  H18X16295   5.186   5.930   8.185  5.6313 -1.5098  0.6383
  147SAPE  H18Y16296   5.230   6.085   8.269  1.4417 -0.7511 -0.7115
  147SAPE  H18Z16297   5.093   6.002   8.324 -0.1041  1.7949 -0.8459
  148SAPE     N16298   0.442   2.468  10.782  0.2589 -0.7100  0.0596
  148SAPE   HN116299   0.466   2.490  10.683  0.9841 -0.6501  0.2486
  148SAPE   HN216300   0.345   2.432  10.797  0.0015 -0.6418 -1.3207
  148SAPE   HN316301   0.452   2.560  10.830  0.0708 -0.5313 -0.2403
  148SAPE   C1216302   0.538   2.363  10.830  0.0992  0.2139 -0.0325
  148SAPE  H12A16303   0.522   2.333  10.936  1.0872  0.2938  0.1493
  148SAPE  H12B16304   0.636   2.416  10.837  0.6427 -0.7929  0.0129
  148SAPE   C1116305   0.535   2.246  10.727 -0.5981 -1.3044  0.2918
  148SAPE  H11A16306   0.434   2.200  10.735 -1.2248  0.1812  1.1173
  148SAPE  H11B16307   0.613   2.171  10.753  0.4018 -0.4857 -0.2845
  148SAPE     P16308   0.654   2.240  10.486  0.4698 -0.0201  0.0016
  148SAPE   O1316309   0.733   2.353  10.445 -0.0786 -0.1873  0.9564
  148SAPE   O1416310   0.720   2.112  10.529 -0.3856 -0.3163  0.4158
  148SAPE   O1216311   0.549   2.295  10.594  0.0114 -0.7972 -0.0687
  148SAPE   O1116312   0.568   2.203  10.360  0.5851  0.0209  0.5643
  148SAPE    C116313   0.439   2.261  10.333 -0.2835 -0.0574 -0.0477
  148SAPE    HA16314   0.436   2.370  10.355 -4.0576  0.1270 -1.1246
  148SAPE    HB16315   0.424   2.279  10.224  0.6748  1.4759  0.0482
  148SAPE    C216316   0.311   2.190  10.383 -0.0726 -0.2850 -0.4111
  148SAPE    HS16317   0.324   2.172  10.492 -0.1094  0.8141 -0.2264
  148SAPE   O2116318   0.305   2.071  10.305 -0.2427 -0.1355 -0.1338
  148SAPE   C2116319   0.206   1.995  10.347  0.2351  0.1911  0.1796
  148SAPE   O2216320   0.143   2.006  10.450 -0.4956 -0.0450  0.3501
  148SAPE   C2216321   0.185   1.876  10.257  0.8587  0.4780 -0.2576
  148SAPE   H2R16322   0.160   1.915  10.156 -1.3607 -0.9472 -0.3070
  148SAPE   H2S16323   0.280   1.821  10.272  1.0758  0.5094 -1.4911
  148SAPE    C316324   0.193   2.287  10.362 -0.5259  0.3012  0.2063
  148SAPE    HX16325   0.200   2.370  10.436 -0.1527 -0.1782  0.7098
  148SAPE    HY16326   0.100   2.232  10.388 -2.1959  2.5115 -0.8758
  148SAPE   O3116327   0.200   2.336  10.227 -0.0863 -0.7969  0.0339
  148SAPE   C3116328   0.129   2.268  10.140  0.3238  0.6279 -0.1618
  148SAPE   O3216329   0.049   2.179  10.174 -0.1382  0.2698  0.5958
  148SAPE   C3216330   0.154   2.303  10.000  0.3341 -0.2742  0.3157
  148SAPE   H2X16331   0.161   2.413   9.988 -0.4181  0.2110  3.8023
  148SAPE   H2Y16332   0.060   2.270   9.951  0.7972 -0.5957 -0.3628
  148SAPE   C2316333   0.068   1.776  10.286  0.0850 -0.1192  0.5089
  148SAPE   H3R16334  -0.014   1.842  10.324 -0.8649  0.3173 -2.2330
  148SAPE   H3S16335   0.101   1.706  10.366 -0.2533 -0.1267  0.6394
  148SAPE   C2416336   0.014   1.715  10.156 -0.0790  0.6565  0.6259
  148SAPE   H4R16337  -0.024   1.802  10.099 -0.3563  0.3106  0.2749
  148SAPE   H4S16338  -0.071   1.644  10.165  1.1527 -0.7264  1.7197
  148SAPE   C2516339   0.124   1.646  10.082  0.2133  0.0746  0.4950
  148SAPE   H5R16340   0.183   1.575  10.142  0.6879  0.0724  0.0190
  148SAPE   C2616341   0.161   1.662   9.950  0.3811  0.7685  0.6620
  148SAPE   H6R16342   0.238   1.596   9.907 -2.6934 -2.0525 -0.7249
  148SAPE   C2716343   0.101   1.759   9.846 -0.4560  0.2346 -0.3373
  148SAPE   H7R16344   0.022   1.822   9.892  0.2023  1.4538 -0.8410
  148SAPE   H7S16345   0.049   1.705   9.765 -2.4642 -0.6793  1.5099
  148SAPE   C2816346   0.210   1.855   9.800 -0.6267 -0.0938 -0.2903
  148SAPE   H8R16347   0.269   1.904   9.879  0.8477  3.0401 -3.2092
  148SAPE   C2916348   0.236   1.879   9.672 -0.0303 -0.5477 -0.2158
  148SAPE   H9R16349   0.323   1.945   9.654  0.5660 -1.3566 -0.3082
  148SAPE  C21016350   0.165   1.827   9.550  0.7623 -0.3567 -0.9440
  148SAPE  H10R16351   0.064   1.786   9.571  0.9436 -1.6480 -2.5143
  148SAPE  H10S16352   0.227   1.744   9.511 -0.5009 -1.9812  0.4149
  148SAPE  C21116353   0.152   1.948   9.465  0.0631  0.4187  0.7323
  148SAPE  H11R16354   0.103   2.028   9.522  1.0304  2.1429 -0.8099
  148SAPE  C21216355   0.199   1.974   9.342  0.1668 -0.6410  0.3994
  148SAPE  H12R16356   0.169   2.064   9.288 -0.0553 -0.1549  1.3248
  148SAPE  C21316357   0.272   1.875   9.257 -0.2711 -0.1752 -0.0123
  148SAPE  H13R16358   0.196   1.810   9.210 -0.9946 -0.3962  1.4594
  148SAPE  H13S16359   0.350   1.818   9.313  0.6677  0.0069 -1.0946
  148SAPE  C21416360   0.368   1.937   9.157  0.0740 -0.1824 -0.0287
  148SAPE  H14R16361   0.452   1.991   9.204  0.1594 -1.0452  0.8369
  148SAPE  C21516362   0.360   1.919   9.023  0.3751 -0.3406 -0.2260
  148SAPE  H15R16363   0.431   1.968   8.955 -0.0239 -2.4829 -2.2234
  148SAPE  C21616364   0.257   1.836   8.945 -0.3741 -0.5744  0.3174
  148SAPE  H16R16365   0.193   1.904   8.883  1.2010 -0.1773 -0.9084
  148SAPE  H16S16366   0.192   1.784   9.019  1.2064 -0.2057  2.0052
  148SAPE  C21716367   0.332   1.745   8.847  0.1378 -0.1865  0.0666
  148SAPE  H17R16368   0.368   1.650   8.893  2.8876 -1.3227 -4.1569
  148SAPE  H17S16369   0.427   1.791   8.813  1.6151 -1.1927  2.6758
  148SAPE  C21816370   0.235   1.712   8.733 -1.2299  0.4967 -0.3654
  148SAPE  H18R16371   0.171   1.796   8.700 -1.7392  0.6148  0.9260
  148SAPE  H18S16372   0.164   1.631   8.759 -1.2335  0.0417 -1.7199
  148SAPE  C21916373   0.299   1.672   8.599 -0.2182 -0.7513 -0.1466
  148SAPE  H19R16374   0.301   1.562   8.582 -2.7970 -0.8275 -0.1884
  148SAPE  H19S16375   0.403   1.711   8.592 -0.2894 -0.8368 -1.8639
  148SAPE  C22016376   0.221   1.725   8.481 -0.1657  0.5598  0.7538
  148SAPE  H20R16377   0.120   1.680   8.471  0.5685 -0.8279 -0.6495
  148SAPE  H20S16378   0.276   1.698   8.388  0.3279  2.7042  0.3983
  148SAPE  H20T16379   0.226   1.836   8.481 -3.4054  0.7995 -1.7567
  148SAPE   C3316380   0.281   2.240   9.947 -0.2501 -0.0026  0.3299
  148SAPE   H3X16381   0.253   2.137   9.917 -0.6391  0.3044 -0.3774
  148SAPE   H3Y16382   0.365   2.229  10.019 -0.1113 -0.1344  0.1512
  148SAPE   C3416383   0.333   2.315   9.819  0.7520 -0.3895 -0.6902
  148SAPE   H4X16384   0.408   2.241   9.783  0.9216 -1.3026  1.4355
  148SAPE   H4Y16385   0.375   2.416   9.836 -0.2018  0.1453 -1.5136
  148SAPE   C3516386   0.229   2.329   9.715  0.3970  0.0982 -0.0816
  148SAPE   H5X16387   0.168   2.418   9.738  0.7002  0.5571 -1.0127
  148SAPE   H5Y16388   0.166   2.237   9.717  1.9818 -1.0972 -2.2414
  148SAPE   C3616389   0.295   2.335   9.574 -0.2725  0.6890  0.1813
  148SAPE   H6X16390   0.361   2.246   9.566 -0.7471  0.4243 -0.8370
  148SAPE   H6Y16391   0.368   2.418   9.584 -0.1624  0.9362 -2.3624
  148SAPE   C3716392   0.207   2.349   9.449  0.5251 -0.2545 -0.9451
  148SAPE   H7X16393   0.158   2.448   9.462  1.2070  0.0921 -1.0044
  148SAPE   H7Y16394   0.138   2.262   9.446  2.5012 -1.8996  0.0490
  148SAPE   C3816395   0.298   2.350   9.327 -0.2214  0.2301 -0.6530
  148SAPE   H8X16396   0.341   2.249   9.309 -2.1499 -0.6163 -0.5431
  148SAPE   H8Y16397   0.375   2.429   9.343 -0.0919  0.3382 -1.7838
  148SAPE   C3916398   0.231   2.377   9.194  0.6501 -0.0809  0.5364
  148SAPE   H9X16399   0.177   2.475   9.187  0.3285 -0.1925  1.4691
  148SAPE   H9Y16400   0.158   2.294   9.185 -0.8333  1.3287 -1.2628
  148SAPE  C31016401   0.316   2.377   9.072 -0.1331  0.0414  0.4310
  148SAPE  H10X16402   0.377   2.284   9.069 -1.7278 -1.0260  0.2849
  148SAPE  H10Y16403   0.383   2.465   9.071  1.3925 -1.0968  0.1861
  148SAPE  C31116404   0.245   2.371   8.938  0.5758  0.6266  0.4129
  148SAPE  H11X16405   0.175   2.454   8.916  0.0570 -0.2136 -1.2565
  148SAPE  H11Y16406   0.179   2.282   8.934 -0.2589  1.2804 -0.9335
  148SAPE  C31216407   0.347   2.343   8.826  0.5796 -0.6096  0.3929
  148SAPE  H12X16408   0.292   2.284   8.749 -0.4803  1.3983 -0.4146
  148SAPE  H12Y16409   0.425   2.270   8.859  1.5574 -0.3779 -1.3587
  148SAPE  C31316410   0.409   2.470   8.764 -0.1362  0.6143  0.2732
  148SAPE  H13X16411   0.461   2.534   8.838  0.1357 -0.0852  0.6948
  148SAPE  H13Y16412   0.329   2.536   8.723 -2.8220 -1.1609  2.4314
  148SAPE  C31416413   0.505   2.429   8.652 -0.3561 -0.8090  0.2276
  148SAPE  H14X16414   0.588   2.360   8.675  1.9690  2.0713  0.7880
  148SAPE  H14Y16415   0.553   2.527   8.629 -1.0196 -0.5245  0.0462
  148SAPE  C31516416   0.426   2.396   8.522 -0.2641 -0.4435 -0.3762
  148SAPE  H15X16417   0.338   2.463   8.518  0.7387  1.1964  3.0363
  148SAPE  H15Y16418   0.376   2.296   8.523 -2.4546  0.6195  1.6801
  148SAPE  C31616419   0.503   2.412   8.400  0.4297 -0.2680 -0.2189
  148SAPE  H16X16420   0.589   2.341   8.404 -1.2717 -2.4392 -1.4353
  148SAPE  H16Y16421   0.535   2.518   8.399 -3.6235  1.0356 -0.7714
  148SAPE  C31716422   0.420   2.385   8.270  1.1026  0.5062  0.2824
  148SAPE  H17X16423   0.324   2.439   8.280 -0.3432 -1.5921 -1.6805
  148SAPE  H17Y16424   0.392   2.280   8.248  0.2300  1.0749 -1.3800
  148SAPE  C31816425   0.493   2.438   8.144 -0.5687  0.6064  0.0823
  148SAPE  H18X16426   0.598   2.404   8.151 -1.0232 -0.5065  1.6661
  148SAPE  H18Y16427   0.499   2.549   8.148  1.6176  0.5649 -1.3004
  148SAPE  H18Z16428   0.449   2.393   8.052  0.5123 -1.5703  0.5902
  149SAPE     N16429   2.941   4.035  11.087  0.1966  0.8195  0.0126
  149SAPE   HN116430   2.981   4.070  11.177  0.7018  0.5168 -0.0966
  149SAPE   HN216431   3.021   4.007  11.027 -0.0211  0.2395 -0.0133
  149SAPE   HN316432   2.881   4.114  11.054 -0.3603  1.1135  1.6454
  149SAPE   C1216433   2.846   3.915  11.112 -0.0180  0.6871 -0.0116
  149SAPE  H12A16434   2.765   3.958  11.174  1.0897 -1.7856  3.3479
  149SAPE  H12B16435   2.912   3.847  11.170 -0.8385  1.2255  1.5797
  149SAPE   C1116436   2.791   3.863  10.981  0.1960  0.4534  0.4073
  149SAPE  H11A16437   2.742   3.769  11.011  1.0354  0.1755  0.9236
  149SAPE  H11B16438   2.873   3.831  10.914  0.3747 -0.1831  0.9226
  149SAPE     P16439   2.540   3.947  10.975 -0.0988  0.7519 -0.3641
  149SAPE   O1316440   2.529   3.842  11.079 -0.1809  0.6901 -0.1784
  149SAPE   O1416441   2.493   4.085  11.013  0.5882  1.0036 -0.2761
  149SAPE   O1216442   2.693   3.954  10.926 -0.3372 -0.4543  0.1480
  149SAPE   O1116443   2.467   3.907  10.846 -0.1654 -0.4719  0.2611
  149SAPE    C116444   2.505   3.782  10.787  0.5360  0.2934 -0.2904
  149SAPE    HA16445   2.522   3.700  10.861  0.9162  2.7542  2.4657
  149SAPE    HB16446   2.421   3.741  10.727 -0.5448  1.1487  0.6179
  149SAPE    C216447   2.613   3.803  10.676  0.0383 -0.0407  0.3709
  149SAPE    HS16448   2.705   3.820  10.736 -1.8806  2.6730  2.6653
  149SAPE   O2116449   2.573   3.900  10.584 -0.0696 -0.2407 -0.5842
  149SAPE   C2116450   2.665   3.954  10.507 -0.0091  0.4393 -0.2722
  149SAPE   O2216451   2.783   3.937  10.527 -0.5241 -0.0548 -0.0148
  149SAPE   C2216452   2.595   4.037  10.405 -0.4571  0.6689  0.2386
  149SAPE   H2R16453   2.490   4.004  10.389 -0.7853  0.9208  1.7619
  149SAPE   H2S16454   2.576   4.140  10.443 -0.4676  0.9157 -0.4309
  149SAPE    C316455   2.637   3.665  10.609 -0.0266 -0.2345 -0.2682
  149SAPE    HX16456   2.684   3.601  10.687 -0.6786 -1.2023 -0.6515
  149SAPE    HY16457   2.706   3.690  10.525 -0.4629 -0.1110 -0.5903
  149SAPE   O3116458   2.513   3.606  10.560  0.1742 -0.2641  0.5674
  149SAPE   C3116459   2.527   3.482  10.509 -0.9549  0.5429 -0.2215
  149SAPE   O3216460   2.636   3.431  10.489 -0.2010  0.6218 -0.4353
  149SAPE   C3216461   2.393   3.408  10.472 -0.8037 -0.1414 -0.4323
  149SAPE   H2X16462   2.329   3.488  10.427 -0.6107  0.3184  0.1129
  149SAPE   H2Y16463   2.349   3.381  10.570  0.4927 -1.8609 -0.3128
  149SAPE   C2316464   2.672   4.040  10.269  0.3667 -0.0100  0.0886
  149SAPE   H3R16465   2.774   4.082  10.282  0.4514  0.0137 -0.6430
  149SAPE   H3S16466   2.621   4.103  10.193  0.9910 -1.0235 -1.1832
  149SAPE   C2416467   2.674   3.900  10.204 -0.4247 -0.6207 -0.2885
  149SAPE   H4R16468   2.571   3.876  10.168 -1.1670  0.0848  1.3091
  149SAPE   H4S16469   2.700   3.826  10.283  1.2804  1.3449  1.0157
  149SAPE   C2516470   2.781   3.898  10.093 -0.0565 -0.2076 -0.2230
  149SAPE   H5R16471   2.876   3.851  10.124  0.4027  0.7505 -0.1621
  149SAPE   C2616472   2.761   3.942   9.963 -1.2645  0.0802  0.2660
  149SAPE   H6R16473   2.843   3.928   9.891 -1.8087 -0.9859 -0.1567
  149SAPE   C2716474   2.642   4.013   9.901 -0.3059 -0.8426 -0.4582
  149SAPE   H7R16475   2.693   4.101   9.855  0.4005  0.6774  2.9852
  149SAPE   H7S16476   2.582   4.064   9.980 -0.3231  2.3270 -2.4180
  149SAPE   C2816477   2.563   3.923   9.809 -0.1469 -0.1046  0.2607
  149SAPE   H8R16478   2.516   3.835   9.856 -0.0394 -1.2112 -1.6158
  149SAPE   C2916479   2.548   3.944   9.677 -0.8891 -0.6436 -0.8197
  149SAPE   H9R16480   2.487   3.864   9.634 -0.1567 -1.4065 -0.4524
  149SAPE  C21016481   2.598   4.058   9.595 -0.0925 -0.0563  0.6888
  149SAPE  H10R16482   2.659   4.122   9.663  1.9886 -0.7712 -0.4320
  149SAPE  H10S16483   2.507   4.098   9.546 -1.0145 -0.5845  1.9549
  149SAPE  C21116484   2.694   3.994   9.491 -0.3725 -0.2091  0.4513
  149SAPE  H11R16485   2.715   3.886   9.498 -1.1369 -0.4140 -0.2788
  149SAPE  C21216486   2.757   4.065   9.389 -0.4503 -0.2293 -0.3049
  149SAPE  H12R16487   2.819   4.010   9.317 -0.3276 -1.2013  0.5411
  149SAPE  C21316488   2.730   4.213   9.366  0.1249  0.4241 -0.1377
  149SAPE  H13R16489   2.713   4.252   9.469 -0.4400  0.2986 -0.1826
  149SAPE  H13S16490   2.632   4.232   9.317 -0.1276  1.1353  0.6330
  149SAPE  C21416491   2.848   4.287   9.312  0.3053 -0.0269  0.0814
  149SAPE  H14R16492   2.896   4.333   9.399  0.4165 -0.6627  0.3606
  149SAPE  C21516493   2.877   4.309   9.183  0.6161  0.4938 -0.1920
  149SAPE  H15R16494   2.971   4.360   9.157 -0.4734  1.6937 -1.9505
  149SAPE  C21616495   2.799   4.249   9.064 -1.0459  0.6239 -0.9298
  149SAPE  H16R16496   2.724   4.174   9.098  0.9683 -1.4022 -0.8657
  149SAPE  H16S16497   2.868   4.198   8.993 -0.6935 -1.3438  0.7724
  149SAPE  C21716498   2.733   4.352   8.968 -0.3028 -0.3667  0.1198
  149SAPE  H17R16499   2.655   4.399   9.032  2.7691  2.6236  1.7942
  149SAPE  H17S16500   2.669   4.307   8.889 -2.5774 -0.9208  2.1913
  149SAPE  C21816501   2.826   4.459   8.908 -0.0894  0.2190 -0.3516
  149SAPE  H18R16502   2.838   4.545   8.978  1.9534 -0.1964 -0.1601
  149SAPE  H18S16503   2.778   4.505   8.818  0.4022 -0.4132 -0.9425
  149SAPE  C21916504   2.965   4.403   8.862 -0.5263 -0.2343 -0.2405
  149SAPE  H19R16505   2.943   4.314   8.799 -0.1412 -0.3682 -0.1864
  149SAPE  H19S16506   3.017   4.369   8.954 -0.6478  2.4644  0.8585
  149SAPE  C22016507   3.047   4.505   8.787 -0.1180 -0.2517 -0.7355
  149SAPE  H20R16508   3.131   4.454   8.734  0.6455  0.2429 -0.0007
  149SAPE  H20S16509   3.087   4.580   8.858 -0.3308  1.1619 -2.0774
  149SAPE  H20T16510   2.999   4.566   8.707 -1.4541 -1.0226 -0.5486
  149SAPE   C3316511   2.411   3.279  10.388 -0.0259 -0.2801  0.1445
  149SAPE   H3X16512   2.317   3.222  10.401  0.8226 -2.3805 -2.3822
  149SAPE   H3Y16513   2.497   3.218  10.423 -1.1076 -2.6826 -1.2512
  149SAPE   C3416514   2.445   3.317  10.241  0.8175  0.3326  0.2336
  149SAPE   H4X16515   2.468   3.222  10.188  0.0056  0.5314 -0.4941
  149SAPE   H4Y16516   2.536   3.380  10.248  0.6698  0.6736 -0.8215
  149SAPE   C3516517   2.337   3.388  10.153  0.3915  0.9016 -0.8427
  149SAPE   H5X16518   2.343   3.495  10.183  1.4309  0.8566 -0.8570
  149SAPE   H5Y16519   2.239   3.338  10.169  0.8738  0.6571  1.5937
  149SAPE   C3616520   2.371   3.397  10.003  0.5334  0.3693 -0.9346
  149SAPE   H6X16521   2.274   3.426   9.958  0.5199  1.5691 -0.1426
  149SAPE   H6Y16522   2.402   3.302   9.953  3.6338  1.0958 -0.4764
  149SAPE   C3716523   2.469   3.506   9.970 -0.2088  0.5462 -0.5703
  149SAPE   H7X16524   2.561   3.472  10.021 -0.1154  0.5802 -0.7133
  149SAPE   H7Y16525   2.456   3.604  10.020  0.9657 -0.0096  0.8483
  149SAPE   C3816526   2.499   3.519   9.824  0.5238 -0.0477  0.5842
  149SAPE   H8X16527   2.574   3.601   9.816 -0.9487  1.1408 -1.1585
  149SAPE   H8Y16528   2.402   3.534   9.774  0.9497 -0.3213 -0.3360
  149SAPE   C3916529   2.582   3.402   9.767 -0.1151  0.0377 -1.0857
  149SAPE   H9X16530   2.524   3.309   9.745  0.7427 -0.3108 -1.9514
  149SAPE   H9Y16531   2.651   3.375   9.849 -0.5109 -0.9325 -1.0651
  149SAPE  C31016532   2.662   3.432   9.639  0.2867  0.4781 -0.0429
  149SAPE  H10X16533   2.755   3.373   9.640  1.8363  2.8582  1.0725
  149SAPE  H10Y16534   2.703   3.535   9.629  2.5597 -0.4869 -0.9688
  149SAPE  C31116535   2.570   3.414   9.515  0.4315 -0.3752  0.7281
  149SAPE  H11X16536   2.472   3.462   9.536  0.0425 -0.7584 -0.1932
  149SAPE  H11Y16537   2.544   3.309   9.493 -2.6212  0.8602 -1.8779
  149SAPE  C31216538   2.631   3.474   9.386  0.0074 -0.4084  0.6624
  149SAPE  H12X16539   2.735   3.438   9.375  0.4362  0.9517  0.1217
  149SAPE  H12Y16540   2.656   3.581   9.404  1.5798 -0.8019  0.8214
  149SAPE  C31316541   2.550   3.454   9.259 -0.0142 -0.5058 -0.7124
  149SAPE  H13X16542   2.445   3.484   9.276  0.3731 -0.2766  1.4473
  149SAPE  H13Y16543   2.551   3.348   9.227  1.3174 -0.9006  0.5518
  149SAPE  C31416544   2.604   3.537   9.138 -0.0229  0.1887  0.6118
  149SAPE  H14X16545   2.713   3.545   9.119 -0.4367 -0.9235 -2.3935
  149SAPE  H14Y16546   2.590   3.645   9.160 -0.7304  0.3980 -0.8190
  149SAPE  C31516547   2.533   3.505   9.003  0.0643  0.5901 -0.0794
  149SAPE  H15X16548   2.422   3.513   9.009 -0.1147 -1.2632 -0.5638
  149SAPE  H15Y16549   2.558   3.398   8.982 -2.3965  0.3008 -1.8320
  149SAPE  C31616550   2.589   3.584   8.874  0.0853  0.3486 -0.2989
  149SAPE  H16X16551   2.695   3.553   8.858 -0.0197 -0.4332  0.5164
  149SAPE  H16Y16552   2.587   3.692   8.899 -0.6907  0.4339 -0.7260
  149SAPE  C31716553   2.498   3.573   8.752  0.0445 -0.8116 -0.1430
  149SAPE  H17X16554   2.450   3.473   8.747 -0.4758 -0.5213 -0.9847
  149SAPE  H17Y16555   2.566   3.582   8.664  0.5902  0.4493  0.3964
  149SAPE  C31816556   2.396   3.683   8.747  0.2479  0.2354 -0.6627
  149SAPE  H18X16557   2.321   3.677   8.829  1.5540 -0.5677  0.4899
  149SAPE  H18Y16558   2.349   3.678   8.646  3.0808  0.1073 -2.0043
  149SAPE  H18Z16559   2.439   3.785   8.755  1.0696 -0.0873 -0.9261
  150SAPE     N16560   3.665   3.236  10.928  0.2681 -0.6496  0.2713
  150SAPE   HN116561   3.579   3.201  10.974 -1.3186  2.2934 -0.3104
  150SAPE   HN216562   3.745   3.201  10.983 -0.0539 -1.9961 -0.1149
  150SAPE   HN316563   3.656   3.340  10.935 -0.4019 -0.6460 -0.4364
  150SAPE   C1216564   3.675   3.179  10.788 -0.2295  1.1836 -0.4540
  150SAPE  H12A16565   3.751   3.235  10.728 -1.9515  1.8872 -2.0073
  150SAPE  H12B16566   3.584   3.201  10.728 -0.3250  1.4954 -0.1993
  150SAPE   C1116567   3.718   3.030  10.768  0.2503  0.3913 -0.1798
  150SAPE  H11A16568   3.745   3.019  10.661  0.0441  3.0658 -0.5333
  150SAPE  H11B16569   3.637   2.959  10.798  1.0537 -1.0460 -1.3210
  150SAPE     P16570   3.943   2.899  10.792  0.1695  0.0222  0.2005
  150SAPE   O1316571   4.045   2.876  10.897 -0.4084  0.3099 -0.5410
  150SAPE   O1416572   3.870   2.785  10.744 -0.2497  0.3911  0.2432
  150SAPE   O1216573   3.832   2.999  10.849 -0.7275 -0.0447  0.5980
  150SAPE   O1116574   4.010   2.980  10.677  0.0166  0.6351 -0.4290
  150SAPE    C116575   4.051   3.119  10.691  0.0772 -0.7400 -0.5822
  150SAPE    HA16576   3.959   3.168  10.729 -0.8780 -1.5029 -1.8793
  150SAPE    HB16577   4.131   3.136  10.766 -0.6203  0.6951 -0.1570
  150SAPE    C216578   4.103   3.183  10.556 -0.3356  0.7672 -0.0531
  150SAPE    HS16579   4.086   3.292  10.552 -1.9570  0.5069 -0.5116
  150SAPE   O2116580   4.035   3.128  10.441  0.2140 -0.3888  0.4975
  150SAPE   C2116581   3.903   3.148  10.440 -0.7073 -0.6182 -0.2170
  150SAPE   O2216582   3.839   3.229  10.500 -0.0826 -0.2823  0.2557
  150SAPE   C2216583   3.849   3.063  10.320  0.1704 -0.5750 -1.0091
  150SAPE   H2R16584   3.752   3.115  10.308  1.5971  2.6113  0.8201
  150SAPE   H2S16585   3.919   3.080  10.235  0.7087 -1.8958 -0.8485
  150SAPE    C316586   4.254   3.141  10.547  0.1751 -0.6225  0.1498
  150SAPE    HX16587   4.258   3.033  10.572  0.1968 -0.7201 -0.2703
  150SAPE    HY16588   4.311   3.202  10.620  2.1046 -0.8429 -1.1280
  150SAPE   O3116589   4.309   3.174  10.419 -0.6388  0.1179  0.3443
  150SAPE   C3116590   4.439   3.140  10.410 -0.0433 -0.3866  0.1944
  150SAPE   O3216591   4.499   3.079  10.498  0.0500  0.5573  0.8376
  150SAPE   C3216592   4.508   3.213  10.291 -0.0071  0.1674  0.8790
  150SAPE   H2X16593   4.518   3.316  10.329  0.3926  0.2889  0.4555
  150SAPE   H2Y16594   4.432   3.204  10.211  1.3599 -1.8462 -0.2433
  150SAPE   C2316595   3.836   2.909  10.358  0.1838  0.2526  0.4059
  150SAPE   H3R16596   3.758   2.889  10.434  0.2892  0.2293  0.5080
  150SAPE   H3S16597   3.928   2.866  10.403  2.0098  1.7654 -1.7761
  150SAPE   C2416598   3.806   2.820  10.235  0.0321  0.6582 -0.3930
  150SAPE   H4R16599   3.844   2.718  10.260 -0.8964  0.2275 -0.6895
  150SAPE   H4S16600   3.862   2.865  10.150  2.6266 -1.3613  0.1643
  150SAPE   C2516601   3.658   2.816  10.213  0.4919  0.3690 -0.5727
  150SAPE   H5R16602   3.590   2.819  10.300  2.0534  1.0525  0.6485
  150SAPE   C2616603   3.605   2.804  10.097  0.5246  0.3452  0.2526
  150SAPE   H6R16604   3.496   2.815  10.082  0.5625  0.8674  0.3381
  150SAPE   C2716605   3.679   2.789   9.967  0.1364  0.4733  0.1926
  150SAPE   H7R16606   3.627   2.720   9.896  0.8650  0.9900 -0.8541
  150SAPE   H7S16607   3.776   2.739   9.989  0.8722  1.6731 -0.2712
  150SAPE   C2816608   3.704   2.918   9.890 -0.2204 -0.4965 -0.8218
  150SAPE   H8R16609   3.736   3.002   9.952  1.2150 -1.0956 -0.7418
  150SAPE   C2916610   3.695   2.932   9.756 -0.2353  0.5942  0.6290
  150SAPE   H9R16611   3.728   3.024   9.706 -3.1242 -0.1577 -2.8164
  150SAPE  C21016612   3.675   2.820   9.657 -0.2779 -0.2038 -0.6461
  150SAPE  H10R16613   3.572   2.781   9.673 -0.8001  0.1403 -2.9796
  150SAPE  H10S16614   3.740   2.732   9.677 -0.6364  0.3640  3.4500
  150SAPE  C21116615   3.689   2.864   9.511  0.1096  0.2941 -0.7408
  150SAPE  H11R16616   3.623   2.942   9.470 -0.4693 -0.0478 -0.4604
  150SAPE  C21216617   3.781   2.807   9.428  0.9396 -0.1828 -0.9598
  150SAPE  H12R16618   3.792   2.848   9.326 -0.8678  2.0689 -0.3010
  150SAPE  C21316619   3.877   2.695   9.461 -0.0595  0.0149 -0.6398
  150SAPE  H13R16620   3.824   2.600   9.436 -3.2979  2.0192 -1.6686
  150SAPE  H13S16621   3.907   2.687   9.568 -0.5626  1.3246 -0.3981
  150SAPE  C21416622   4.006   2.707   9.387 -0.4460 -0.0086 -0.5640
  150SAPE  H14R16623   4.087   2.733   9.457  0.6393  0.5780 -2.0181
  150SAPE  C21516624   4.030   2.671   9.263  0.3242 -0.1514 -1.0017
  150SAPE  H15R16625   4.131   2.679   9.221  1.1042 -0.3299  0.8063
  150SAPE  C21616626   3.926   2.617   9.163  0.0497  0.2702  0.6113
  150SAPE  H16R16627   3.825   2.598   9.203  0.1050 -1.2306  0.0687
  150SAPE  H16S16628   3.960   2.517   9.129  1.2890  0.5901  0.8638
  150SAPE  C21716629   3.900   2.699   9.031 -0.1578 -0.0566  0.5594
  150SAPE  H17R16630   3.998   2.742   9.004 -0.3512  0.0479  0.0157
  150SAPE  H17S16631   3.830   2.784   9.047 -0.7309 -0.4885  0.3974
  150SAPE  C21816632   3.830   2.607   8.930 -0.0796 -0.3289 -0.3815
  150SAPE  H18R16633   3.726   2.589   8.967  0.0775  1.1821  0.8221
  150SAPE  H18S16634   3.888   2.514   8.912  0.8327 -0.5138  3.1039
  150SAPE  C21916635   3.825   2.682   8.790 -0.4270 -0.3267 -0.5740
  150SAPE  H19R16636   3.804   2.611   8.707  0.6141 -0.8718 -0.3795
  150SAPE  H19S16637   3.928   2.722   8.776 -0.1066 -1.2133 -0.7611
  150SAPE  C22016638   3.728   2.800   8.780  0.8343 -0.5356 -1.0995
  150SAPE  H20R16639   3.749   2.865   8.692  0.1490 -1.2097 -1.7785
  150SAPE  H20S16640   3.735   2.867   8.867  2.8414 -1.7197 -0.3290
  150SAPE  H20T16641   3.625   2.758   8.770 -0.1740  1.1240  1.8220
  150SAPE   C3316642   4.643   3.144  10.246 -0.4445  0.1007 -0.1127
  150SAPE   H3X16643   4.649   3.037  10.273  0.6842 -0.3913 -2.1872
  150SAPE   H3Y16644   4.720   3.203  10.299 -0.8466 -0.4799  1.1227
  150SAPE   C3416645   4.665   3.158  10.097 -0.1853 -0.1171  0.3749
  150SAPE   H4X16646   4.658   3.264  10.063  1.9153 -0.5610 -1.5387
  150SAPE   H4Y16647   4.585   3.105  10.042 -0.5582  1.5235 -0.6775
  150SAPE   C3516648   4.804   3.134  10.038  0.0450  0.2162 -0.1431
  150SAPE   H5X16649   4.837   3.028  10.046  0.6725  0.3663 -0.6107
  150SAPE   H5Y16650   4.871   3.204  10.091  0.1724 -0.6708  0.8795
  150SAPE   C3616651   4.808   3.169   9.891  0.1938 -0.3272  1.1284
  150SAPE   H6X16652   4.910   3.148   9.851 -0.1459 -0.7175  0.4750
  150SAPE   H6Y16653   4.792   3.279   9.881  0.8005 -0.6341 -4.6077
  150SAPE   C3716654   4.722   3.094   9.791  0.1151  0.3125 -0.2615
  150SAPE   H7X16655   4.615   3.125   9.801 -1.0119 -3.1567 -0.8236
  150SAPE   H7Y16656   4.729   2.985   9.814  1.2873  0.8056  1.8689
  150SAPE   C3816657   4.765   3.106   9.647 -0.0443  0.4996 -0.0463
  150SAPE   H8X16658   4.865   3.058   9.648 -1.3980 -2.4584  3.1332
  150SAPE   H8Y16659   4.775   3.213   9.620 -0.1481  0.7154  0.7721
  150SAPE   C3916660   4.669   3.042   9.550  0.5096 -0.2447 -0.5822
  150SAPE   H9X16661   4.571   3.094   9.560 -0.4249 -2.3418  1.6980
  150SAPE   H9Y16662   4.646   2.937   9.577 -2.5381  0.4618 -0.2138
  150SAPE  C31016663   4.725   3.055   9.414  0.3610 -0.5738 -0.3252
  150SAPE  H10X16664   4.827   3.011   9.416  0.0484 -1.3364 -0.8613
  150SAPE  H10Y16665   4.737   3.161   9.381  1.6203 -1.1733 -1.8662
  150SAPE  C31116666   4.642   2.985   9.310 -0.5789 -0.2984  0.0419
  150SAPE  H11X16667   4.552   3.048   9.293 -1.1478 -0.7544  1.2528
  150SAPE  H11Y16668   4.615   2.883   9.346  2.5219 -1.7872 -1.7084
  150SAPE  C31216669   4.726   2.968   9.181  0.1442 -0.2014  0.3202
  150SAPE  H12X16670   4.825   2.922   9.202  0.7958  0.7439 -0.5886
  150SAPE  H12Y16671   4.762   3.063   9.137 -0.9896  0.6643  1.2254
  150SAPE  C31316672   4.655   2.881   9.082  1.0590 -0.3471  0.0112
  150SAPE  H13X16673   4.559   2.838   9.118  0.5733  0.3533 -0.4411
  150SAPE  H13Y16674   4.719   2.794   9.055 -0.2969 -1.1039 -0.8102
  150SAPE  C31416675   4.623   2.952   8.950 -0.4894 -0.8417  0.8071
  150SAPE  H14X16676   4.718   2.980   8.899 -0.4402 -1.6833  0.4383
  150SAPE  H14Y16677   4.565   3.046   8.964 -0.3887 -0.9073  1.6739
  150SAPE  C31516678   4.552   2.860   8.858 -0.7514  0.5155 -0.4870
  150SAPE  H15X16679   4.468   2.830   8.924  0.5909 -1.8365  0.2104
  150SAPE  H15Y16680   4.608   2.769   8.829 -1.2880 -0.7138  2.2034
  150SAPE  C31616681   4.511   2.927   8.729 -0.0563  0.5564  0.0129
  150SAPE  H16X16682   4.601   2.947   8.668  0.7719  0.4162  1.1760
  150SAPE  H16Y16683   4.459   3.022   8.754  1.0174  1.3168 -0.6127
  150SAPE  C31716684   4.403   2.849   8.655  0.1793  0.9889 -0.4946
  150SAPE  H17X16685   4.437   2.744   8.637  0.4810  0.7938  1.0654
  150SAPE  H17Y16686   4.379   2.900   8.560  1.5744  0.0650 -1.3459
  150SAPE  C31816687   4.264   2.829   8.724 -0.4057 -0.6972 -0.5307
  150SAPE  H18X16688   4.215   2.927   8.740  0.5902 -0.5976  2.1409
  150SAPE  H18Y16689   4.280   2.783   8.824  2.5673 -0.4923 -0.8774
  150SAPE  H18Z16690   4.199   2.757   8.670 -1.9422 -1.0171  1.6411
  151SAPE     N16691   1.593   0.408  10.892 -0.0800 -0.3232  0.2091
  151SAPE   HN116692   1.646   0.430  10.979 -2.6632  1.7190  1.3464
  151SAPE   HN216693   1.580   0.502  10.850  0.5717 -0.3202  0.0156
  151SAPE   HN316694   1.498   0.379  10.923 -0.3457  1.8471  1.5632
  151SAPE   C1216695   1.651   0.322  10.787 -0.9581  0.1892  0.3632
  151SAPE  H12A16696   1.586   0.319  10.697 -0.6811  0.8600  0.1412
  151SAPE  H12B16697   1.665   0.217  10.822 -1.4451  0.6661  2.0497
  151SAPE   C1116698   1.796   0.363  10.745 -0.0131  0.2670 -0.0723
  151SAPE  H11A16699   1.852   0.282  10.693  0.4619  0.4528  0.1490
  151SAPE  H11B16700   1.860   0.389  10.833  1.3617 -1.5945 -0.4879
  151SAPE     P16701   1.784   0.453  10.490 -0.3367 -0.4203 -0.0610
  151SAPE   O1316702   1.719   0.566  10.426 -0.3103  0.1265 -0.1078
  151SAPE   O1416703   1.925   0.410  10.456 -0.0283  0.1253  0.1480
  151SAPE   O1216704   1.785   0.477  10.652  0.7562 -0.5092 -0.0610
  151SAPE   O1116705   1.690   0.334  10.474  0.4139 -0.7396 -0.0177
  151SAPE    C116706   1.725   0.215  10.408 -0.3266  0.4237 -0.4045
  151SAPE    HA16707   1.830   0.187  10.431  0.7195  4.2835 -0.0426
  151SAPE    HB16708   1.664   0.127  10.434 -0.1905  0.3611 -0.2963
  151SAPE    C216709   1.726   0.219  10.255 -0.0970  0.7704 -0.2060
  151SAPE    HS16710   1.788   0.305  10.224  1.0665  0.6908  1.8116
  151SAPE   O2116711   1.591   0.217  10.202  0.3854  0.2226  0.4755
  151SAPE   C2116712   1.568   0.316  10.111  0.2579  0.0957 -0.9326
  151SAPE   O2216713   1.641   0.405  10.082 -0.2224  0.2313 -0.9933
  151SAPE   C2216714   1.425   0.302  10.063 -0.0892  0.4722 -0.0521
  151SAPE   H2R16715   1.394   0.195  10.062  1.0201  0.0767  2.6709
  151SAPE   H2S16716   1.367   0.360  10.138 -0.2056  0.3843 -0.0745
  151SAPE    C316717   1.799   0.094  10.197 -0.4104 -0.0813 -0.7213
  151SAPE    HX16718   1.735   0.003  10.202  2.7796 -2.4672 -1.6409
  151SAPE    HY16719   1.895   0.066  10.244  0.5155  2.4428 -1.0433
  151SAPE   O3116720   1.853   0.116  10.059  0.4237 -0.1230  0.1930
  151SAPE   C3116721   1.810   0.028   9.966 -0.4614 -0.2410  0.4530
  151SAPE   O3216722   1.726  -0.054   9.994  0.2682 -0.0188 -0.4723
  151SAPE   C3216723   1.864   0.052   9.825  0.3239  0.3134  0.0624
  151SAPE   H2X16724   1.926  -0.036   9.796 -0.8737  0.3232 -2.6840
  151SAPE   H2Y16725   1.933   0.139   9.828  0.6219  0.0714  0.2367
  151SAPE   C2316726   1.414   0.352   9.917 -0.4157 -0.0160 -0.0582
  151SAPE   H3R16727   1.490   0.312   9.846 -1.3944 -1.0467 -0.5314
  151SAPE   H3S16728   1.433   0.461   9.913  1.4215 -0.3846 -2.8362
  151SAPE   C2416729   1.273   0.318   9.857 -0.0131 -0.2769 -0.1103
  151SAPE   H4R16730   1.235   0.395   9.787  2.9715  2.1556  0.8602
  151SAPE   H4S16731   1.200   0.335   9.939 -1.0306  0.8158 -1.2268
  151SAPE   C2516732   1.262   0.176   9.802  0.3700  0.5000 -0.0556
  151SAPE   H5R16733   1.286   0.093   9.870 -1.3693  0.8759  1.0476
  151SAPE   C2616734   1.214   0.152   9.679 -1.1124  0.0858 -0.2318
  151SAPE   H6R16735   1.187   0.049   9.651  1.1796  0.1125 -2.7596
  151SAPE   C2716736   1.166   0.250   9.572  0.1464 -0.2949  0.4681
  151SAPE   H7R16737   1.099   0.328   9.614 -1.1153 -0.7992 -0.5901
  151SAPE   H7S16738   1.106   0.184   9.507  0.6448 -1.1249  0.8370
  151SAPE   C2816739   1.280   0.323   9.502 -0.0116  0.4120 -0.3283
  151SAPE   H8R16740   1.305   0.412   9.561  0.1005 -1.7165  2.9810
  151SAPE   C2916741   1.344   0.294   9.382  0.3087 -0.0761  0.1451
  151SAPE   H9R16742   1.411   0.364   9.330  0.8723  0.3421  1.4103
  151SAPE  C21016743   1.324   0.165   9.301 -0.3564  0.2203  0.1453
  151SAPE  H10R16744   1.308   0.175   9.191 -0.1554 -2.0787 -0.1289
  151SAPE  H10S16745   1.224   0.137   9.341  0.6540 -1.7791  1.3205
  151SAPE  C21116746   1.425   0.050   9.317 -0.0713 -0.4909 -0.3296
  151SAPE  H11R16747   1.452   0.044   9.423 -1.3538 -0.1077  0.0231
  151SAPE  C21216748   1.483  -0.026   9.225  0.6961  0.4419 -0.2776
  151SAPE  H12R16749   1.549  -0.110   9.251  0.9842  0.1746 -1.7991
  151SAPE  C21316750   1.455  -0.018   9.075 -0.2732  0.0866 -0.0623
  151SAPE  H13R16751   1.524   0.058   9.033 -1.2849 -0.1792 -2.2596
  151SAPE  H13S16752   1.351   0.019   9.066 -1.0177 -1.6734  1.0129
  151SAPE  C21416753   1.454  -0.153   9.016  1.1324  0.6782 -0.1415
  151SAPE  H14R16754   1.412  -0.224   9.089  0.3844 -0.1267 -1.3276
  151SAPE  C21516755   1.490  -0.190   8.894 -0.3869 -0.4142 -0.4060
  151SAPE  H15R16756   1.469  -0.291   8.856  1.7126 -1.0498  0.0605
  151SAPE  C21616757   1.552  -0.102   8.780  0.2666  0.2493 -0.7200
  151SAPE  H16R16758   1.567   0.002   8.815  2.2274 -0.3837  0.4437
  151SAPE  H16S16759   1.486  -0.117   8.693 -0.5101  0.0688 -0.1063
  151SAPE  C21716760   1.699  -0.139   8.749 -0.4047 -0.5767 -0.1593
  151SAPE  H17R16761   1.718  -0.248   8.746 -0.8815 -0.6318 -1.4275
  151SAPE  H17S16762   1.761  -0.087   8.825 -0.5337  0.5326 -0.7870
  151SAPE  C21816763   1.753  -0.075   8.619  0.0054  0.7874 -0.2247
  151SAPE  H18R16764   1.733   0.033   8.602 -0.8250  0.9865  1.8479
  151SAPE  H18S16765   1.709  -0.125   8.530 -0.8205  0.3695  0.4110
  151SAPE  C21916766   1.904  -0.101   8.602 -0.3549 -0.0554  0.2553
  151SAPE  H19R16767   1.922  -0.209   8.581 -0.9590 -0.1417  0.1481
  151SAPE  H19S16768   1.956  -0.063   8.692  0.2072 -1.2961  0.4728
  151SAPE  C22016769   1.980  -0.021   8.496  0.2683 -0.8986  0.3278
  151SAPE  H20R16770   1.925  -0.016   8.400 -0.4640 -1.3321  0.7175
  151SAPE  H20S16771   2.082  -0.061   8.477  0.4223 -0.2639 -0.1757
  151SAPE  H20T16772   1.982   0.081   8.540  1.0510 -1.3081  1.2695
  151SAPE   C3316773   1.756   0.090   9.723 -0.5909  0.6478  0.3367
  151SAPE   H3X16774   1.716   0.183   9.769  0.0132  0.4213  1.3223
  151SAPE   H3Y16775   1.678   0.013   9.709 -2.1200  1.9622  1.4440
  151SAPE   C3416776   1.821   0.140   9.587  0.1457 -0.4601  0.7889
  151SAPE   H4X16777   1.900   0.215   9.605  2.5608 -2.5809 -0.5617
  151SAPE   H4Y16778   1.740   0.195   9.535  1.0998 -0.9534 -1.2664
  151SAPE   C3516779   1.883   0.035   9.495  1.0738 -0.2970 -0.2443
  151SAPE   H5X16780   1.809  -0.044   9.468  1.9627 -1.0204 -0.5707
  151SAPE   H5Y16781   1.972  -0.010   9.544 -0.0957 -0.1490  2.0747
  151SAPE   C3616782   1.920   0.100   9.357  0.3138 -0.0168 -0.0778
  151SAPE   H6X16783   1.996   0.174   9.392 -1.4639  2.7664 -1.9135
  151SAPE   H6Y16784   1.830   0.149   9.315  1.7872  2.7425 -0.1404
  151SAPE   C3716785   1.972  -0.005   9.255  0.6490 -0.0743  0.1954
  151SAPE   H7X16786   2.050  -0.076   9.289  0.5443  0.4652  1.5664
  151SAPE   H7Y16787   2.011   0.046   9.164  0.4694  0.9652  0.6828
  151SAPE   C3816788   1.855  -0.088   9.202  0.3218  0.0165  0.7011
  151SAPE   H8X16789   1.788  -0.018   9.147 -0.3941 -0.3763  1.0617
  151SAPE   H8Y16790   1.783  -0.121   9.280 -0.7303  0.2147 -0.1674
  151SAPE   C3916791   1.905  -0.202   9.110  0.2511 -0.4790 -0.0926
  151SAPE   H9X16792   1.971  -0.168   9.027 -0.2106  1.4789  0.3124
  151SAPE   H9Y16793   1.820  -0.254   9.063 -2.4656  3.0471  0.6413
  151SAPE  C31016794   1.971  -0.322   9.175  0.1786 -0.0159  0.1473
  151SAPE  H10X16795   2.047  -0.283   9.246  0.3381  1.0779 -0.6215
  151SAPE  H10Y16796   2.027  -0.373   9.094  1.0837  2.5904 -0.8964
  151SAPE  C31116797   1.883  -0.420   9.253  0.4866  0.9516  0.1242
  151SAPE  H11X16798   1.816  -0.473   9.183  1.5735  3.0425 -2.5978
  151SAPE  H11Y16799   1.806  -0.368   9.314  0.2392 -1.0552  1.5464
  151SAPE  C31216800   1.954  -0.521   9.346  0.5514  0.5532 -0.1617
  151SAPE  H12X16801   2.027  -0.572   9.280 -0.1355  0.0870 -0.5611
  151SAPE  H12Y16802   1.872  -0.589   9.378  1.5516 -0.7586 -0.3770
  151SAPE  C31316803   2.038  -0.454   9.467  0.4716 -0.2376  0.4693
  151SAPE  H13X16804   2.132  -0.407   9.430 -0.9658  2.2959 -0.0705
  151SAPE  H13Y16805   2.076  -0.542   9.523 -2.5986 -0.2294  2.6939
  151SAPE  C31416806   1.968  -0.341   9.551  0.0775  0.2180 -0.8326
  151SAPE  H14X16807   1.866  -0.367   9.587  0.7678  0.4837  1.3609
  151SAPE  H14Y16808   1.970  -0.252   9.485 -0.9370 -0.7396 -2.1740
  151SAPE  C31516809   2.044  -0.311   9.680 -0.0575  0.6189  0.1290
  151SAPE  H15X16810   1.993  -0.218   9.714 -1.2759  0.2031 -0.5102
  151SAPE  H15Y16811   2.151  -0.301   9.655  0.4686 -0.4297  1.8448
  151SAPE  C31616812   2.011  -0.416   9.789  0.4602  0.7313  0.0634
  151SAPE  H16X16813   2.043  -0.512   9.742 -1.5512 -0.7352  1.6327
  151SAPE  H16Y16814   1.903  -0.431   9.811  0.4950  0.6321  0.1641
  151SAPE  C31716815   2.086  -0.391   9.919  0.7941 -0.2874  0.5293
  151SAPE  H17X16816   2.182  -0.337   9.905  0.3094  0.9613  1.7853
  151SAPE  H17Y16817   2.114  -0.480   9.980 -1.2485 -1.6296 -0.4654
  151SAPE  C31816818   2.006  -0.305  10.018 -0.8655  0.1699  0.2668
  151SAPE  H18X16819   2.077  -0.272  10.097 -1.5267  0.8501  0.5847
  151SAPE  H18Y16820   1.929  -0.372  10.061 -0.6227  1.6966  3.2389
  151SAPE  H18Z16821   1.966  -0.212   9.973 -0.7135  1.0225  1.8311
  152SAPE     N16822   2.994   6.110  10.615 -0.1605 -0.1024 -0.3886
  152SAPE   HN116823   2.896   6.113  10.579  0.4615  1.2210 -2.0335
  152SAPE   HN216824   2.979   6.104  10.717 -1.5739  0.8581 -0.5153
  152SAPE   HN316825   3.026   6.206  10.591 -3.6284  1.6492  1.5427
  152SAPE   C1216826   3.065   6.000  10.540  0.4645 -0.5751  0.0892
  152SAPE  H12A16827   3.175   5.997  10.557  0.3202  0.8515  1.3863
  152SAPE  H12B16828   3.052   6.011  10.431 -1.7560  0.3632  0.4233
  152SAPE   C1116829   2.994   5.866  10.578 -1.1796 -1.0245 -0.3756
  152SAPE  H11A16830   3.005   5.837  10.684  0.9428  0.8230 -0.0422
  152SAPE  H11B16831   3.046   5.789  10.517 -1.3468 -3.4875  2.4967
  152SAPE     P16832   2.767   5.756  10.547 -0.0342 -0.1685 -0.2582
  152SAPE   O1316833   2.757   5.730  10.693 -0.1936  0.6748 -0.3801
  152SAPE   O1416834   2.637   5.777  10.473 -0.3334  0.3574 -0.7424
  152SAPE   O1216835   2.859   5.885  10.540  0.4105 -0.4189 -0.5952
  152SAPE   O1116836   2.848   5.639  10.484  0.3627  0.1010 -0.0583
  152SAPE    C116837   2.804   5.560  10.373  0.0982 -0.3118  0.5201
  152SAPE    HA16838   2.838   5.454  10.366  1.3200  0.0381  1.0863
  152SAPE    HB16839   2.693   5.550  10.365  0.2095 -0.9746 -0.2246
  152SAPE    C216840   2.865   5.614  10.239  0.2913  0.6304  0.4356
  152SAPE    HS16841   2.976   5.608  10.243  0.3022  1.8024  2.0383
  152SAPE   O2116842   2.820   5.739  10.213  0.1711  0.2111 -0.8408
  152SAPE   C2116843   2.906   5.836  10.218  0.1800  0.8381 -0.7412
  152SAPE   O2216844   3.024   5.825  10.255  0.2112  0.4699 -1.0948
  152SAPE   C2216845   2.850   5.961  10.155  0.3806  0.5118  0.3112
  152SAPE   H2R16846   2.761   5.984  10.218  1.7888  1.4285  2.0008
  152SAPE   H2S16847   2.915   6.051  10.163 -0.0413  0.8409  0.0704
  152SAPE    C316848   2.821   5.531  10.121  0.3826  0.6524  0.4006
  152SAPE    HX16849   2.712   5.550  10.110 -0.3375 -3.1159  0.1921
  152SAPE    HY16850   2.848   5.424  10.134  1.5491  1.0368  1.1884
  152SAPE   O3116851   2.887   5.577  10.001  0.0177  0.1852  0.0252
  152SAPE   C3116852   2.836   5.511   9.891  0.0437 -0.2359 -0.6070
  152SAPE   O3216853   2.760   5.417   9.899  0.5150  0.5728 -0.2832
  152SAPE   C3216854   2.886   5.582   9.767  0.1337  0.1161  0.8904
  152SAPE   H2X16855   2.958   5.513   9.718 -1.5340 -2.4995  2.0377
  152SAPE   H2Y16856   2.945   5.668   9.805 -0.8410  1.1354  0.1166
  152SAPE   C2316857   2.797   5.939  10.017  0.2331  0.0708  0.9178
  152SAPE   H3R16858   2.708   6.003   9.999 -0.2512 -0.8317  0.0257
  152SAPE   H3S16859   2.754   5.836  10.010 -1.4584  0.7971  0.2565
  152SAPE   C2416860   2.900   5.941   9.908 -0.8092 -0.1565  0.1852
  152SAPE   H4R16861   2.845   5.950   9.812 -0.5396  1.0400  0.1403
  152SAPE   H4S16862   2.944   5.839   9.912  2.0660  0.8754 -2.7543
  152SAPE   C2516863   3.013   6.035   9.894  0.3299  0.5414  0.6909
  152SAPE   H5R16864   3.093   6.045   9.968  1.2980  0.8099 -0.3724
  152SAPE   C2616865   3.030   6.133   9.800  0.2554 -0.3845 -0.3406
  152SAPE   H6R16866   3.123   6.192   9.803 -0.3177  0.4737  0.9162
  152SAPE   C2716867   2.934   6.164   9.687 -0.5662  0.3865  0.2086
  152SAPE   H7R16868   2.859   6.084   9.678 -0.8525  0.9080 -2.4611
  152SAPE   H7S16869   2.992   6.151   9.593 -0.5053 -4.0648  0.7652
  152SAPE   C2816870   2.869   6.292   9.705  0.0928  0.2722 -0.8275
  152SAPE   H8R16871   2.867   6.333   9.807  0.4831 -0.4872 -0.5094
  152SAPE   C2916872   2.824   6.369   9.603 -0.2710  0.0884 -0.2922
  152SAPE   H9R16873   2.775   6.464   9.631  2.1878  0.9428  1.3998
  152SAPE  C21016874   2.836   6.340   9.460  0.3128  0.0348  0.3910
  152SAPE  H10R16875   2.733   6.354   9.420  1.0540  3.0142 -0.6082
  152SAPE  H10S16876   2.861   6.233   9.448  0.8689  0.1642  0.4131
  152SAPE  C21116877   2.936   6.428   9.379 -0.4199 -0.5881  0.3755
  152SAPE  H11R16878   2.928   6.535   9.402 -1.0100 -0.4227 -0.5659
  152SAPE  C21216879   3.028   6.378   9.290  0.2473  0.1736  0.5115
  152SAPE  H12R16880   3.081   6.454   9.231 -0.8568  1.8233  1.6100
  152SAPE  C21316881   3.059   6.230   9.251 -0.1395  0.2524  0.8292
  152SAPE  H13R16882   3.014   6.213   9.150  0.0787 -1.6358  1.0271
  152SAPE  H13S16883   3.008   6.150   9.309  0.2270 -1.5550 -1.2458
  152SAPE  C21416884   3.209   6.226   9.253  0.2010 -0.7014 -0.5431
  152SAPE  H14R16885   3.252   6.228   9.354 -0.6203 -0.9840 -0.1843
  152SAPE  C21516886   3.297   6.232   9.150 -0.3717  0.4435  0.4971
  152SAPE  H15R16887   3.404   6.234   9.172 -0.1199 -1.5996 -0.5046
  152SAPE  C21616888   3.263   6.242   9.006 -0.4218  0.3990  0.5418
  152SAPE  H16R16889   3.345   6.295   8.952 -0.7791  2.0258  1.5565
  152SAPE  H16S16890   3.166   6.292   8.987 -1.0411  0.0437  2.5838
  152SAPE  C21716891   3.223   6.109   8.939  0.7493  0.3621 -0.4524
  152SAPE  H17R16892   3.117   6.080   8.955  0.5051  1.5472  0.1179
  152SAPE  H17S16893   3.284   6.027   8.983  1.7704  1.8539  0.9928
  152SAPE  C21816894   3.243   6.100   8.779 -0.3556  0.1198 -0.1037
  152SAPE  H18R16895   3.352   6.090   8.762 -0.1715 -0.5078  1.2956
  152SAPE  H18S16896   3.222   6.202   8.741  1.7117  0.4534 -0.3989
  152SAPE  C21916897   3.176   5.989   8.697  0.5214 -0.0541  0.1479
  152SAPE  H19R16898   3.067   6.009   8.704  0.3498 -0.7854 -0.5120
  152SAPE  H19S16899   3.200   5.888   8.736 -2.0443 -0.4204  0.9002
  152SAPE  C22016900   3.213   6.003   8.550 -0.1543 -0.2363  0.1645
  152SAPE  H20R16901   3.201   6.105   8.507  2.9056 -1.3420 -3.5814
  152SAPE  H20S16902   3.162   5.932   8.482  0.2914 -1.0906  0.7161
  152SAPE  H20T16903   3.321   5.984   8.537  0.0157 -0.2011  1.4687
  152SAPE   C3316904   2.784   5.636   9.664 -0.2371  0.7822 -0.3190
  152SAPE   H3X16905   2.695   5.687   9.707  0.4044  1.3596  0.3419
  152SAPE   H3Y16906   2.732   5.561   9.601 -3.1884  0.1118  2.7493
  152SAPE   C3416907   2.858   5.735   9.565  0.5807  0.2632 -0.4833
  152SAPE   H4X16908   2.966   5.708   9.560 -0.0860 -2.6077 -0.1354
  152SAPE   H4Y16909   2.844   5.839   9.600  0.5073  0.9172 -2.3638
  152SAPE   C3516910   2.803   5.729   9.418  0.3504  0.1214  0.1387
  152SAPE   H5X16911   2.692   5.737   9.420  0.4473  1.1158  2.0939
  152SAPE   H5Y16912   2.838   5.631   9.378  1.3250  0.7727 -0.6363
  152SAPE   C3616913   2.861   5.846   9.334  0.6785  0.0692  0.3942
  152SAPE   H6X16914   2.971   5.851   9.348  0.9541 -1.3142 -1.0207
  152SAPE   H6Y16915   2.819   5.947   9.348  0.6119  0.2975 -1.2755
  152SAPE   C3716916   2.836   5.810   9.191  0.2533 -0.2306 -0.0651
  152SAPE   H7X16917   2.726   5.791   9.182  0.4643 -0.7508 -1.6839
  152SAPE   H7Y16918   2.886   5.715   9.164  1.9805 -0.3990  3.5447
  152SAPE   C3816919   2.877   5.927   9.101  0.1019 -0.1005 -0.2164
  152SAPE   H8X16920   2.982   5.945   9.132  0.4645 -0.1050 -1.3936
  152SAPE   H8Y16921   2.825   6.019   9.133 -1.2186 -0.6738 -0.6922
  152SAPE   C3916922   2.854   5.894   8.956 -0.3917 -0.0396  0.8514
  152SAPE   H9X16923   2.894   5.793   8.930 -1.3373  0.0476 -1.0356
  152SAPE   H9Y16924   2.896   5.969   8.887 -1.1452  1.7285  2.2855
  152SAPE  C31016925   2.709   5.881   8.914 -0.9036  0.3346 -0.1850
  152SAPE  H10X16926   2.664   5.972   8.958  0.6513 -0.0073  2.2490
  152SAPE  H10Y16927   2.663   5.795   8.967 -0.6256  1.0225  1.2088
  152SAPE  C31116928   2.691   5.866   8.763 -0.2989 -0.0838 -0.0462
  152SAPE  H11X16929   2.752   5.780   8.729  0.6324  0.2350  0.8036
  152SAPE  H11Y16930   2.724   5.953   8.701  0.2020  0.9202  1.5994
  152SAPE  C31216931   2.547   5.818   8.725 -0.6797 -1.0752 -0.3622
  152SAPE  H12X16932   2.468   5.872   8.781  0.3774 -1.7174  1.8000
  152SAPE  H12Y16933   2.532   5.714   8.760 -3.2909 -0.7511 -0.4025
  152SAPE  C31316934   2.521   5.826   8.570  0.4224  0.0368  0.8225
  152SAPE  H13X16935   2.602   5.778   8.510  1.1395  1.0757  0.9476
  152SAPE  H13Y16936   2.520   5.934   8.544 -0.3061 -0.4129 -1.1502
  152SAPE  C31416937   2.385   5.766   8.540 -0.2303 -0.5755 -0.4072
  152SAPE  H14X16938   2.306   5.794   8.613 -0.2550 -0.8348 -0.3336
  152SAPE  H14Y16939   2.385   5.654   8.542 -2.3042 -0.5980  0.1191
  152SAPE  C31516940   2.335   5.808   8.403 -0.1181  0.5938 -0.4046
  152SAPE  H15X16941   2.263   5.732   8.364 -1.0451  0.0207  2.2829
  152SAPE  H15Y16942   2.422   5.823   8.337  1.2954 -0.8474  1.0784
  152SAPE  C31616943   2.255   5.933   8.403 -0.5924 -0.2871  0.1506
  152SAPE  H16X16944   2.311   6.013   8.457 -0.6883 -0.0566 -0.0912
  152SAPE  H16Y16945   2.163   5.914   8.463 -1.1190  1.2421 -0.1374
  152SAPE  C31716946   2.228   5.993   8.261  0.6787  0.2308 -0.1431
  152SAPE  H17X16947   2.184   5.912   8.199  0.9121 -0.6694  0.8578
  152SAPE  H17Y16948   2.318   6.018   8.200  0.4375  0.1313 -0.5386
  152SAPE  C31816949   2.140   6.127   8.260 -0.1664 -0.1286 -0.4507
  152SAPE  H18X16950   2.073   6.127   8.172  0.4244 -1.4867 -0.9109
  152SAPE  H18Y16951   2.205   6.217   8.258  0.5114 -0.5510  1.1872
  152SAPE  H18Z16952   2.065   6.133   8.342  1.5898 -0.4091  1.2287
  153SAPE     N16953   2.675   1.064  10.743 -0.0935  0.0074  0.3323
  153SAPE   HN116954   2.696   1.107  10.835  0.7207  0.7119 -0.1740
  153SAPE   HN216955   2.681   1.132  10.664  4.2775 -0.5610  0.0182
  153SAPE   HN316956   2.582   1.019  10.741 -0.1686  0.1315  1.1262
  153SAPE   C1216957   2.769   0.944  10.714  0.2458  0.5090 -0.2381
  153SAPE  H12A16958   2.863   0.967  10.769  1.1819 -0.5292 -1.3737
  153SAPE  H12B16959   2.810   0.954  10.611 -0.8269 -1.1717 -0.8527
  153SAPE   C1116960   2.694   0.810  10.733  0.0012  0.4277 -0.1694
  153SAPE  H11A16961   2.673   0.795  10.841 -0.4546  2.6404  0.0693
  153SAPE  H11B16962   2.754   0.723  10.698 -0.9577 -0.6397  0.8013
  153SAPE     P16963   2.537   0.779  10.516 -0.4396 -0.0378 -0.1930
  153SAPE   O1316964   2.521   0.630  10.520 -0.1021 -0.3954 -0.1194
  153SAPE   O1416965   2.418   0.857  10.470 -0.5057 -0.2769 -0.0435
  153SAPE   O1216966   2.567   0.821  10.665 -0.0090  0.3347  0.2164
  153SAPE   O1116967   2.670   0.822  10.447  0.2226  0.0898  0.1046
  153SAPE    C116968   2.743   0.750  10.345 -0.0465  0.2531  0.1639
  153SAPE    HA16969   2.717   0.642  10.353  3.2768 -0.5891  0.2305
  153SAPE    HB16970   2.723   0.800  10.248 -0.6715  0.8888  0.6174
  153SAPE    C216971   2.896   0.771  10.359  0.4362 -0.2542 -0.3035
  153SAPE    HS16972   2.915   0.735  10.462 -1.4648 -0.5638 -0.0372
  153SAPE   O2116973   2.928   0.909  10.337  0.2986  0.2668 -0.5281
  153SAPE   C2116974   3.042   0.948  10.376  0.4826  0.4491 -0.7608
  153SAPE   O2216975   3.117   0.879  10.437 -0.5167  0.2848  0.3280
  153SAPE   C2216976   3.062   1.094  10.329 -0.4323  0.6285 -0.2513
  153SAPE   H2R16977   3.068   1.106  10.218  0.8678 -0.8580 -0.3527
  153SAPE   H2S16978   2.973   1.152  10.361  0.1456  1.5685 -0.3297
  153SAPE    C316979   2.974   0.674  10.264 -0.1266  0.6588 -0.2853
  153SAPE    HX16980   2.942   0.572  10.295 -0.7736  0.8658 -0.2669
  153SAPE    HY16981   3.082   0.686  10.288  0.2577  0.6091 -1.9314
  153SAPE   O3116982   2.946   0.711  10.129 -0.1026 -0.1301  0.5916
  153SAPE   C3116983   2.902   0.623  10.039  0.6729  0.6310 -0.1250
  153SAPE   O3216984   2.875   0.508  10.054 -0.6836 -0.5156 -0.1651
  153SAPE   C3216985   2.896   0.691   9.896  0.9092  0.3078 -0.0779
  153SAPE   H2X16986   2.991   0.735   9.862  0.3737  0.8437 -0.8823
  153SAPE   H2Y16987   2.835   0.783   9.910 -0.9534 -0.8703 -0.2276
  153SAPE   C2316988   3.183   1.175  10.389 -0.2233  0.4681  0.7285
  153SAPE   H3R16989   3.203   1.149  10.495  0.2732  2.4124  1.1420
  153SAPE   H3S16990   3.159   1.283  10.395 -0.9533  0.2344  2.2563
  153SAPE   C2416991   3.315   1.162  10.303  0.4467  0.0356  0.4084
  153SAPE   H4R16992   3.299   1.199  10.200  0.3072  0.7207  0.6734
  153SAPE   H4S16993   3.334   1.054  10.283 -2.3463 -0.1343 -1.5857
  153SAPE   C2516994   3.436   1.221  10.369  0.8664 -0.6115  0.2411
  153SAPE   H5R16995   3.468   1.164  10.457  1.7084  0.0765  0.3908
  153SAPE   C2616996   3.499   1.336  10.337  0.5331  0.7672  0.2140
  153SAPE   H6R16997   3.582   1.380  10.393  0.6768  0.6563  0.0872
  153SAPE   C2716998   3.465   1.423  10.213  0.2864  0.4255  0.3242
  153SAPE   H7R16999   3.421   1.517  10.250 -1.9878 -0.5648  0.2003
  153SAPE   H7S17000   3.382   1.387  10.149  0.5656  0.2627  0.0484
  153SAPE   C2817001   3.586   1.442  10.124 -0.1474 -0.3846  0.2389
  153SAPE   H8R17002   3.677   1.452  10.186 -0.4753  0.1675  0.6347
  153SAPE   C2917003   3.597   1.418   9.990  0.2648  0.2087 -0.2467
  153SAPE   H9R17004   3.693   1.458   9.954 -0.1041 -0.1889 -1.6861
  153SAPE  C21017005   3.493   1.388   9.890 -0.3842 -0.4489  0.2486
  153SAPE  H10R17006   3.505   1.440   9.793 -1.1874  1.0188  0.9263
  153SAPE  H10S17007   3.403   1.438   9.930 -0.5154 -0.7023  0.2707
  153SAPE  C21117008   3.461   1.244   9.863 -0.3128 -0.9286  0.4330
  153SAPE  H11R17009   3.421   1.191   9.950 -0.3090 -2.2273 -0.3391
  153SAPE  C21217010   3.498   1.170   9.757  0.3267 -0.3043 -0.1940
  153SAPE  H12R17011   3.472   1.063   9.755 -0.5947 -0.0745 -0.6236
  153SAPE  C21317012   3.570   1.212   9.630 -0.0096 -0.0536 -0.0720
  153SAPE  H13R17013   3.611   1.120   9.584  0.1934  0.0081 -0.0169
  153SAPE  H13S17014   3.655   1.272   9.669 -1.3470  0.1472  2.6262
  153SAPE  C21417015   3.492   1.289   9.533  0.2580 -0.3929 -0.0226
  153SAPE  H14R17016   3.413   1.354   9.574  2.5250  1.6115  1.3972
  153SAPE  C21517017   3.506   1.309   9.403 -0.1343  0.5728  0.1277
  153SAPE  H15R17018   3.431   1.366   9.346 -3.0577 -0.7567  2.5035
  153SAPE  C21617019   3.614   1.245   9.320  0.3654  0.2348 -0.3141
  153SAPE  H16R17020   3.569   1.156   9.270  0.8477  0.0176 -0.3620
  153SAPE  H16S17021   3.690   1.187   9.377 -1.7267 -4.0444 -1.6591
  153SAPE  C21717022   3.661   1.358   9.222  0.5606  0.5347 -0.0199
  153SAPE  H17R17023   3.751   1.321   9.168 -0.3527 -0.4333 -0.8858
  153SAPE  H17S17024   3.693   1.440   9.291 -1.3254  0.5462  0.8855
  153SAPE  C21817025   3.569   1.405   9.111 -0.4116 -0.7875 -0.4808
  153SAPE  H18R17026   3.612   1.502   9.077  1.0264 -0.9810  0.7294
  153SAPE  H18S17027   3.468   1.430   9.151  0.2752  0.4781  0.4963
  153SAPE  C21917028   3.562   1.312   8.992  0.1306 -0.5292  0.3145
  153SAPE  H19R17029   3.530   1.213   9.033 -0.1922  0.3823  2.3210
  153SAPE  H19S17030   3.662   1.282   8.955 -0.2352  0.1062 -1.2081
  153SAPE  C22017031   3.490   1.373   8.870  0.7542 -0.0814  0.8171
  153SAPE  H20R17032   3.531   1.473   8.845  1.2650 -0.5738 -0.3665
  153SAPE  H20S17033   3.382   1.377   8.898  0.1335 -1.0546 -1.2904
  153SAPE  H20T17034   3.493   1.298   8.787  1.5519  0.7087  0.1223
  153SAPE   C3317035   2.848   0.609   9.770 -0.2460 -0.7069 -0.8352
  153SAPE   H3X17036   2.740   0.594   9.787 -0.2285  0.7197  0.7120
  153SAPE   H3Y17037   2.907   0.517   9.753  0.1473 -0.2557 -1.9439
  153SAPE   C3417038   2.846   0.691   9.633 -0.3261  0.0181  0.1909
  153SAPE   H4X17039   2.947   0.731   9.610 -0.1670 -0.4245  0.1104
  153SAPE   H4Y17040   2.773   0.774   9.639 -0.0979  0.3807 -1.7721
  153SAPE   C3517041   2.811   0.604   9.502 -0.0813  1.1067 -0.4672
  153SAPE   H5X17042   2.708   0.570   9.524  0.4301  1.3416  2.4830
  153SAPE   H5Y17043   2.875   0.513   9.503 -0.5265  0.7825 -1.6923
  153SAPE   C3617044   2.812   0.678   9.371  0.2460  0.0638 -0.3241
  153SAPE   H6X17045   2.781   0.783   9.393 -2.4977 -0.8670  0.4136
  153SAPE   H6Y17046   2.732   0.637   9.306  0.6543  0.4967 -1.1101
  153SAPE   C3717047   2.941   0.673   9.292  0.2519 -0.1720 -0.4452
  153SAPE   H7X17048   2.940   0.568   9.257 -1.5469  0.5902 -2.8225
  153SAPE   H7Y17049   3.023   0.694   9.363  1.8513  1.2657 -2.6322
  153SAPE   C3817050   2.959   0.765   9.172 -0.1690 -1.0154 -0.3950
  153SAPE   H8X17051   3.066   0.773   9.143 -0.2043  0.1278 -0.2464
  153SAPE   H8Y17052   2.948   0.868   9.213  0.0136 -1.1720  0.0582
  153SAPE   C3917053   2.864   0.740   9.056  0.1209 -0.0036 -0.0265
  153SAPE   H9X17054   2.876   0.810   8.970 -0.6642 -1.9539 -1.7866
  153SAPE   H9Y17055   2.755   0.731   9.076  0.3270 -0.8879  0.7135
  153SAPE  C31017056   2.912   0.615   8.981  0.6877 -0.0242  0.2326
  153SAPE  H10X17057   2.881   0.523   9.035 -2.4663  0.9073  0.1207
  153SAPE  H10Y17058   3.021   0.627   8.963  0.8284 -1.5088  0.0275
  153SAPE  C31117059   2.849   0.602   8.846 -0.5515  0.2592 -0.1267
  153SAPE  H11X17060   2.740   0.622   8.860  0.0879  1.6670  3.4233
  153SAPE  H11Y17061   2.845   0.494   8.822 -0.9507  0.1710  0.3094
  153SAPE  C31217062   2.915   0.680   8.736  0.5129  0.8655  0.4520
  153SAPE  H12X17063   3.005   0.625   8.701 -0.6400 -0.7170 -0.0661
  153SAPE  H12Y17064   2.944   0.778   8.778  1.4164  1.7209 -2.0788
  153SAPE  C31317065   2.828   0.703   8.608  0.7984  0.0402 -0.9411
  153SAPE  H13X17066   2.731   0.748   8.640  1.2757  0.6488 -0.3222
  153SAPE  H13Y17067   2.808   0.606   8.559  1.4598 -1.9144  2.4503
  153SAPE  C31417068   2.904   0.793   8.505  0.3455 -0.2970  0.1169
  153SAPE  H14X17069   2.858   0.789   8.403  1.6305 -1.3887 -0.4389
  153SAPE  H14Y17070   3.007   0.752   8.498  0.1880 -0.4343 -1.7613
  153SAPE  C31517071   2.896   0.937   8.546  0.3566  0.9138  0.0021
  153SAPE  H15X17072   2.939   0.958   8.645 -1.9801 -2.2350  1.7826
  153SAPE  H15Y17073   2.792   0.976   8.551  0.5397  1.3044  0.8022
  153SAPE  C31617074   2.969   1.027   8.452  0.5141 -0.6336 -0.5453
  153SAPE  H16X17075   2.930   1.018   8.348 -0.6672 -0.9316 -0.0742
  153SAPE  H16Y17076   3.077   1.000   8.443  0.9248  0.6803  0.3069
  153SAPE  C31717077   2.957   1.171   8.504  0.1113  0.5282 -0.2225
  153SAPE  H17X17078   3.001   1.177   8.606  0.5832 -0.8442 -0.3312
  153SAPE  H17Y17079   2.850   1.192   8.521  0.5770  1.2832  1.9171
  153SAPE  C31817080   3.012   1.280   8.413  0.2262 -0.1583 -0.0053
  153SAPE  H18X17081   2.989   1.267   8.305 -0.1980 -0.6865  0.1470
  153SAPE  H18Y17082   3.122   1.272   8.426  0.5518  2.1726 -1.1247
  153SAPE  H18Z17083   2.973   1.380   8.442  3.8470  1.1182  0.6536
  154SAPE     N17084   4.128   0.170  10.759 -0.1952  0.4648  0.1811
  154SAPE   HN117085   4.057   0.114  10.809  0.1115 -1.0274 -1.0302
  154SAPE   HN217086   4.224   0.136  10.780  0.2050  1.2028 -0.4378
  154SAPE   HN317087   4.113   0.269  10.788  2.1452  0.3024  2.0656
  154SAPE   C1217088   4.091   0.164  10.611 -0.6103 -0.1327 -0.0444
  154SAPE  H12A17089   4.119   0.065  10.569 -1.0753  0.5573 -2.0230
  154SAPE  H12B17090   4.157   0.247  10.579 -1.3713  0.7012  0.5145
  154SAPE   C1117091   3.948   0.191  10.587  0.3630 -0.3394  0.3213
  154SAPE  H11A17092   3.889   0.097  10.596 -1.0775  0.6373  1.3178
  154SAPE  H11B17093   3.920   0.224  10.485 -2.0102  1.2291  1.4496
  154SAPE     P17094   3.926   0.434  10.681  0.0976 -0.0938  0.8057
  154SAPE   O1317095   3.825   0.516  10.757  0.3853 -0.1812  0.5666
  154SAPE   O1417096   4.059   0.438  10.732  0.3693  0.0722 -0.5971
  154SAPE   O1217097   3.887   0.276  10.683 -1.0810  0.1408  0.3290
  154SAPE   O1117098   3.929   0.489  10.535 -0.5205  0.0881  0.2411
  154SAPE    C117099   3.805   0.508  10.464 -0.5958  0.3353 -0.3098
  154SAPE    HA17100   3.780   0.421  10.401 -1.2184  0.9190 -0.8722
  154SAPE    HB17101   3.717   0.514  10.530 -0.1809 -0.1161  0.2930
  154SAPE    C217102   3.810   0.632  10.377 -0.1572 -0.1392 -0.4866
  154SAPE    HS17103   3.711   0.647  10.329 -1.1987  0.0527  1.6727
  154SAPE   O2117104   3.914   0.619  10.276  0.3052  0.5219 -0.1690
  154SAPE   C2117105   3.892   0.535  10.174 -0.1664  0.2831  0.6189
  154SAPE   O2217106   3.788   0.473  10.158 -1.1313 -0.0208  0.4161
  154SAPE   C2217107   4.023   0.511  10.087  1.2156  0.5305 -0.4280
  154SAPE   H2R17108   4.068   0.610  10.066  0.5681  1.4734  2.4454
  154SAPE   H2S17109   4.086   0.447  10.152 -1.5069 -1.1393  0.6473
  154SAPE    C317110   3.828   0.762  10.465  0.2737  0.4094 -0.1450
  154SAPE    HX17111   3.923   0.761  10.523  0.3897  0.0095 -0.3390
  154SAPE    HY17112   3.753   0.770  10.546  1.7833  0.9083  1.2468
  154SAPE   O3117113   3.837   0.878  10.383  0.6047  0.4502 -0.5166
  154SAPE   C3117114   3.720   0.930  10.339 -0.2603  0.4565  0.7137
  154SAPE   O3217115   3.606   0.896  10.381  0.2004 -0.2631  0.7347
  154SAPE   C3217116   3.757   1.023  10.233 -0.0238 -0.0051  0.5796
  154SAPE   H2X17117   3.866   1.035  10.213 -0.1192  0.4183  0.3008
  154SAPE   H2Y17118   3.725   1.123  10.271 -1.4365 -1.4697  3.3839
  154SAPE   C2317119   3.980   0.437   9.957 -1.0563  0.8198 -0.3446
  154SAPE   H3R17120   3.919   0.508   9.897 -0.9196  1.8705  0.7451
  154SAPE   H3S17121   3.909   0.355   9.980 -1.0590  0.6151 -1.0822
  154SAPE   C2417122   4.102   0.384   9.874 -0.1446 -0.5964 -0.6117
  154SAPE   H4R17123   4.068   0.346   9.775  1.1148 -1.9484 -0.5422
  154SAPE   H4S17124   4.143   0.293   9.923  2.3601 -0.3089 -2.0847
  154SAPE   C2517125   4.213   0.490   9.863  0.1043  0.3012  0.6780
  154SAPE   H5R17126   4.292   0.485   9.940 -0.4172 -0.8241  1.1525
  154SAPE   C2617127   4.228   0.572   9.752  0.1081  0.0002 -0.6556
  154SAPE   H6R17128   4.321   0.630   9.756 -1.4904  2.4952  2.2093
  154SAPE   C2717129   4.142   0.577   9.630 -0.0865 -0.1895 -0.0620
  154SAPE   H7R17130   4.108   0.682   9.616 -0.6119 -0.0452  1.9935
  154SAPE   H7S17131   4.051   0.521   9.661 -0.2705 -0.2599 -0.7365
  154SAPE   C2817132   4.218   0.513   9.516 -0.3530  0.9097 -0.1883
  154SAPE   H8R17133   4.248   0.410   9.538 -2.0134  0.6671  1.0940
  154SAPE   C2917134   4.238   0.557   9.392  0.3092 -0.7781 -0.6125
  154SAPE   H9R17135   4.302   0.492   9.330  1.8581  1.2678 -1.2201
  154SAPE  C21017136   4.185   0.691   9.335 -0.3729  0.0598 -0.0359
  154SAPE  H10R17137   4.201   0.766   9.416 -0.4365  0.1646 -0.1207
  154SAPE  H10S17138   4.075   0.687   9.317 -0.1935 -3.2695 -0.8028
  154SAPE  C21117139   4.240   0.740   9.202  0.3774  1.0150 -0.6579
  154SAPE  H11R17140   4.166   0.723   9.122 -0.6386  2.2201  0.0009
  154SAPE  C21217141   4.356   0.790   9.177  0.3762 -0.9529 -0.0481
  154SAPE  H12R17142   4.378   0.839   9.081 -1.2399 -0.6336 -0.2834
  154SAPE  C21317143   4.462   0.811   9.276  0.0206  0.1543 -0.6089
  154SAPE  H13R17144   4.445   0.742   9.362  1.4906 -1.4584 -1.5715
  154SAPE  H13S17145   4.466   0.917   9.309 -0.4515  0.3072 -1.0203
  154SAPE  C21417146   4.589   0.763   9.209  0.4510 -0.3965 -0.0385
  154SAPE  H14R17147   4.590   0.657   9.179 -2.6342 -0.8728  1.3220
  154SAPE  C21517148   4.703   0.828   9.201  0.1847 -0.3167  0.1559
  154SAPE  H15R17149   4.784   0.781   9.142  0.8010  1.9343 -0.8195
  154SAPE  C21617150   4.730   0.977   9.234 -0.3654 -0.4378  0.2297
  154SAPE  H16R17151   4.772   0.978   9.336 -0.2297  0.8964  0.1677
  154SAPE  H16S17152   4.644   1.046   9.216 -0.9713 -1.3284 -0.3710
  154SAPE  C21717153   4.837   1.034   9.133 -0.1184 -0.1633  0.0732
  154SAPE  H17R17154   4.807   1.049   9.027 -1.2534  1.3815  0.6119
  154SAPE  H17S17155   4.922   0.963   9.118  0.6644  0.6411  0.6669
  154SAPE  C21817156   4.887   1.171   9.176 -0.3237  0.2972 -0.1961
  154SAPE  H18R17157   4.908   1.178   9.285  0.1824 -1.2074 -0.1749
  154SAPE  H18S17158   4.804   1.239   9.149 -1.7071 -1.5561 -0.7032
  154SAPE  C21917159   5.009   1.227   9.097  0.0266 -0.0233 -0.0448
  154SAPE  H19R17160   5.090   1.151   9.100  0.7524  0.7452  0.0840
  154SAPE  H19S17161   5.039   1.324   9.143 -0.7251  0.8295 -1.3155
  154SAPE  C22017162   4.964   1.256   8.949  0.1384  0.0604  0.0785
  154SAPE  H20R17163   4.859   1.294   8.951  0.3083  0.4982  0.5867
  154SAPE  H20S17164   4.958   1.154   8.904 -2.8296  0.4297 -0.4730
  154SAPE  H20T17165   5.035   1.323   8.897  0.7793  0.4223  1.4149
  154SAPE   C3317166   3.671   0.996  10.114  0.1429  0.4211 -0.4300
  154SAPE   H3X17167   3.686   1.071  10.032 -3.2301  0.4526 -1.1202
  154SAPE   H3Y17168   3.563   0.999  10.142  0.5804 -0.5643  1.4089
  154SAPE   C3417169   3.703   0.866  10.040 -0.1099  0.3367 -0.4085
  154SAPE   H4X17170   3.680   0.766  10.083 -0.7653  0.1753 -1.1154
  154SAPE   H4Y17171   3.813   0.864  10.056 -0.1503  2.2184  0.2098
  154SAPE   C3517172   3.678   0.857   9.888  0.0979 -0.6555 -0.4766
  154SAPE   H5X17173   3.724   0.947   9.841 -1.4612 -0.3375 -1.4361
  154SAPE   H5Y17174   3.567   0.866   9.879 -0.1238 -1.0992  1.6758
  154SAPE   C3617175   3.749   0.739   9.825  0.1353  0.1163  0.6369
  154SAPE   H6X17176   3.763   0.666   9.907 -1.1683 -0.5751  0.2772
  154SAPE   H6Y17177   3.852   0.766   9.793 -0.1858  0.4609 -0.1237
  154SAPE   C3717178   3.659   0.697   9.704  0.4113  0.5935 -0.3700
  154SAPE   H7X17179   3.554   0.720   9.732  0.1367 -1.4336  0.2990
  154SAPE   H7Y17180   3.669   0.593   9.668 -1.5921  1.0654 -2.4077
  154SAPE   C3817181   3.691   0.774   9.581 -0.5600  0.1213 -0.1379
  154SAPE   H8X17182   3.801   0.785   9.570 -0.9876  2.6314 -2.3963
  154SAPE   H8Y17183   3.652   0.878   9.591 -4.0882 -1.1298 -0.0999
  154SAPE   C3917184   3.627   0.702   9.461 -0.7274 -1.0247  0.0530
  154SAPE   H9X17185   3.516   0.696   9.454 -0.6915 -1.3680 -0.1976
  154SAPE   H9Y17186   3.670   0.600   9.457 -0.0797 -0.7067 -1.5694
  154SAPE  C31017187   3.678   0.771   9.333 -0.4021 -0.0581 -0.6740
  154SAPE  H10X17188   3.788   0.772   9.347 -0.5274 -1.3174  0.5429
  154SAPE  H10Y17189   3.636   0.873   9.318 -0.4812  0.0665  0.3221
  154SAPE  C31117190   3.628   0.699   9.208 -0.4559 -0.3571  0.1589
  154SAPE  H11X17191   3.517   0.707   9.212 -0.4306  0.7863 -1.1605
  154SAPE  H11Y17192   3.641   0.588   9.205  1.3291 -0.2188  1.5470
  154SAPE  C31217193   3.680   0.768   9.087  0.2216 -0.3038 -0.4014
  154SAPE  H12X17194   3.791   0.758   9.083  0.4554  0.3286  3.1884
  154SAPE  H12Y17195   3.672   0.878   9.097  1.1170 -0.1498 -1.3189
  154SAPE  C31317196   3.613   0.712   8.957 -0.4126  0.1656 -0.2541
  154SAPE  H13X17197   3.504   0.701   8.975 -0.0898 -0.8796  1.1722
  154SAPE  H13Y17198   3.654   0.609   8.944 -0.5378  0.1606 -0.6062
  154SAPE  C31417199   3.631   0.802   8.838  0.3721 -0.2799 -0.5215
  154SAPE  H14X17200   3.641   0.742   8.745  1.1397  1.4232 -1.5565
  154SAPE  H14Y17201   3.722   0.863   8.854 -0.7398  0.7425  2.1380
  154SAPE  C31517202   3.510   0.896   8.813 -0.1437 -0.0120  0.4196
  154SAPE  H15X17203   3.499   0.958   8.904  0.1866 -0.0605  0.4939
  154SAPE  H15Y17204   3.414   0.842   8.803 -0.2848  0.1490  0.9071
  154SAPE  C31617205   3.522   0.981   8.683  0.4000 -0.1144  0.3847
  154SAPE  H16X17206   3.552   0.913   8.600  1.1862 -0.5210  0.9933
  154SAPE  H16Y17207   3.604   1.054   8.697 -1.2503  1.3041  2.8383
  154SAPE  C31717208   3.405   1.062   8.649  0.0443  0.0004 -0.5783
  154SAPE  H17X17209   3.389   1.132   8.733 -1.0150  0.4561 -1.1441
  154SAPE  H17Y17210   3.322   0.989   8.632  0.0725 -0.2786  0.4768
  154SAPE  C31817211   3.425   1.146   8.524  0.8085 -0.0902  0.2741
  154SAPE  H18X17212   3.344   1.222   8.515  1.1373  0.1957 -0.3222
  154SAPE  H18Y17213   3.427   1.092   8.427 -1.6779 -0.2996  0.3056
  154SAPE  H18Z17214   3.522   1.200   8.535 -0.5076  2.2793  0.5796
  155SAPE     N17215   4.648   1.795  10.705  0.0289  0.8751  0.2279
  155SAPE   HN117216   4.659   1.692  10.699 -3.7024  0.3717  1.2296
  155SAPE   HN217217   4.598   1.839  10.624 -2.6356 -1.6948  0.3793
  155SAPE   HN317218   4.740   1.843  10.699 -0.6473  2.4790  2.1271
  155SAPE   C1217219   4.580   1.822  10.826 -0.2652  0.1612  0.1802
  155SAPE  H12A17220   4.650   1.792  10.907 -1.0373  0.6112  1.0165
  155SAPE  H12B17221   4.490   1.757  10.829  0.1003 -0.3126  1.0540
  155SAPE   C1117222   4.539   1.966  10.837 -0.1687  0.2221  0.2187
  155SAPE  H11A17223   4.498   1.978  10.939  1.2286 -0.5747  0.8823
  155SAPE  H11B17224   4.459   1.979  10.760  0.7289  2.2259 -0.3969
  155SAPE     P17225   4.693   2.163  10.906 -0.0454  0.7381  0.2446
  155SAPE   O1317226   4.633   2.152  11.037  0.3474  0.0599 -0.2552
  155SAPE   O1417227   4.841   2.180  10.897  0.1257 -0.5579  0.3237
  155SAPE   O1217228   4.648   2.047  10.815  0.3744  0.2014  0.1432
  155SAPE   O1117229   4.636   2.291  10.837  0.5956 -0.0368 -0.0824
  155SAPE    C117230   4.512   2.277  10.761  0.2362 -0.3295  0.1076
  155SAPE    HA17231   4.448   2.195  10.800  0.9648 -0.1511  1.7393
  155SAPE    HB17232   4.456   2.372  10.775 -0.5340 -0.7608 -0.0564
  155SAPE    C217233   4.526   2.270  10.606  0.0819 -0.1089  0.4442
  155SAPE    HS17234   4.604   2.197  10.575 -0.0289 -0.2905  0.6031
  155SAPE   O2117235   4.558   2.397  10.546  0.1760  0.0614 -0.2708
  155SAPE   C2117236   4.678   2.413  10.498  0.2271  1.1980  0.2494
  155SAPE   O2217237   4.780   2.340  10.514  0.1918 -0.4487  0.1052
  155SAPE   C2217238   4.678   2.557  10.433  0.2517  0.1996  0.5255
  155SAPE   H2R17239   4.629   2.631  10.500  0.7637  1.6106 -0.6166
  155SAPE   H2S17240   4.786   2.579  10.420  0.3458 -0.4453  0.2123
  155SAPE    C317241   4.396   2.223  10.540  0.5927 -0.0229 -0.3029
  155SAPE    HX17242   4.314   2.294  10.563  1.8157  0.5814  2.2841
  155SAPE    HY17243   4.373   2.121  10.578 -0.4286  0.1321 -0.4890
  155SAPE   O3117244   4.413   2.210  10.398 -0.0775  0.0119  0.0424
  155SAPE   C3117245   4.364   2.289  10.299 -0.8280  1.1691 -1.0105
  155SAPE   O3217246   4.294   2.381  10.312  0.5115 -0.8263 -0.4313
  155SAPE   C3217247   4.401   2.226  10.167  0.2829 -0.4330  0.0950
  155SAPE   H2X17248   4.336   2.136  10.159  1.7009 -1.8324  3.5139
  155SAPE   H2Y17249   4.505   2.187  10.160  0.0365 -0.9205 -0.9065
  155SAPE   C2317250   4.602   2.567  10.296 -0.5220  0.1118  0.3334
  155SAPE   H3R17251   4.494   2.555  10.319 -0.3338  1.1971  1.9259
  155SAPE   H3S17252   4.633   2.479  10.237  3.1113  1.9766 -0.6887
  155SAPE   C2417253   4.628   2.695  10.212 -0.7700  0.3781  0.1189
  155SAPE   H4R17254   4.735   2.724  10.217 -0.9932  1.1981  0.1539
  155SAPE   H4S17255   4.567   2.772  10.263 -0.8719  1.0817 -1.0408
  155SAPE   C2517256   4.576   2.678  10.070 -0.0600  0.0850  0.2608
  155SAPE   H5R17257   4.466   2.668  10.068  0.1042 -2.6419  2.1175
  155SAPE   C2617258   4.648   2.624   9.963 -0.0278 -1.1732  0.3980
  155SAPE   H6R17259   4.599   2.628   9.865  0.0298  0.6762  0.4202
  155SAPE   C2717260   4.794   2.584   9.960 -0.1654 -0.2170 -0.0644
  155SAPE   H7R17261   4.802   2.486   9.907  0.3576 -0.8272  1.1335
  155SAPE   H7S17262   4.822   2.544  10.060 -1.1553  0.6405  0.5536
  155SAPE   C2817263   4.901   2.684   9.927 -1.2945 -0.1448 -0.1935
  155SAPE   H8R17264   4.922   2.756  10.007 -0.3509  0.4666 -0.9830
  155SAPE   C2917265   4.979   2.715   9.816 -0.5738 -0.3426  0.3908
  155SAPE   H9R17266   5.052   2.798   9.821 -1.7750  0.8970 -1.6437
  155SAPE  C21017267   4.978   2.645   9.682 -0.4983  0.1472 -0.3031
  155SAPE  H10R17268   4.966   2.536   9.700  0.1443 -0.2739 -2.3013
  155SAPE  H10S17269   5.078   2.654   9.634  0.6707 -0.5230  1.9044
  155SAPE  C21117270   4.866   2.686   9.589 -0.0683 -0.4800  0.6385
  155SAPE  H11R17271   4.795   2.756   9.635 -1.5408 -0.3225 -1.7768
  155SAPE  C21217272   4.841   2.650   9.465 -0.5707 -0.2516  0.3224
  155SAPE  H12R17273   4.766   2.704   9.405 -1.4349  0.4015  1.9687
  155SAPE  C21317274   4.934   2.556   9.394 -0.2644 -0.2131 -0.0599
  155SAPE  H13R17275   5.002   2.494   9.457 -0.7261 -0.1784  0.4761
  155SAPE  H13S17276   5.004   2.623   9.340 -0.8339 -0.3295 -0.9531
  155SAPE  C21417277   4.867   2.467   9.296  0.1143  0.4849 -0.2251
  155SAPE  H14R17278   4.766   2.425   9.310 -0.4553  1.0777 -2.3827
  155SAPE  C21517279   4.930   2.431   9.179  0.0706 -0.0389  0.0514
  155SAPE  H15R17280   4.889   2.352   9.115  1.0705 -0.5890  0.0773
  155SAPE  C21617281   5.069   2.469   9.131 -0.5689  0.2952  0.7332
  155SAPE  H16R17282   5.139   2.383   9.142 -0.1533  0.6304  0.7352
  155SAPE  H16S17283   5.117   2.551   9.189  1.2620 -0.1106 -0.1608
  155SAPE  C21717284   5.059   2.512   8.981 -0.0202  0.2317 -0.1936
  155SAPE  H17R17285   5.152   2.571   8.966 -0.8628  1.9292  1.0852
  155SAPE  H17S17286   4.983   2.591   8.970  0.1373  0.6997  1.8083
  155SAPE  C21817287   5.059   2.395   8.884  0.0386  0.3405  0.1806
  155SAPE  H18R17288   4.967   2.332   8.888  0.7497 -0.9028 -2.2842
  155SAPE  H18S17289   5.143   2.332   8.919 -0.4099 -0.2659  0.1827
  155SAPE  C21917290   5.082   2.451   8.745  0.1649 -0.6312  0.5426
  155SAPE  H19R17291   5.180   2.503   8.757 -0.7936  1.0950  0.9831
  155SAPE  H19S17292   5.011   2.532   8.718  0.2218 -0.7803 -0.0505
  155SAPE  C22017293   5.087   2.340   8.637 -0.0072  0.0125  0.0297
  155SAPE  H20R17294   5.187   2.293   8.647 -0.1160 -0.3234 -0.4434
  155SAPE  H20S17295   5.096   2.388   8.537  1.2771 -0.3294 -0.0222
  155SAPE  H20T17296   4.999   2.272   8.634 -0.7976  1.0066  0.5222
  155SAPE   C3317297   4.376   2.332  10.054 -0.6541 -0.1790 -1.0737
  155SAPE   H3X17298   4.416   2.433  10.079 -0.1824 -1.2458  2.8891
  155SAPE   H3Y17299   4.268   2.360  10.054 -1.2001 -2.0747  1.1291
  155SAPE   C3417300   4.410   2.277   9.917 -0.1286 -0.5660 -0.0802
  155SAPE   H4X17301   4.365   2.350   9.847  2.0340  0.9193  0.0413
  155SAPE   H4Y17302   4.354   2.182   9.903 -1.3058  0.0749  0.2747
  155SAPE   C3517303   4.561   2.264   9.881 -0.0202  0.1171  0.6584
  155SAPE   H5X17304   4.608   2.229   9.975  0.1025  2.6140  1.5608
  155SAPE   H5Y17305   4.602   2.367   9.870  2.3996 -1.1010 -2.6832
  155SAPE   C3617306   4.593   2.162   9.774 -0.9986 -1.1457 -0.8135
  155SAPE   H6X17307   4.522   2.077   9.763 -1.1197 -1.0625 -0.6631
  155SAPE   H6Y17308   4.698   2.136   9.796 -0.8701 -0.6153 -0.7874
  155SAPE   C3717309   4.603   2.214   9.629 -0.6593 -0.3147 -0.0691
  155SAPE   H7X17310   4.679   2.295   9.627 -0.0515 -0.8884 -2.1261
  155SAPE   H7Y17311   4.510   2.259   9.587  0.9802  2.1110 -1.2162
  155SAPE   C3817312   4.656   2.105   9.540  0.3748 -0.1518  0.1366
  155SAPE   H8X17313   4.596   2.011   9.546  0.6318 -0.3325 -0.0785
  155SAPE   H8Y17314   4.760   2.077   9.568 -0.3903 -2.1819  1.0577
  155SAPE   C3917315   4.664   2.148   9.393  0.5961 -0.2066 -0.2454
  155SAPE   H9X17316   4.734   2.233   9.376 -0.3067  0.6149  0.1071
  155SAPE   H9Y17317   4.563   2.176   9.355 -0.2339 -1.3847  1.0437
  155SAPE  C31017318   4.722   2.037   9.300  0.2386  0.2302  0.3629
  155SAPE  H10X17319   4.668   1.940   9.307  0.8284 -0.0868  0.5869
  155SAPE  H10Y17320   4.830   2.024   9.325 -0.2461 -1.5081  1.6354
  155SAPE  C31117321   4.710   2.091   9.161  0.1180 -0.4587  0.0439
  155SAPE  H11X17322   4.755   2.192   9.147 -3.1264  0.8809 -1.0718
  155SAPE  H11Y17323   4.604   2.106   9.133 -0.1273 -0.0207  1.1886
  155SAPE  C31217324   4.767   1.996   9.048  0.4500  1.2861 -0.8982
  155SAPE  H12X17325   4.720   1.895   9.047 -0.0496  1.4968  0.2928
  155SAPE  H12Y17326   4.878   1.984   9.052  0.5468  1.8015 -1.8356
  155SAPE  C31317327   4.729   2.058   8.914  1.4462  0.4558 -0.5944
  155SAPE  H13X17328   4.771   2.161   8.916  1.0304  0.6176  0.3028
  155SAPE  H13Y17329   4.618   2.053   8.908  1.4357 -0.2248  0.1729
  155SAPE  C31417330   4.779   1.966   8.801 -0.1292 -0.0656  0.1328
  155SAPE  H14X17331   4.889   1.957   8.788 -0.2058 -1.3694  0.3296
  155SAPE  H14Y17332   4.745   2.020   8.710 -1.5371  1.6733  1.6481
  155SAPE  C31517333   4.711   1.824   8.801  0.0494 -0.2581 -0.7889
  155SAPE  H15X17334   4.600   1.821   8.804 -0.0026  1.4519 -0.6257
  155SAPE  H15Y17335   4.757   1.767   8.884 -0.9785  0.4191  0.2674
  155SAPE  C31617336   4.747   1.757   8.671  0.6200  0.3987 -0.4429
  155SAPE  H16X17337   4.856   1.768   8.653  0.7855  1.3229  1.0679
  155SAPE  H16Y17338   4.695   1.815   8.592 -1.4833  1.8074  1.8716
  155SAPE  C31717339   4.703   1.609   8.650  0.0966  0.4759  0.1191
  155SAPE  H17X17340   4.773   1.551   8.715 -1.5599  0.5196  1.9960
  155SAPE  H17Y17341   4.721   1.581   8.544  0.6856 -2.5571  0.9723
  155SAPE  C31817342   4.556   1.574   8.681 -0.4808 -0.1509 -0.2057
  155SAPE  H18X17343   4.529   1.577   8.789  0.6736 -2.3126  0.1730
  155SAPE  H18Y17344   4.553   1.465   8.661  0.3897 -0.1309 -0.4985
  155SAPE  H18Z17345   4.480   1.625   8.618 -0.7581 -1.7031 -1.1525
  156SAPE     N17346   2.345   0.425  10.609  0.1275  0.6441 -0.3603
  156SAPE   HN117347   2.265   0.488  10.628  0.4949  1.2501 -0.7717
  156SAPE   HN217348   2.416   0.494  10.577  1.6141 -1.2398 -1.2875
  156SAPE   HN317349   2.329   0.369  10.522 -1.6029  0.8589 -0.1883
  156SAPE   C1217350   2.388   0.341  10.727  0.4542 -0.5733 -0.0401
  156SAPE  H12A17351   2.298   0.285  10.761 -0.6870  0.4498 -1.3071
  156SAPE  H12B17352   2.420   0.403  10.813  2.1674  0.0418 -1.1129
  156SAPE   C1117353   2.492   0.233  10.692 -0.0337  0.8605  0.0347
  156SAPE  H11A17354   2.512   0.165  10.777 -0.2929  0.4861 -0.2030
  156SAPE  H11B17355   2.582   0.288  10.657 -0.7356  2.8219  1.2402
  156SAPE     P17356   2.510   0.025  10.540  0.1445 -0.2097  0.5334
  156SAPE   O1317357   2.635  -0.003  10.615  0.0210 -0.0360 -0.9986
  156SAPE   O1417358   2.398  -0.071  10.553 -0.1124 -0.0997  0.1657
  156SAPE   O1217359   2.448   0.164  10.570 -0.3545  0.1011 -0.0781
  156SAPE   O1117360   2.549   0.043  10.386 -0.8243  0.1524  0.1502
  156SAPE    C117361   2.450   0.061  10.288  0.6868 -0.6919 -0.3879
  156SAPE    HA17362   2.377  -0.022  10.281  2.5430 -2.2973 -1.0707
  156SAPE    HB17363   2.413   0.166  10.284  1.4734 -0.4587 -2.3586
  156SAPE    C217364   2.511   0.039  10.145  0.5682 -0.6492  0.2040
  156SAPE    HS17365   2.598   0.104  10.120 -1.3651  1.8883 -0.0636
  156SAPE   O2117366   2.410   0.048  10.047 -0.2859  0.2965  0.3105
  156SAPE   C2117367   2.354   0.167  10.030  0.3001 -0.4095  0.8273
  156SAPE   O2217368   2.385   0.270  10.086  0.2500 -0.4092 -0.6591
  156SAPE   C2217369   2.256   0.158   9.920  0.1861 -0.2653 -0.0737
  156SAPE   H2R17370   2.249   0.052   9.885  2.1038 -0.8762  1.2933
  156SAPE   H2S17371   2.156   0.186   9.958  0.0010 -0.0859 -0.6881
  156SAPE    C317372   2.566  -0.105  10.146 -0.5403 -0.4199 -0.3322
  156SAPE    HX17373   2.510  -0.151  10.230  1.2382 -0.8269  0.6544
  156SAPE    HY17374   2.670  -0.101  10.186 -0.5999  0.1859 -0.2297
  156SAPE   O3117375   2.562  -0.176  10.024  0.2902 -0.1211 -0.4073
  156SAPE   C3117376   2.470  -0.267  10.005 -0.5199  0.4298  0.2960
  156SAPE   O3217377   2.399  -0.318  10.088  0.2768 -0.2045 -0.4388
  156SAPE   C3217378   2.462  -0.305   9.852 -0.1101 -0.0471 -0.1294
  156SAPE   H2X17379   2.390  -0.390   9.842 -0.4367  0.3849 -1.6201
  156SAPE   H2Y17380   2.564  -0.342   9.826  0.2913  0.2388  1.0066
  156SAPE   C2317381   2.300   0.243   9.796 -0.0136  0.1418 -0.3810
  156SAPE   H3R17382   2.397   0.227   9.744  0.1742 -0.4479  0.1380
  156SAPE   H3S17383   2.296   0.349   9.829  0.3126 -0.0016  0.1309
  156SAPE   C2417384   2.191   0.218   9.684  0.4983  0.7158  0.0142
  156SAPE   H4R17385   2.096   0.201   9.738  0.1867  0.1747 -0.6980
  156SAPE   H4S17386   2.202   0.124   9.626  0.2015  1.6126 -1.5247
  156SAPE   C2517387   2.189   0.333   9.594 -0.2518 -0.3542 -0.6289
  156SAPE   H5R17388   2.113   0.408   9.622  1.0910  0.6850  0.3175
  156SAPE   C2617389   2.259   0.349   9.483 -0.1544 -0.0073 -0.4148
  156SAPE   H6R17390   2.247   0.445   9.430 -0.0386 -0.0804 -0.5771
  156SAPE   C2717391   2.363   0.253   9.433 -0.4547  0.2632 -0.2877
  156SAPE   H7R17392   2.311   0.199   9.351  0.4522  0.9290 -1.3090
  156SAPE   H7S17393   2.378   0.173   9.509 -1.8594 -0.5382 -0.8286
  156SAPE   C2817394   2.497   0.320   9.388 -0.0262 -0.0159 -0.0566
  156SAPE   H8R17395   2.576   0.318   9.465 -0.3010 -1.8648  0.2118
  156SAPE   C2917396   2.541   0.346   9.266  0.6037 -0.6068 -0.4301
  156SAPE   H9R17397   2.630   0.410   9.259 -1.0362  1.8693  0.9471
  156SAPE  C21017398   2.463   0.328   9.136  0.1173  0.5408  0.5604
  156SAPE  H10R17399   2.353   0.316   9.144  0.1910 -0.4149  0.1695
  156SAPE  H10S17400   2.497   0.240   9.077 -0.3807  0.6192  0.1467
  156SAPE  C21117401   2.500   0.441   9.044 -0.0739  0.1759 -0.4366
  156SAPE  H11R17402   2.517   0.537   9.096 -0.9281 -0.5348  1.2077
  156SAPE  C21217403   2.520   0.439   8.909  0.8277  0.2302 -0.0829
  156SAPE  H12R17404   2.527   0.534   8.853 -0.6119 -1.0026 -2.4318
  156SAPE  C21317405   2.514   0.320   8.815  0.2377  0.5335  0.1913
  156SAPE  H13R17406   2.409   0.286   8.809 -0.0394  1.4480 -0.3942
  156SAPE  H13S17407   2.570   0.230   8.848  0.6057  1.4029  2.0091
  156SAPE  C21417408   2.548   0.355   8.674  0.4830  0.2213  0.1801
  156SAPE  H14R17409   2.649   0.391   8.652  0.8442  0.2348  1.7552
  156SAPE  C21517410   2.456   0.359   8.570 -0.2554 -0.4312 -0.7182
  156SAPE  H15R17411   2.496   0.398   8.475 -0.0232  0.3229 -0.3148
  156SAPE  C21617412   2.308   0.343   8.566 -0.6887 -0.4212  0.4858
  156SAPE  H16R17413   2.258   0.412   8.637  1.5054  0.3393  1.3437
  156SAPE  H16S17414   2.273   0.242   8.596  2.6545 -1.6600  0.4476
  156SAPE  C21717415   2.237   0.369   8.428 -0.3535  0.9027 -0.4982
  156SAPE  H17R17416   2.290   0.313   8.348 -0.2011 -0.9261  0.8429
  156SAPE  H17S17417   2.240   0.478   8.407 -0.9700  1.0792  0.3124
  156SAPE  C21817418   2.094   0.316   8.428  0.0599  0.6560  0.2423
  156SAPE  H18R17419   2.049   0.306   8.530 -0.0174 -2.9042 -0.0893
  156SAPE  H18S17420   2.101   0.210   8.398  3.3070  0.2441  2.2527
  156SAPE  C21917421   2.004   0.391   8.325 -0.4942  0.2429 -0.4689
  156SAPE  H19R17422   2.036   0.378   8.219  0.9673  3.2159 -0.4293
  156SAPE  H19S17423   2.018   0.497   8.354  1.1547  0.2522 -1.2775
  156SAPE  C22017424   1.862   0.354   8.353  0.1164  0.8385  0.2336
  156SAPE  H20R17425   1.785   0.412   8.298 -2.3578 -3.3228 -0.9680
  156SAPE  H20S17426   1.847   0.376   8.461  2.4960  2.2544  0.3006
  156SAPE  H20T17427   1.851   0.246   8.327  0.0249  0.6914  0.8644
  156SAPE   C3317428   2.425  -0.201   9.752  0.4391 -0.3997 -0.1630
  156SAPE   H3X17429   2.490  -0.113   9.771 -3.6214  2.4350  1.3984
  156SAPE   H3Y17430   2.319  -0.169   9.765  0.2826  0.3484 -2.9000
  156SAPE   C3417431   2.439  -0.251   9.605  0.2311  0.5894 -0.5257
  156SAPE   H4X17432   2.344  -0.309   9.600 -0.4686  1.5123  1.6572
  156SAPE   H4Y17433   2.530  -0.314   9.598 -0.0514  0.1747 -0.4706
  156SAPE   C3517434   2.449  -0.142   9.497  0.5203  0.5268 -0.7514
  156SAPE   H5X17435   2.494  -0.050   9.540  0.6966 -0.0539  0.3277
  156SAPE   H5Y17436   2.345  -0.117   9.469  0.1146  0.6622  0.8432
  156SAPE   C3617437   2.518  -0.173   9.364 -0.5582  0.1571  0.0726
  156SAPE   H6X17438   2.478  -0.265   9.315  1.2327 -0.1433 -0.8575
  156SAPE   H6Y17439   2.628  -0.184   9.361 -0.4435  1.4206 -0.8852
  156SAPE   C3717440   2.487  -0.085   9.241 -0.2925 -0.1248 -0.0208
  156SAPE   H7X17441   2.542  -0.119   9.151  1.4657 -2.4095  1.8456
  156SAPE   H7Y17442   2.531   0.017   9.251 -1.4330  0.4186 -0.4845
  156SAPE   C3817443   2.339  -0.087   9.210  0.1652  0.3530 -0.2416
  156SAPE   H8X17444   2.284  -0.033   9.289 -0.3853 -1.6271  0.7651
  156SAPE   H8Y17445   2.293  -0.188   9.204  0.9203 -0.1750  2.2997
  156SAPE   C3917446   2.306  -0.031   9.070 -0.0581 -0.1118 -0.7650
  156SAPE   H9X17447   2.302   0.080   9.075  2.2301 -0.0791  1.3528
  156SAPE   H9Y17448   2.207  -0.069   9.038  0.3010  0.0581 -2.0857
  156SAPE  C31017449   2.392  -0.073   8.947 -0.0918  0.4572  0.2233
  156SAPE  H10X17450   2.404  -0.184   8.952  0.2890  0.4184 -1.3420
  156SAPE  H10Y17451   2.491  -0.025   8.960 -0.2585  0.6354  0.8798
  156SAPE  C31117452   2.320  -0.044   8.815  0.5338 -0.7488  0.1391
  156SAPE  H11X17453   2.340   0.062   8.786  0.3254 -0.3933  1.2811
  156SAPE  H11Y17454   2.212  -0.043   8.840  0.7520  0.4368  1.0927
  156SAPE  C31217455   2.338  -0.140   8.697 -0.0196  0.0259  0.5178
  156SAPE  H12X17456   2.264  -0.118   8.617 -0.7755 -2.2614  0.5669
  156SAPE  H12Y17457   2.317  -0.240   8.740 -0.4948  0.0431  0.3362
  156SAPE  C31317458   2.485  -0.150   8.638  0.1423  0.3915  0.0054
  156SAPE  H13X17459   2.483  -0.241   8.574 -1.7902  1.6265 -1.7485
  156SAPE  H13Y17460   2.563  -0.163   8.716  0.5177  1.0224 -0.2643
  156SAPE  C31417461   2.530  -0.041   8.536  0.1939  0.2404  0.6035
  156SAPE  H14X17462   2.547   0.053   8.592 -1.8570  0.7024  0.4899
  156SAPE  H14Y17463   2.452  -0.036   8.457  1.7468  1.2946 -0.8843
  156SAPE  C31517464   2.667  -0.089   8.469 -0.2414  0.2239  0.1509
  156SAPE  H15X17465   2.654  -0.183   8.411  2.2165  0.8300 -1.4877
  156SAPE  H15Y17466   2.736  -0.104   8.554 -0.2475 -0.2685  0.0696
  156SAPE  C31617467   2.738   0.012   8.379  0.5521  0.9193  0.2410
  156SAPE  H16X17468   2.826  -0.041   8.338 -0.7376 -0.8990 -0.2116
  156SAPE  H16Y17469   2.773   0.086   8.454  0.6233 -0.6132  1.7440
  156SAPE  C31717470   2.650   0.054   8.265  0.2632 -0.2313  0.1070
  156SAPE  H17X17471   2.545   0.078   8.291 -0.0229  0.2535 -1.4144
  156SAPE  H17Y17472   2.653  -0.038   8.202  0.3292 -1.2318  1.5602
  156SAPE  C31817473   2.710   0.184   8.205 -0.1335 -0.4284 -0.2910
  156SAPE  H18X17474   2.807   0.162   8.156 -0.1191  0.6179 -0.7396
  156SAPE  H18Y17475   2.713   0.264   8.283 -0.7119 -0.1259 -0.5818
  156SAPE  H18Z17476   2.646   0.205   8.117  0.2543  0.8185 -0.2946
  157SAPE     N17477   0.659   0.186  10.902  0.3361 -0.1264  0.2078
  157SAPE   HN117478   0.654   0.263  10.972  0.3852  1.3878 -1.4480
  157SAPE   HN217479   0.563   0.146  10.898  0.3370 -0.0764 -0.2385
  157SAPE   HN317480   0.732   0.112  10.910  0.1051 -0.7430 -2.8767
  157SAPE   C1217481   0.664   0.256  10.772  0.2378 -0.5159 -0.0109
  157SAPE  H12A17482   0.578   0.324  10.757  0.2648 -0.2456  0.9816
  157SAPE  H12B17483   0.659   0.176  10.695  2.5999 -1.1529  0.4601
  157SAPE   C1117484   0.799   0.330  10.745 -0.8168 -0.3404  0.2506
  157SAPE  H11A17485   0.813   0.420  10.808  0.9422 -0.3941 -0.0370
  157SAPE  H11B17486   0.798   0.374  10.643  1.4430  1.2118  0.8660
  157SAPE     P17487   0.993   0.181  10.647  0.2405 -0.5923 -0.0327
  157SAPE   O1317488   1.067   0.295  10.586  1.0719  0.2439  0.0626
  157SAPE   O1417489   1.069   0.063  10.692  0.2542 -0.4230  0.7555
  157SAPE   O1217490   0.908   0.240  10.764 -0.0664 -0.1544  0.5672
  157SAPE   O1117491   0.879   0.144  10.539 -0.6657  0.1068  0.4048
  157SAPE    C117492   0.854   0.005  10.506  0.0359 -0.0981  0.7260
  157SAPE    HA17493   0.850  -0.055  10.600  3.5597 -1.7561 -0.0953
  157SAPE    HB17494   0.760  -0.006  10.447  1.7617  0.9726 -2.3559
  157SAPE    C217495   0.971  -0.062  10.419 -0.2849  0.3388  0.8282
  157SAPE    HS17496   1.065  -0.058  10.478 -0.6893  2.1817  1.4083
  157SAPE   O2117497   0.979   0.012  10.298  0.1314  0.1741  0.0789
  157SAPE   C2117498   1.096   0.019  10.231 -0.5039 -0.5620  0.4864
  157SAPE   O2217499   1.200  -0.045  10.265  0.3507 -0.0359 -0.5240
  157SAPE   C2217500   1.086   0.095  10.104  0.6654  0.3622  0.3689
  157SAPE   H2R17501   1.109   0.201  10.128  0.6423  0.4561 -0.0179
  157SAPE   H2S17502   1.170   0.052  10.045  1.5388 -0.6694  2.3359
  157SAPE    C317503   0.932  -0.206  10.392 -0.2923  0.1302 -0.7424
  157SAPE    HX17504   0.829  -0.197  10.353 -0.2181  2.8610 -0.4153
  157SAPE    HY17505   0.929  -0.250  10.493  0.2770  0.0546 -0.7561
  157SAPE   O3117506   1.019  -0.273  10.295 -0.3429  0.1338  0.2708
  157SAPE   C3117507   1.128  -0.338  10.337  0.5365  0.5961  0.4965
  157SAPE   O3217508   1.167  -0.338  10.454 -0.1940 -0.1053 -0.9043
  157SAPE   C3217509   1.206  -0.402  10.218  0.5896 -0.3546  0.0570
  157SAPE   H2X17510   1.304  -0.435  10.259 -0.8048 -2.1705  2.0199
  157SAPE   H2Y17511   1.236  -0.321  10.147  1.4287 -1.1642 -0.5288
  157SAPE   C2317512   0.947   0.082  10.034 -0.4731 -0.1649 -0.0673
  157SAPE   H3R17513   0.965   0.150   9.949  0.5350  0.4040  0.5890
  157SAPE   H3S17514   0.864   0.128  10.093 -0.6288 -1.3744  0.6869
  157SAPE   C2417515   0.900  -0.058   9.991  0.4548 -0.0782 -0.0704
  157SAPE   H4R17516   0.806  -0.048   9.932 -0.5170  0.6257  1.5683
  157SAPE   H4S17517   0.882  -0.116  10.084 -0.8564  1.4762  0.6687
  157SAPE   C2517518   0.994  -0.143   9.912 -0.4986  0.1960 -0.0616
  157SAPE   H5R17519   1.089  -0.166   9.961 -1.3516  1.3051  2.1673
  157SAPE   C2617520   0.985  -0.192   9.789  0.7992 -0.0230 -0.2210
  157SAPE   H6R17521   1.074  -0.248   9.758 -0.5330 -2.2776 -0.0725
  157SAPE   C2717522   0.859  -0.193   9.702 -1.1864  0.5189 -0.2397
  157SAPE   H7R17523   0.841  -0.088   9.669 -0.4214  0.7519  0.0645
  157SAPE   H7S17524   0.765  -0.220   9.754 -1.7051 -1.2322 -2.0118
  157SAPE   C2817525   0.875  -0.292   9.587  0.6454 -0.6575 -0.8449
  157SAPE   H8R17526   0.826  -0.391   9.591 -2.4439  0.8710  0.7175
  157SAPE   C2917527   0.926  -0.251   9.472 -0.6121  0.7898  0.3361
  157SAPE   H9R17528   0.929  -0.334   9.399  2.6072 -0.5464  1.8712
  157SAPE  C21017529   0.988  -0.117   9.432 -0.1051  0.4902  0.6373
  157SAPE  H10R17530   1.030  -0.060   9.518  0.0906  1.5426 -0.1448
  157SAPE  H10S17531   0.912  -0.047   9.391 -0.0549  0.8002  1.0704
  157SAPE  C21117532   1.109  -0.123   9.335  0.3627 -1.0056  0.0617
  157SAPE  H11R17533   1.205  -0.079   9.366  0.7438 -0.1465 -2.1968
  157SAPE  C21217534   1.106  -0.166   9.209 -0.1838  0.4505 -0.7369
  157SAPE  H12R17535   1.193  -0.141   9.146 -0.9973  4.9626 -0.2114
  157SAPE  C21317536   0.986  -0.219   9.135  0.7881 -0.3677  0.6841
  157SAPE  H13R17537   0.942  -0.139   9.072  2.0265  1.9772  2.7149
  157SAPE  H13S17538   0.896  -0.220   9.201 -0.2561  0.7397 -0.6974
  157SAPE  C21417539   1.017  -0.338   9.043 -0.5925  0.3536 -0.6443
  157SAPE  H14R17540   1.113  -0.335   8.989 -0.3222  2.2608 -0.0807
  157SAPE  C21517541   0.937  -0.444   9.010 -1.0429  0.1378  0.9894
  157SAPE  H15R17542   0.982  -0.525   8.951 -0.7354 -1.1632  2.9377
  157SAPE  C21617543   0.801  -0.465   9.067 -0.4152 -0.0563 -0.6771
  157SAPE  H16R17544   0.755  -0.371   9.104 -1.4914 -1.3772  1.4848
  157SAPE  H16S17545   0.818  -0.530   9.156  1.0800 -0.5959 -1.3474
  157SAPE  C21717546   0.699  -0.543   8.988 -0.0443  0.2108  0.4564
  157SAPE  H17R17547   0.747  -0.643   8.983  1.6713  0.8245  3.4729
  157SAPE  H17S17548   0.689  -0.505   8.884  0.5245  3.5492  1.5374
  157SAPE  C21817549   0.554  -0.553   9.046  0.7894  0.3076 -0.3933
  157SAPE  H18R17550   0.482  -0.609   8.981  0.2014  0.0845  0.4367
  157SAPE  H18S17551   0.505  -0.461   9.084  0.0307 -0.1433 -0.2466
  157SAPE  C21917552   0.561  -0.623   9.183 -0.4133  0.0256 -0.2058
  157SAPE  H19R17553   0.615  -0.576   9.268 -1.2850 -0.6503  0.7439
  157SAPE  H19S17554   0.610  -0.721   9.161 -1.6435 -0.7235  0.3378
  157SAPE  C22017555   0.424  -0.653   9.234 -0.6130  0.8259 -0.2638
  157SAPE  H20R17556   0.357  -0.714   9.169  0.6349  0.0982 -0.8867
  157SAPE  H20S17557   0.376  -0.556   9.261 -0.6151  1.0854 -1.1564
  157SAPE  H20T17558   0.436  -0.718   9.323 -0.2206  1.7186  0.3389
  157SAPE   C3317559   1.150  -0.527  10.148  1.0648  0.0520 -0.0099
  157SAPE   H3X17560   1.041  -0.507  10.140  0.4989 -2.4635  0.9723
  157SAPE   H3Y17561   1.153  -0.613  10.217  1.7825 -0.8982 -1.2145
  157SAPE   C3417562   1.204  -0.554  10.003  0.5705  0.4900  0.2993
  157SAPE   H4X17563   1.314  -0.571  10.009  0.5405 -0.3353 -1.3064
  157SAPE   H4Y17564   1.200  -0.457   9.949  1.2887  0.9870  1.1176
  157SAPE   C3517565   1.134  -0.662   9.932 -0.2262 -0.4295  0.0367
  157SAPE   H5X17566   1.026  -0.636   9.933 -0.0294  0.3982  0.8349
  157SAPE   H5Y17567   1.135  -0.759   9.985 -1.4878 -1.5018 -1.8567
  157SAPE   C3617568   1.181  -0.675   9.787 -0.2903  0.4870 -0.1885
  157SAPE   H6X17569   1.284  -0.717   9.794  0.1017  1.0737 -2.2069
  157SAPE   H6Y17570   1.185  -0.571   9.748  0.7455  0.6415  0.3112
  157SAPE   C3717571   1.078  -0.761   9.711 -0.2897 -0.1078  0.4385
  157SAPE   H7X17572   1.044  -0.838   9.784  0.9388 -2.0700 -1.0168
  157SAPE   H7Y17573   1.135  -0.822   9.638  0.6328  0.8425  0.3609
  157SAPE   C3817574   0.969  -0.683   9.637 -0.0675  0.3872  0.4417
  157SAPE   H8X17575   1.024  -0.614   9.569 -0.3382  1.7057  1.5309
  157SAPE   H8Y17576   0.911  -0.613   9.701 -0.4128 -1.3597  2.0924
  157SAPE   C3917577   0.890  -0.762   9.538 -0.3752 -0.2899 -0.7690
  157SAPE   H9X17578   0.849  -0.847   9.597  0.5457  0.6228  1.2421
  157SAPE   H9Y17579   0.956  -0.800   9.457  1.5426 -0.1428  0.6885
  157SAPE  C31017580   0.777  -0.689   9.469  0.0208  0.2672  0.6629
  157SAPE  H10X17581   0.722  -0.760   9.404  2.7903  0.6709 -2.2208
  157SAPE  H10Y17582   0.813  -0.609   9.401  0.7443 -0.6189 -0.0036
  157SAPE  C31117583   0.668  -0.625   9.558  0.0422  0.7447  0.3087
  157SAPE  H11X17584   0.591  -0.579   9.493 -0.5730 -2.4209 -1.3001
  157SAPE  H11Y17585   0.718  -0.552   9.625 -1.2631  1.6435  0.3132
  157SAPE  C31217586   0.592  -0.723   9.640 -0.1588  0.2337 -0.0840
  157SAPE  H12X17587   0.583  -0.821   9.588 -1.1427  0.0751  0.3582
  157SAPE  H12Y17588   0.492  -0.679   9.660  0.4449  1.3187  0.5574
  157SAPE  C31317589   0.654  -0.759   9.772  0.3118  0.6778 -1.0563
  157SAPE  H13X17590   0.665  -0.667   9.833  1.1715 -0.1111 -0.0194
  157SAPE  H13Y17591   0.759  -0.793   9.770  0.1946  0.3455 -1.5728
  157SAPE  C31417592   0.558  -0.848   9.858 -0.1895 -0.7459 -1.0539
  157SAPE  H14X17593   0.529  -0.939   9.801  0.6331 -0.8358 -1.3393
  157SAPE  H14Y17594   0.461  -0.794   9.869  0.6325  0.2118  1.9350
  157SAPE  C31517595   0.615  -0.878   9.998 -0.3581 -0.0985  0.0710
  157SAPE  H15X17596   0.668  -0.789  10.037 -0.2833  0.2220 -0.7458
  157SAPE  H15Y17597   0.688  -0.961   9.990 -1.3659 -0.8908 -1.1537
  157SAPE  C31617598   0.503  -0.940  10.086 -0.3818 -0.3400 -0.0294
  157SAPE  H16X17599   0.480  -1.041  10.046  1.3234 -1.2667  1.2630
  157SAPE  H16Y17600   0.407  -0.883  10.089 -0.5301 -0.5331 -1.0773
  157SAPE  C31717601   0.546  -0.957  10.234  0.2844 -0.2846 -0.0325
  157SAPE  H17X17602   0.476  -1.037  10.266 -1.0701  0.1737 -1.7610
  157SAPE  H17Y17603   0.524  -0.860  10.282 -1.0513 -0.8014  0.4228
  157SAPE  C31817604   0.683  -1.023  10.274 -0.8942 -0.7112  0.0659
  157SAPE  H18X17605   0.686  -1.031  10.385  0.5056  0.9968  0.1621
  157SAPE  H18Y17606   0.764  -0.957  10.238 -2.0606  1.1592  0.8149
  157SAPE  H18Z17607   0.703  -1.120  10.224  3.0991 -0.9510  1.9316
  158SAPE     N17608   2.941   0.127  10.404 -0.0896 -0.1683 -0.0497
  158SAPE   HN117609   2.854   0.179  10.378  1.6685  3.4346  0.9060
  158SAPE   HN217610   2.996   0.173  10.479 -2.6864  0.4449  1.5789
  158SAPE   HN317611   3.003   0.140  10.321  1.3110  0.2855  1.0494
  158SAPE   C1217612   2.924  -0.013  10.452 -0.1297 -0.2429  0.5939
  158SAPE  H12A17613   2.849  -0.070  10.394  0.0006 -1.4648  1.6056
  158SAPE  H12B17614   2.878  -0.004  10.553  1.2704 -2.9516  1.5305
  158SAPE   C1117615   3.060  -0.081  10.456  0.7788  0.9749 -1.0672
  158SAPE  H11A17616   3.127  -0.043  10.536  0.2748 -2.0897  0.8748
  158SAPE  H11B17617   3.109  -0.071  10.356  3.8875  2.5122  0.5358
  158SAPE     P17618   3.140  -0.331  10.455  0.1462 -0.2516 -0.0976
  158SAPE   O1317619   3.275  -0.284  10.482  0.1216 -0.3417 -0.2248
  158SAPE   O1417620   3.090  -0.449  10.527  0.1092 -0.1627 -0.3514
  158SAPE   O1217621   3.033  -0.215  10.487 -0.6219 -0.0248 -1.2429
  158SAPE   O1117622   3.122  -0.357  10.292  0.4224 -0.0863 -0.1447
  158SAPE    C117623   3.005  -0.330  10.220 -0.5802 -0.1161  0.5021
  158SAPE    HA17624   2.967  -0.424  10.176 -0.4112 -0.2483  0.6393
  158SAPE    HB17625   2.922  -0.292  10.284 -1.2318  0.1853 -0.5124
  158SAPE    C217626   3.032  -0.228  10.102  0.6102  0.5924  0.4488
  158SAPE    HS17627   3.048  -0.130  10.151  0.7655 -0.0239  1.6348
  158SAPE   O2117628   2.925  -0.233  10.006 -0.6241  0.3933 -0.1729
  158SAPE   C2117629   2.915  -0.116   9.946 -0.1526  0.3927  0.4163
  158SAPE   O2217630   2.969  -0.013   9.978  0.3032 -0.4712 -0.1126
  158SAPE   C2217631   2.829  -0.138   9.824 -0.1020  0.1148  0.1462
  158SAPE   H2R17632   2.883  -0.191   9.743  0.8482 -0.1498  0.9339
  158SAPE   H2S17633   2.742  -0.196   9.861  0.3410 -1.5965 -1.4457
  158SAPE    C317634   3.174  -0.251  10.036  0.3908  0.7525  0.5715
  158SAPE    HX17635   3.186  -0.357  10.005 -2.2808  0.8433 -0.8458
  158SAPE    HY17636   3.253  -0.223  10.110  1.9768  0.1100 -0.8429
  158SAPE   O3117637   3.188  -0.166   9.923  0.2378 -0.5706  0.2432
  158SAPE   C3117638   3.221  -0.214   9.804  0.2598  0.1500  0.2458
  158SAPE   O3217639   3.252  -0.330   9.787 -0.3108 -0.0847 -0.3886
  158SAPE   C3217640   3.229  -0.105   9.694  0.3314 -0.4398 -0.5601
  158SAPE   H2X17641   3.306  -0.030   9.719  1.2382 -2.3153  2.6406
  158SAPE   H2Y17642   3.134  -0.051   9.717  0.7021  1.2717 -2.8989
  158SAPE   C2317643   2.782  -0.002   9.758 -0.3997  0.4183 -0.1516
  158SAPE   H3R17644   2.725   0.061   9.830 -0.4830 -0.5187  0.6101
  158SAPE   H3S17645   2.707  -0.025   9.679 -1.3958  2.7822  0.0670
  158SAPE   C2417646   2.899   0.075   9.689 -0.1563  0.5208 -0.2358
  158SAPE   H4R17647   2.944   0.005   9.615  0.9073  0.5634  0.3674
  158SAPE   H4S17648   2.981   0.101   9.760 -0.6234  1.1758  0.0734
  158SAPE   C2517649   2.848   0.208   9.648  0.8141 -0.6880 -0.1860
  158SAPE   H5R17650   2.816   0.269   9.733 -0.2636 -1.0689 -0.3041
  158SAPE   C2617651   2.827   0.241   9.521 -0.0879  0.5255 -0.2426
  158SAPE   H6R17652   2.783   0.338   9.495 -0.5196  0.2033 -0.7203
  158SAPE   C2717653   2.833   0.157   9.395 -0.0391 -0.6449 -0.1339
  158SAPE   H7R17654   2.737   0.167   9.340 -0.0779 -0.5568 -0.0508
  158SAPE   H7S17655   2.857   0.052   9.423  0.0775 -1.0880 -1.8205
  158SAPE   C2817656   2.948   0.211   9.310 -0.3477  0.4705 -0.1088
  158SAPE   H8R17657   3.012   0.286   9.358 -0.0777  0.7246 -0.8654
  158SAPE   C2917658   2.975   0.165   9.187  0.2685  0.5516 -0.0362
  158SAPE   H9R17659   3.050   0.220   9.128  1.5066  1.4076  2.2572
  158SAPE  C21017660   2.896   0.063   9.116  0.6603  0.2189  0.9597
  158SAPE  H10R17661   2.801   0.036   9.167  1.1130 -1.1542  1.0897
  158SAPE  H10S17662   2.961  -0.026   9.108 -0.1421 -0.1909 -1.4360
  158SAPE  C21117663   2.858   0.109   8.978  0.1289  0.1072 -0.0077
  158SAPE  H11R17664   2.842   0.217   8.968  0.6679  0.1363 -0.5599
  158SAPE  C21217665   2.837   0.023   8.871 -0.1652 -0.4222 -0.3762
  158SAPE  H12R17666   2.806   0.064   8.773  1.3294 -2.9541 -1.9693
  158SAPE  C21317667   2.841  -0.127   8.866 -0.6112  0.2041  0.1169
  158SAPE  H13R17668   2.945  -0.163   8.878 -0.6747  1.1125  3.7896
  158SAPE  H13S17669   2.807  -0.160   8.765 -0.7676  1.9478 -0.4291
  158SAPE  C21417670   2.759  -0.206   8.969 -0.2444 -0.4005  0.1812
  158SAPE  H14R17671   2.700  -0.143   9.038  0.8327  0.0982  0.6613
  158SAPE  C21517672   2.744  -0.338   8.961  0.1169  0.1728 -0.7268
  158SAPE  H15R17673   2.670  -0.397   9.018  0.6069 -1.6547 -1.9464
  158SAPE  C21617674   2.804  -0.432   8.861  0.0694 -0.2164  0.0302
  158SAPE  H16R17675   2.890  -0.482   8.911 -2.1519 -0.8131  3.4075
  158SAPE  H16S17676   2.853  -0.379   8.776  2.4323 -2.0024  0.2360
  158SAPE  C21717677   2.718  -0.540   8.796 -0.1411  0.0297  0.5512
  158SAPE  H17R17678   2.659  -0.596   8.872 -0.3008 -1.1525 -0.4240
  158SAPE  H17S17679   2.786  -0.617   8.754  0.6921  0.3558  1.2992
  158SAPE  C21817680   2.619  -0.490   8.690  0.0373  0.0718 -0.4859
  158SAPE  H18R17681   2.681  -0.429   8.622 -2.1818  1.2167 -1.5559
  158SAPE  H18S17682   2.545  -0.420   8.735  0.8657  2.6519 -2.9819
  158SAPE  C21917683   2.545  -0.582   8.598 -0.4527  0.4795 -0.5588
  158SAPE  H19R17684   2.492  -0.659   8.657  0.7964  0.6536  0.8087
  158SAPE  H19S17685   2.623  -0.637   8.542 -0.9504 -1.0865  0.2618
  158SAPE  C22017686   2.452  -0.499   8.510 -0.2621 -0.8373 -0.5417
  158SAPE  H20R17687   2.432  -0.573   8.430 -0.6562 -1.3363  0.0108
  158SAPE  H20S17688   2.509  -0.416   8.462  0.4378 -0.7297  0.4562
  158SAPE  H20T17689   2.361  -0.463   8.563  0.8597  2.7925 -0.8934
  158SAPE   C3317690   3.225  -0.154   9.546 -0.1553  0.5129 -0.4196
  158SAPE   H3X17691   3.120  -0.186   9.528 -1.4104  2.7345  2.5945
  158SAPE   H3Y17692   3.303  -0.232   9.537 -0.8259 -0.1626 -0.3546
  158SAPE   C3417693   3.256  -0.033   9.448  0.7331  0.2129 -0.1998
  158SAPE   H4X17694   3.197   0.055   9.481 -0.5812 -1.1980  1.2864
  158SAPE   H4Y17695   3.222  -0.055   9.344 -0.5223  1.9752 -0.1779
  158SAPE   C3517696   3.403   0.007   9.432  0.9202 -0.1228  0.1466
  158SAPE   H5X17697   3.435  -0.005   9.538  0.3551 -0.8418  0.2393
  158SAPE   H5Y17698   3.422   0.113   9.406 -0.0465  0.1075  0.3624
  158SAPE   C3617699   3.481  -0.091   9.340 -0.7005  0.0229  0.6050
  158SAPE   H6X17700   3.434  -0.190   9.358  0.1131 -0.2535  1.2844
  158SAPE   H6Y17701   3.589  -0.094   9.369 -0.1049 -0.2976 -1.5903
  158SAPE   C3717702   3.462  -0.059   9.193  0.1774  0.3656  0.3919
  158SAPE   H7X17703   3.532  -0.120   9.131  1.4445  2.7668 -0.6310
  158SAPE   H7Y17704   3.493   0.043   9.163  0.2529  0.1399 -0.3065
  158SAPE   C3817705   3.326  -0.094   9.130  0.2440  0.1723  0.3544
  158SAPE   H8X17706   3.251  -0.020   9.168  0.1838  0.4680 -0.3320
  158SAPE   H8Y17707   3.301  -0.196   9.165  1.1392 -0.3498 -0.5321
  158SAPE   C3917708   3.313  -0.094   8.977  0.0820 -0.2176  0.1674
  158SAPE   H9X17709   3.389  -0.033   8.924  2.6005 -2.0981  1.4836
  158SAPE   H9Y17710   3.224  -0.036   8.944  0.8398  1.3955  0.8903
  158SAPE  C31017711   3.306  -0.223   8.899  0.1265 -0.6618 -0.5786
  158SAPE  H10X17712   3.238  -0.293   8.952 -0.4814  1.2620  1.2672
  158SAPE  H10Y17713   3.403  -0.276   8.912 -0.3676 -0.8900  2.6022
  158SAPE  C31117714   3.276  -0.198   8.751  1.1622  0.2546 -0.2622
  158SAPE  H11X17715   3.352  -0.119   8.732  3.3764 -0.7346  3.8278
  158SAPE  H11Y17716   3.173  -0.159   8.751  0.6206 -1.1106  1.1607
  158SAPE  C31217717   3.282  -0.321   8.659  0.1858 -0.9317  0.0711
  158SAPE  H12X17718   3.200  -0.395   8.658  0.4348 -1.2050 -0.5448
  158SAPE  H12Y17719   3.381  -0.370   8.674  0.2142 -1.5386 -2.0401
  158SAPE  C31317720   3.298  -0.263   8.516 -0.0987 -0.6877  0.1950
  158SAPE  H13X17721   3.368  -0.178   8.533 -2.3730  1.5038 -1.1175
  158SAPE  H13Y17722   3.201  -0.219   8.486  0.2165 -1.7875 -2.5455
  158SAPE  C31417723   3.342  -0.359   8.405  0.1780  0.1811 -1.0338
  158SAPE  H14X17724   3.280  -0.451   8.401  0.0440  0.0626  2.0422
  158SAPE  H14Y17725   3.441  -0.389   8.447 -0.2522  0.7467  0.4411
  158SAPE  C31517726   3.374  -0.292   8.263 -0.2865 -0.4153  1.4231
  158SAPE  H15X17727   3.302  -0.210   8.243  0.7369  0.2904  0.5952
  158SAPE  H15Y17728   3.345  -0.369   8.188 -1.0585 -0.0237  1.3134
  158SAPE  C31617729   3.524  -0.265   8.244 -0.3319  0.1973  0.1676
  158SAPE  H16X17730   3.573  -0.359   8.278 -1.1053  0.6764  2.7496
  158SAPE  H16Y17731   3.557  -0.182   8.309  3.0779 -0.6053 -0.4623
  158SAPE  C31717732   3.571  -0.225   8.097  0.1615 -0.3663  0.0454
  158SAPE  H17X17733   3.672  -0.179   8.093  0.2915 -0.6031  0.5602
  158SAPE  H17Y17734   3.503  -0.145   8.061  1.5942  0.8579  0.0252
  158SAPE  C31817735   3.562  -0.341   7.993 -0.0733 -0.1959 -0.4000
  158SAPE  H18X17736   3.621  -0.431   8.021 -0.2953 -0.2039  0.0577
  158SAPE  H18Y17737   3.601  -0.311   7.894  0.8516 -2.6045 -0.8139
  158SAPE  H18Z17738   3.457  -0.376   7.980  0.3100 -2.0448  1.1948
  159SAPE     N17739   1.291   5.595   6.585  0.4134  0.0747 -0.2577
  159SAPE   HN117740   1.228   5.625   6.508  0.8685  1.3321 -0.1517
  159SAPE   HN217741   1.296   5.667   6.659 -1.7981 -1.1231  1.1222
  159SAPE   HN317742   1.384   5.583   6.540 -0.7910  2.5401 -3.6158
  159SAPE   C1217743   1.229   5.466   6.620  0.1643  0.9899 -0.4475
  159SAPE  H12A17744   1.141   5.479   6.687 -0.4588  1.4310 -1.3384
  159SAPE  H12B17745   1.306   5.403   6.670 -0.3695  1.3831  0.8884
  159SAPE   C1117746   1.181   5.375   6.501 -0.4822  0.0437  0.0196
  159SAPE  H11A17747   1.114   5.432   6.434 -0.8102 -0.9165 -0.4748
  159SAPE  H11B17748   1.131   5.282   6.534  1.7798 -2.3525 -2.9596
  159SAPE     P17749   1.352   5.204   6.415  0.4917 -0.3071 -0.2543
  159SAPE   O1317750   1.252   5.128   6.335  0.5506  0.5689  0.4922
  159SAPE   O1417751   1.484   5.204   6.355 -0.2613  0.4252  0.1673
  159SAPE   O1217752   1.303   5.353   6.435  0.2856  0.2512 -0.3403
  159SAPE   O1117753   1.357   5.143   6.564  0.2535  0.3849  0.0550
  159SAPE    C117754   1.438   5.023   6.583  0.1128 -0.3063 -0.3307
  159SAPE    HA17755   1.398   4.933   6.531 -1.6500  1.0692 -1.4302
  159SAPE    HB17756   1.540   5.032   6.540  0.4420 -1.6454  0.1611
  159SAPE    C217757   1.467   4.988   6.736  0.2765  0.3025  0.0643
  159SAPE    HS17758   1.517   4.889   6.744 -0.9982 -0.2052  1.9294
  159SAPE   O2117759   1.345   4.999   6.814  0.3716 -0.1153  1.2403
  159SAPE   C2117760   1.249   4.918   6.784  0.1848 -0.0236 -0.3066
  159SAPE   O2217761   1.252   4.824   6.704 -0.2866 -0.5253 -0.0618
  159SAPE   C2217762   1.136   4.928   6.891 -0.5244  0.2020  0.4552
  159SAPE   H2R17763   1.072   5.015   6.866  1.5963  1.5490 -0.3574
  159SAPE   H2S17764   1.073   4.837   6.902  2.1184 -1.4604  2.3858
  159SAPE    C317765   1.567   5.101   6.786 -0.8163  0.1429  0.2123
  159SAPE    HX17766   1.513   5.198   6.789  0.2282  0.7630 -0.7164
  159SAPE    HY17767   1.654   5.111   6.718 -3.7591 -1.3901 -3.9245
  159SAPE   O3117768   1.607   5.076   6.923  0.6675 -0.1062  0.4358
  159SAPE   C3117769   1.700   4.986   6.926  0.3511  0.0334  0.3015
  159SAPE   O3217770   1.748   4.918   6.840 -0.2026  0.0158  0.0917
  159SAPE   C3217771   1.715   4.954   7.076  0.1517  0.4816 -0.3519
  159SAPE   H2X17772   1.611   4.939   7.114 -0.1051  2.6977 -0.1430
  159SAPE   H2Y17773   1.751   5.043   7.132 -2.3776  0.9357  0.6243
  159SAPE   C2317774   1.183   4.941   7.041  0.1166  0.1750  0.5611
  159SAPE   H3R17775   1.092   4.970   7.098  0.1543  3.0990 -0.7782
  159SAPE   H3S17776   1.255   5.025   7.051 -0.6818  0.8675  0.6074
  159SAPE   C2417777   1.245   4.812   7.109  0.0307 -0.0039  0.2116
  159SAPE   H4R17778   1.313   4.753   7.044  0.1335 -0.0559  0.3648
  159SAPE   H4S17779   1.160   4.744   7.129  1.1717 -1.8660 -1.0895
  159SAPE   C2517780   1.305   4.876   7.241 -0.1140 -0.2169 -0.1303
  159SAPE   H5R17781   1.376   4.955   7.213 -1.7829  0.9952 -1.0255
  159SAPE   C2617782   1.303   4.819   7.363  0.1359 -0.0820 -0.7670
  159SAPE   H6R17783   1.360   4.863   7.446 -0.1434 -2.0065  0.4522
  159SAPE   C2717784   1.240   4.695   7.398  0.3782 -1.5998 -0.1189
  159SAPE   H7R17785   1.183   4.646   7.316  0.1092 -0.8837 -0.3582
  159SAPE   H7S17786   1.165   4.725   7.474  2.1072 -0.3463  1.1295
  159SAPE   C2817787   1.343   4.603   7.463  1.5854 -0.4755 -0.1181
  159SAPE   H8R17788   1.411   4.549   7.395  1.7347  0.0408 -0.3800
  159SAPE   C2917789   1.366   4.582   7.597  0.1790 -0.0310 -0.4333
  159SAPE   H9R17790   1.445   4.514   7.632 -1.5498  0.2482  4.3526
  159SAPE  C21017791   1.290   4.642   7.707  0.5186 -0.3935 -0.3594
  159SAPE  H10R17792   1.197   4.582   7.721  0.5475 -0.3656 -0.0496
  159SAPE  H10S17793   1.261   4.744   7.672 -3.0428 -0.5863  1.7954
  159SAPE  C21117794   1.373   4.659   7.833 -0.4352  0.5911 -0.2036
  159SAPE  H11R17795   1.463   4.721   7.824 -1.5981  2.2251 -0.9475
  159SAPE  C21217796   1.347   4.600   7.946 -0.6488  0.4139 -0.0300
  159SAPE  H12R17797   1.411   4.616   8.035 -0.7593 -2.1512  0.5497
  159SAPE  C21317798   1.231   4.508   7.983 -0.2187  0.4353  0.6724
  159SAPE  H13R17799   1.129   4.545   7.958  0.1675  1.2135  0.2109
  159SAPE  H13S17800   1.230   4.487   8.092 -1.1859 -0.0200  0.5783
  159SAPE  C21417801   1.252   4.375   7.919 -0.8490  0.5177 -0.4273
  159SAPE  H14R17802   1.185   4.359   7.834 -1.9427  0.6149  0.4026
  159SAPE  C21517803   1.327   4.281   7.978 -0.0849  0.7620  0.2151
  159SAPE  H15R17804   1.327   4.181   7.934 -1.0480  1.8616 -2.3782
  159SAPE  C21617805   1.413   4.282   8.101 -0.4513 -0.3168 -0.0008
  159SAPE  H16R17806   1.421   4.385   8.140 -0.8767 -0.4947  0.5642
  159SAPE  H16S17807   1.513   4.248   8.067 -0.9402 -2.4030  0.5932
  159SAPE  C21717808   1.371   4.202   8.224 -0.1759  0.6855  0.2504
  159SAPE  H17R17809   1.388   4.093   8.210  1.1253  1.0543 -1.1586
  159SAPE  H17S17810   1.260   4.211   8.236 -0.5486  0.0394 -2.4155
  159SAPE  C21817811   1.439   4.246   8.352 -0.3476 -0.0293  0.3576
  159SAPE  H18R17812   1.415   4.354   8.353 -1.1719 -0.1619 -2.0695
  159SAPE  H18S17813   1.549   4.231   8.354 -0.5602 -1.7733  0.0738
  159SAPE  C21917814   1.383   4.181   8.479 -0.1936  0.1667 -1.0095
  159SAPE  H19R17815   1.409   4.073   8.470  1.7474  0.4967  0.1911
  159SAPE  H19S17816   1.273   4.191   8.467  0.0530  1.0651 -2.6660
  159SAPE  C22017817   1.434   4.237   8.612 -0.1135 -0.3629 -0.2202
  159SAPE  H20R17818   1.367   4.214   8.697  1.2893 -1.1918  0.6923
  159SAPE  H20S17819   1.431   4.348   8.601 -1.1616 -0.4179 -0.5308
  159SAPE  H20T17820   1.534   4.193   8.631 -0.3999 -1.6082 -1.5917
  159SAPE   C3317821   1.804   4.835   7.119  0.2877  0.5682  0.2299
  159SAPE   H3X17822   1.909   4.863   7.139  0.8746 -1.3104 -0.1665
  159SAPE   H3Y17823   1.805   4.762   7.035  2.9255  1.7869 -0.8374
  159SAPE   C3417824   1.751   4.758   7.238  0.4552  0.5293  0.3980
  159SAPE   H4X17825   1.804   4.661   7.250  2.7907  1.9039  1.3176
  159SAPE   H4Y17826   1.641   4.752   7.227  0.5167 -1.5336  0.6703
  159SAPE   C3517827   1.789   4.835   7.361  0.3355  0.2012  0.0423
  159SAPE   H5X17828   1.733   4.930   7.347  0.0432 -0.0021 -0.1918
  159SAPE   H5Y17829   1.898   4.854   7.355  0.6156 -1.1030  0.7969
  159SAPE   C3617830   1.732   4.767   7.490 -0.6839 -0.4867  0.1008
  159SAPE   H6X17831   1.761   4.660   7.490  3.6749  0.5288  3.5290
  159SAPE   H6Y17832   1.622   4.752   7.483 -0.7050 -1.6665  2.3571
  159SAPE   C3717833   1.770   4.835   7.617 -0.0813 -0.7053  0.2525
  159SAPE   H7X17834   1.713   4.927   7.644 -1.2919 -1.3471 -0.0550
  159SAPE   H7Y17835   1.877   4.864   7.620 -0.1246 -0.4880 -0.2611
  159SAPE   C3817836   1.750   4.749   7.743  0.0581  0.2783  0.0497
  159SAPE   H8X17837   1.832   4.674   7.734 -0.3524 -0.1273 -0.3437
  159SAPE   H8Y17838   1.652   4.697   7.742  0.1985 -0.0916  2.4916
  159SAPE   C3917839   1.764   4.821   7.872 -0.5769  0.0772 -0.5068
  159SAPE   H9X17840   1.686   4.900   7.880  0.8080  1.6240 -1.9474
  159SAPE   H9Y17841   1.860   4.876   7.886  0.2557 -1.8334  1.6015
  159SAPE  C31017842   1.756   4.724   7.995  0.3230 -0.8740 -0.1915
  159SAPE  H10X17843   1.854   4.672   8.003  0.9729  0.1991 -0.9680
  159SAPE  H10Y17844   1.676   4.652   7.969  0.8113 -0.9247 -1.6160
  159SAPE  C31117845   1.754   4.801   8.126  0.5418 -0.1334  0.5829
  159SAPE  H11X17846   1.673   4.877   8.127  0.8592  0.2031  1.2853
  159SAPE  H11Y17847   1.848   4.859   8.135  0.4254 -0.2791  3.0937
  159SAPE  C31217848   1.746   4.719   8.251 -0.0100  0.3669  0.8175
  159SAPE  H12X17849   1.761   4.775   8.346 -2.0382  1.9481  0.2541
  159SAPE  H12Y17850   1.830   4.646   8.251  0.7993  1.2805 -0.0834
  159SAPE  C31317851   1.613   4.636   8.266  0.4486  0.1603  0.3573
  159SAPE  H13X17852   1.630   4.582   8.361 -0.1103 -1.6808 -0.5549
  159SAPE  H13Y17853   1.602   4.555   8.190  1.5990  0.2978  0.0384
  159SAPE  C31417854   1.492   4.732   8.275  0.2991  0.4460 -0.3472
  159SAPE  H14X17855   1.476   4.773   8.173  0.3642 -2.1660 -1.4457
  159SAPE  H14Y17856   1.507   4.817   8.345  1.3056 -1.8413  2.2869
  159SAPE  C31517857   1.363   4.668   8.322 -1.2477 -0.2310 -0.3613
  159SAPE  H15X17858   1.341   4.582   8.256  1.6404  0.3060 -2.1397
  159SAPE  H15Y17859   1.280   4.740   8.306  2.0766  3.3145 -2.9155
  159SAPE  C31617860   1.374   4.613   8.468  1.1680 -0.5470  0.1110
  159SAPE  H16X17861   1.482   4.610   8.492  0.9612  2.1918  1.6484
  159SAPE  H16Y17862   1.325   4.514   8.473  1.8860 -0.9513 -0.8892
  159SAPE  C31717863   1.306   4.713   8.571  0.1768 -0.7693  0.1124
  159SAPE  H17X17864   1.198   4.705   8.544 -0.0015  0.7205  0.3556
  159SAPE  H17Y17865   1.346   4.815   8.558  0.1062 -0.4326  2.4699
  159SAPE  C31817866   1.330   4.671   8.717  0.4335 -0.9553 -0.9279
  159SAPE  H18X17867   1.279   4.745   8.782 -0.9687 -1.9188 -0.9201
  159SAPE  H18Y17868   1.437   4.651   8.739 -0.0919 -2.5098  0.3066
  159SAPE  H18Z17869   1.277   4.577   8.744  0.7041 -0.3277  1.9609
  160SAPE     N17870   0.177   5.133   6.710 -0.0762  0.3780  0.3115
  160SAPE   HN117871   0.148   5.034   6.695  0.8736  0.3165 -1.2694
  160SAPE   HN217872   0.244   5.157   6.634 -0.3892  2.3140  0.6035
  160SAPE   HN317873   0.233   5.135   6.797  0.2114 -1.0471  0.1601
  160SAPE   C1217874   0.063   5.237   6.720  0.1048  0.2930  0.1499
  160SAPE  H12A17875   0.012   5.226   6.818  0.4428  1.2055  0.4291
  160SAPE  H12B17876  -0.010   5.223   6.638 -0.8533  2.0892  0.6719
  160SAPE   C1117877   0.115   5.381   6.713  0.5822 -0.5395  0.1578
  160SAPE  H11A17878   0.157   5.404   6.813  0.9043  0.3287 -0.1737
  160SAPE  H11B17879   0.027   5.449   6.714  0.4364 -0.6997 -0.8891
  160SAPE     P17880   0.175   5.491   6.482 -0.1787  0.3126 -0.2641
  160SAPE   O1317881   0.300   5.520   6.406 -0.2120 -0.1913 -0.4697
  160SAPE   O1417882   0.073   5.416   6.405  0.6096  0.2360  0.0242
  160SAPE   O1217883   0.210   5.405   6.608  0.5909 -0.1256 -0.7862
  160SAPE   O1117884   0.103   5.617   6.539 -0.8116  0.7932 -0.1860
  160SAPE    C117885   0.166   5.739   6.581 -0.2126 -0.7621  0.0150
  160SAPE    HA17886   0.259   5.764   6.526  0.0792 -4.2854 -1.1917
  160SAPE    HB17887   0.096   5.823   6.561 -0.1744 -0.1677  2.2351
  160SAPE    C217888   0.186   5.753   6.736 -0.0786  0.0096 -0.7591
  160SAPE    HS17889   0.266   5.679   6.755 -0.3870 -0.0735  0.3080
  160SAPE   O2117890   0.070   5.734   6.812 -0.0682  0.6196  0.2884
  160SAPE   C2117891   0.084   5.671   6.921  0.6133  0.5736  0.2335
  160SAPE   O2217892   0.187   5.612   6.958  0.7518  0.5527  0.2413
  160SAPE   C2217893  -0.047   5.673   7.001 -0.2425  0.3061  0.2418
  160SAPE   H2R17894  -0.084   5.778   7.005  0.3297  0.4442  2.0170
  160SAPE   H2S17895  -0.130   5.626   6.944 -0.5201 -0.3739  1.2128
  160SAPE    C317896   0.264   5.883   6.785 -0.1077 -0.2789  0.6157
  160SAPE    HX17897   0.190   5.967   6.782  0.4994  0.2779  1.0261
  160SAPE    HY17898   0.339   5.904   6.705  1.8297 -0.9965  2.2347
  160SAPE   O3117899   0.318   5.875   6.917 -0.2882 -0.0872 -0.6386
  160SAPE   C3117900   0.308   5.971   7.000 -0.7711  0.0611  0.1164
  160SAPE   O3217901   0.274   6.086   6.980 -0.2295  0.4014  0.1169
  160SAPE   C3217902   0.340   5.920   7.138 -0.2022  0.0998  0.0824
  160SAPE   H2X17903   0.304   5.816   7.152  1.0924 -0.4232 -0.3995
  160SAPE   H2Y17904   0.279   5.980   7.209  0.3922  0.7491  0.0474
  160SAPE   C2317905  -0.034   5.626   7.152 -0.2396 -0.1137  0.3440
  160SAPE   H3R17906   0.040   5.689   7.207  0.1317 -0.2998  0.0546
  160SAPE   H3S17907   0.015   5.527   7.150 -1.1434 -0.5444 -1.6385
  160SAPE   C2417908  -0.167   5.618   7.232  0.5394 -0.4366  0.3549
  160SAPE   H4R17909  -0.219   5.714   7.210  1.0510 -0.5584 -1.4693
  160SAPE   H4S17910  -0.155   5.618   7.342 -0.3334 -2.3774  0.4649
  160SAPE   C2517911  -0.258   5.507   7.177 -0.1752 -0.4742  0.0021
  160SAPE   H5R17912  -0.290   5.521   7.072  1.9994 -1.6562 -0.8538
  160SAPE   C2617913  -0.315   5.403   7.236 -0.2504 -0.7514 -0.0909
  160SAPE   H6R17914  -0.395   5.343   7.190 -2.4662  2.0228  0.0024
  160SAPE   C2717915  -0.300   5.363   7.380 -0.0902  0.1734 -0.3444
  160SAPE   H7R17916  -0.205   5.395   7.429  0.0299  0.1199 -0.5374
  160SAPE   H7S17917  -0.306   5.252   7.378 -2.2540  0.2699  0.2220
  160SAPE   C2817918  -0.424   5.409   7.458 -0.0549 -0.0670  0.6810
  160SAPE   H8R17919  -0.519   5.383   7.408  0.0341 -1.7180  1.3277
  160SAPE   C2917920  -0.419   5.480   7.578  0.0960 -0.9854  0.5919
  160SAPE   H9R17921  -0.508   5.495   7.641  0.9779  0.9405  1.4086
  160SAPE  C21017922  -0.298   5.515   7.659 -0.2850 -0.1753 -0.4620
  160SAPE  H10R17923  -0.204   5.491   7.604 -2.1310 -0.0894 -3.7525
  160SAPE  H10S17924  -0.300   5.469   7.761 -0.2938  1.3814  0.2447
  160SAPE  C21117925  -0.298   5.667   7.663  0.6006 -0.4545  1.0303
  160SAPE  H11R17926  -0.315   5.726   7.572 -0.6718  0.1359  1.6500
  160SAPE  C21217927  -0.282   5.739   7.775  0.6989  0.4327 -0.2258
  160SAPE  H12R17928  -0.270   5.848   7.768  0.4797  0.4487 -0.3774
  160SAPE  C21317929  -0.270   5.688   7.923 -0.2784 -0.0125 -0.1745
  160SAPE  H13R17930  -0.356   5.631   7.963 -1.4254  0.4845 -1.8547
  160SAPE  H13S17931  -0.266   5.771   7.996 -1.9988 -1.5134  1.6593
  160SAPE  C21417932  -0.141   5.607   7.938  0.0905  0.2428  0.1677
  160SAPE  H14R17933  -0.087   5.569   7.850 -0.6217  0.1373 -0.2300
  160SAPE  C21517934  -0.093   5.559   8.055 -0.4250  0.0214  0.4340
  160SAPE  H15R17935   0.010   5.519   8.052 -1.1171 -1.7914  0.2102
  160SAPE  C21617936  -0.148   5.593   8.188 -0.4152 -0.2558 -0.3238
  160SAPE  H16R17937  -0.236   5.662   8.183 -0.1178  0.0776 -0.9469
  160SAPE  H16S17938  -0.073   5.654   8.242 -2.5013  0.4767  1.8753
  160SAPE  C21717939  -0.170   5.482   8.283 -0.0435  0.2054 -0.9491
  160SAPE  H17R17940  -0.210   5.529   8.375 -1.8880 -2.5976 -0.2585
  160SAPE  H17S17941  -0.081   5.420   8.305  0.1206 -0.3451 -3.0875
  160SAPE  C21817942  -0.287   5.385   8.242  0.3708  0.1424 -0.2078
  160SAPE  H18R17943  -0.253   5.324   8.156 -2.4923  0.7578 -1.8486
  160SAPE  H18S17944  -0.366   5.460   8.217  0.6623  0.2102 -0.9365
  160SAPE  C21917945  -0.335   5.297   8.357 -0.1111 -0.1345  0.6047
  160SAPE  H19R17946  -0.380   5.357   8.438  0.5176 -1.7565  2.2019
  160SAPE  H19S17947  -0.247   5.245   8.401  2.0538  2.7048 -0.2563
  160SAPE  C22017948  -0.439   5.180   8.328  0.0884 -0.0582 -0.1472
  160SAPE  H20R17949  -0.541   5.217   8.304  0.3601 -0.0789 -1.3862
  160SAPE  H20S17950  -0.436   5.111   8.416  0.0021  1.7058  1.2629
  160SAPE  H20T17951  -0.401   5.129   8.237  1.1065  0.0881  0.1890
  160SAPE   C3317952   0.485   5.942   7.175 -0.2109  0.6748  0.4742
  160SAPE   H3X17953   0.521   6.047   7.164  0.3617  0.7591  2.7581
  160SAPE   H3Y17954   0.560   5.887   7.114 -0.0150  0.1934  1.1391
  160SAPE   C3417955   0.521   5.890   7.308  0.2230 -0.7408 -0.1088
  160SAPE   H4X17956   0.461   5.941   7.385 -0.4934 -2.1168  0.2669
  160SAPE   H4Y17957   0.629   5.912   7.325 -0.3961  0.9208  1.8092
  160SAPE   C3517958   0.506   5.737   7.324  0.5141  0.1494 -0.1584
  160SAPE   H5X17959   0.571   5.673   7.261  1.8989  0.3300  1.0578
  160SAPE   H5Y17960   0.399   5.716   7.303 -0.1654  1.7991  1.4619
  160SAPE   C3617961   0.523   5.682   7.466 -0.5680 -0.3885 -0.1068
  160SAPE   H6X17962   0.545   5.573   7.457  1.9132  0.1328 -0.9385
  160SAPE   H6Y17963   0.434   5.708   7.527 -0.2242 -0.3428  0.3749
  160SAPE   C3717964   0.646   5.737   7.540  0.2156  0.4501  0.0369
  160SAPE   H7X17965   0.648   5.848   7.548  2.0492  0.5914 -2.0227
  160SAPE   H7Y17966   0.740   5.702   7.493 -0.1828 -1.3326  0.4993
  160SAPE   C3817967   0.651   5.676   7.686 -0.1799 -0.4662 -0.0731
  160SAPE   H8X17968   0.639   5.567   7.670 -2.1748 -0.4625  1.1574
  160SAPE   H8Y17969   0.566   5.718   7.745  0.6369  1.7248 -0.4064
  160SAPE   C3917970   0.779   5.714   7.762  0.0671 -0.0272 -0.8756
  160SAPE   H9X17971   0.868   5.720   7.696 -0.7139  2.4820 -1.7825
  160SAPE   H9Y17972   0.800   5.629   7.830  1.8010  0.4905 -0.7252
  160SAPE  C31017973   0.766   5.850   7.830 -0.5055  0.5353 -0.7951
  160SAPE  H10X17974   0.658   5.863   7.853 -0.4140 -2.4997  1.6964
  160SAPE  H10Y17975   0.781   5.931   7.755  3.2248 -0.8937 -1.7014
  160SAPE  C31117976   0.856   5.879   7.953  0.9458 -0.7437 -0.7357
  160SAPE  H11X17977   0.834   5.983   7.986  0.7159 -1.3998  1.2433
  160SAPE  H11Y17978   0.959   5.851   7.921  1.1854  0.7324 -1.3334
  160SAPE  C31217979   0.824   5.783   8.073  0.3960 -0.0050 -0.4323
  160SAPE  H12X17980   0.890   5.789   8.162 -0.5445 -0.8874  0.3462
  160SAPE  H12Y17981   0.842   5.679   8.038  0.2025 -0.5454  1.0486
  160SAPE  C31317982   0.677   5.789   8.128  0.4805  0.6799  0.0687
  160SAPE  H13X17983   0.618   5.742   8.046  0.7794  0.2702  0.0854
  160SAPE  H13Y17984   0.649   5.895   8.144 -3.3639 -0.2980  0.3207
  160SAPE  C31417985   0.662   5.699   8.255 -0.3780 -0.4454  0.5422
  160SAPE  H14X17986   0.689   5.594   8.230  4.2902  0.7620  0.1491
  160SAPE  H14Y17987   0.551   5.704   8.265 -0.4647 -1.1872  0.0029
  160SAPE  C31517988   0.731   5.746   8.386  0.4479  0.3572  0.1510
  160SAPE  H15X17989   0.839   5.718   8.394  0.1420 -1.4662 -1.6408
  160SAPE  H15Y17990   0.680   5.705   8.475  0.1291  0.1704 -0.1185
  160SAPE  C31617991   0.720   5.897   8.398  0.3171 -0.0558 -0.7156
  160SAPE  H16X17992   0.614   5.927   8.382  0.5231  0.6075 -0.8183
  160SAPE  H16Y17993   0.781   5.951   8.323  3.0214 -1.2411  0.5771
  160SAPE  C31717994   0.777   5.951   8.532 -0.2598 -0.1657  0.3975
  160SAPE  H17X17995   0.878   5.905   8.536  0.6354  1.8241  0.8311
  160SAPE  H17Y17996   0.718   5.897   8.610  2.4357 -0.5120  2.2433
  160SAPE  C31817997   0.777   6.101   8.556 -0.1464 -0.6812  0.2505
  160SAPE  H18X17998   0.832   6.140   8.467 -1.4713 -0.3560 -0.4369
  160SAPE  H18Y17999   0.826   6.118   8.654 -2.6305  2.4304  1.0488
  160SAPE  H18Z18000   0.678   6.150   8.551  1.1702  1.8575 -2.5973
  161SAPE     N18001   2.249   4.451   6.248  0.6517 -0.2671 -0.0441
  161SAPE   HN118002   2.225   4.457   6.147  1.1905  3.0914 -0.0285
  161SAPE   HN218003   2.240   4.541   6.298  0.7078  0.1942 -0.8644
  161SAPE   HN318004   2.351   4.430   6.259  0.4608 -0.2460  2.1024
  161SAPE   C1218005   2.170   4.339   6.312 -0.1515  0.5387  0.5381
  161SAPE  H12A18006   2.112   4.283   6.236 -0.6354  0.8664  0.6636
  161SAPE  H12B18007   2.100   4.382   6.387  1.5482  1.2153  1.7547
  161SAPE   C1118008   2.268   4.243   6.379  0.1463  0.0155  0.3790
  161SAPE  H11A18009   2.215   4.158   6.427 -2.1775  1.6962  0.8884
  161SAPE  H11B18010   2.316   4.289   6.468 -0.6591 -0.8693  1.2785
  161SAPE     P18011   2.487   4.110   6.338  0.1374  0.0940 -0.1467
  161SAPE   O1318012   2.448   4.027   6.450  0.1356  0.0466 -0.3626
  161SAPE   O1418013   2.545   4.037   6.222  0.1974  0.2042 -0.3593
  161SAPE   O1218014   2.367   4.192   6.284 -0.1953  0.4133 -0.0732
  161SAPE   O1118015   2.578   4.226   6.378  0.2519 -0.2883 -0.5006
  161SAPE    C118016   2.702   4.204   6.448 -0.4366 -0.3233  0.1915
  161SAPE    HA18017   2.777   4.157   6.380  0.2498 -0.9023  1.3412
  161SAPE    HB18018   2.729   4.310   6.467 -0.1227  0.0866 -2.2691
  161SAPE    C218019   2.697   4.128   6.588  0.2049  1.0255  0.1632
  161SAPE    HS18020   2.662   4.023   6.579  3.3897  0.0612 -1.8522
  161SAPE   O2118021   2.613   4.201   6.682  0.3988  0.4467  0.1140
  161SAPE   C2118022   2.563   4.133   6.781  0.6929 -0.3224 -0.7760
  161SAPE   O2218023   2.572   4.007   6.794  0.3224  0.5299  0.4586
  161SAPE   C2218024   2.493   4.234   6.878 -0.3648  0.1107  0.3527
  161SAPE   H2R18025   2.517   4.339   6.852 -0.8992 -0.6786 -3.6380
  161SAPE   H2S18026   2.385   4.219   6.860 -0.1598 -1.5294  0.4177
  161SAPE    C318027   2.839   4.101   6.650  1.1503  0.8469 -0.3621
  161SAPE    HX18028   2.879   4.204   6.640  0.2091  1.2126 -0.4314
  161SAPE    HY18029   2.900   4.031   6.589 -0.7909  1.0316 -2.6173
  161SAPE   O3118030   2.846   4.065   6.795  0.3052 -0.1271  0.4791
  161SAPE   C3118031   2.858   3.935   6.811  0.0539 -0.4084 -0.3279
  161SAPE   O3218032   2.888   3.852   6.725  0.3029  0.1159 -0.0293
  161SAPE   C3218033   2.817   3.898   6.956  0.7532 -0.2231 -0.0077
  161SAPE   H2X18034   2.736   3.967   6.988  1.4412 -0.8343  3.2289
  161SAPE   H2Y18035   2.901   3.914   7.027  0.9057  1.8377 -0.6086
  161SAPE   C2318036   2.538   4.216   7.027  0.3989  0.0580  0.2875
  161SAPE   H3R18037   2.647   4.232   7.037  1.0541 -3.2198 -1.0446
  161SAPE   H3S18038   2.527   4.117   7.076 -1.7483  0.3610  0.4854
  161SAPE   C2418039   2.478   4.321   7.110  0.0104 -0.2608 -0.2558
  161SAPE   H4R18040   2.475   4.419   7.058  3.5561  0.3232  0.4739
  161SAPE   H4S18041   2.541   4.344   7.199 -1.6549  0.3173  0.8103
  161SAPE   C2518042   2.341   4.268   7.158 -0.3168 -0.1385  0.0230
  161SAPE   H5R18043   2.256   4.294   7.093  0.8348 -2.5582 -2.5758
  161SAPE   C2618044   2.325   4.193   7.270  0.3715 -0.5219 -0.1241
  161SAPE   H6R18045   2.223   4.158   7.290 -0.0782 -0.2944 -1.9373
  161SAPE   C2718046   2.444   4.164   7.364 -0.4677 -0.1744 -1.1083
  161SAPE   H7R18047   2.536   4.140   7.308  1.2434 -0.4944  1.7823
  161SAPE   H7S18048   2.415   4.071   7.417 -2.8099  0.5642 -1.0119
  161SAPE   C2818049   2.467   4.284   7.458  0.0824 -0.3014  1.1958
  161SAPE   H8R18050   2.511   4.369   7.404 -3.6131  1.3495  0.6094
  161SAPE   C2918051   2.415   4.306   7.579  0.0653  0.4171 -0.6187
  161SAPE   H9R18052   2.450   4.393   7.637  0.7682 -0.2823  0.0244
  161SAPE  C21018053   2.330   4.213   7.657  0.3800  0.5803 -0.0173
  161SAPE  H10R18054   2.402   4.148   7.711  0.0667 -0.4542 -0.8286
  161SAPE  H10S18055   2.260   4.156   7.593  1.2956 -1.7676  1.0363
  161SAPE  C21118056   2.249   4.293   7.762  0.2823 -0.1690 -0.3593
  161SAPE  H11R18057   2.169   4.357   7.724  0.0814  0.7332  1.4945
  161SAPE  C21218058   2.273   4.295   7.898 -0.2594  0.2497  0.7226
  161SAPE  H12R18059   2.220   4.371   7.957 -0.1244 -0.0400  1.2169
  161SAPE  C21318060   2.386   4.229   7.967 -0.3429  0.1232 -0.4809
  161SAPE  H13R18061   2.405   4.136   7.910  0.9326 -0.2648  0.5427
  161SAPE  H13S18062   2.345   4.191   8.063 -1.5452  0.6483 -0.7702
  161SAPE  C21418063   2.513   4.305   7.995  0.4021  0.3006 -0.3872
  161SAPE  H14R18064   2.584   4.313   7.911 -2.9258 -1.3105 -3.4795
  161SAPE  C21518065   2.544   4.379   8.104 -0.5650 -0.4559 -0.7459
  161SAPE  H15R18066   2.637   4.438   8.110 -1.8486  1.5486 -0.1676
  161SAPE  C21618067   2.453   4.389   8.228 -0.2886  0.2828 -0.1146
  161SAPE  H16R18068   2.436   4.284   8.259  2.0559 -0.1771 -0.2988
  161SAPE  H16S18069   2.354   4.426   8.195 -0.1622 -1.0591 -2.0341
  161SAPE  C21718070   2.514   4.455   8.350  0.4058  0.4281  0.2073
  161SAPE  H17R18071   2.521   4.565   8.338 -0.6638  0.3297 -1.3919
  161SAPE  H17S18072   2.613   4.405   8.360 -0.4747 -1.1884  1.2229
  161SAPE  C21818073   2.431   4.438   8.487 -0.1737  0.3153  0.4382
  161SAPE  H18R18074   2.398   4.334   8.503 -1.9628  0.8131  0.1062
  161SAPE  H18S18075   2.339   4.500   8.474  0.9060  1.4715 -1.8747
  161SAPE  C21918076   2.517   4.487   8.608 -0.1364  0.1537 -0.3493
  161SAPE  H19R18077   2.538   4.595   8.596  4.1696 -0.4600  0.6278
  161SAPE  H19S18078   2.613   4.432   8.601 -0.0804  0.5482 -3.1399
  161SAPE  C22018079   2.456   4.462   8.744 -0.1102  0.3417  0.3870
  161SAPE  H20R18080   2.446   4.358   8.783 -3.1700  0.2095 -0.6471
  161SAPE  H20S18081   2.352   4.499   8.740 -0.4656 -0.7253 -0.3460
  161SAPE  H20T18082   2.510   4.514   8.827  0.4089 -1.6626  1.3474
  161SAPE   C3318083   2.763   3.753   6.964  0.2464  0.2558  0.2419
  161SAPE   H3X18084   2.851   3.691   6.992 -0.8500 -1.0896  0.7824
  161SAPE   H3Y18085   2.737   3.716   6.863 -0.3996  2.3079 -0.3566
  161SAPE   C3418086   2.655   3.716   7.059  0.5607 -0.3232 -0.5795
  161SAPE   H4X18087   2.631   3.610   7.036  0.8693 -0.0086 -2.5158
  161SAPE   H4Y18088   2.564   3.772   7.027  0.3808 -0.3746 -0.1560
  161SAPE   C3518089   2.692   3.743   7.204 -0.1745 -0.1801 -0.1231
  161SAPE   H5X18090   2.730   3.847   7.212  1.1909 -0.3799 -3.1970
  161SAPE   H5Y18091   2.776   3.674   7.229  0.6781  0.0220 -2.2948
  161SAPE   C3618092   2.573   3.712   7.301 -0.1335  0.2207 -0.0255
  161SAPE   H6X18093   2.534   3.609   7.283  0.4617 -0.0166  0.0382
  161SAPE   H6Y18094   2.484   3.775   7.276 -0.3301  0.0052  0.1248
  161SAPE   C3718095   2.601   3.747   7.451 -0.3282  0.4462  0.2190
  161SAPE   H7X18096   2.556   3.848   7.465 -1.3040  0.2298 -1.2782
  161SAPE   H7Y18097   2.708   3.760   7.475 -0.1506  0.7539 -0.7391
  161SAPE   C3818098   2.549   3.646   7.553 -0.7902  0.1015 -0.3500
  161SAPE   H8X18099   2.616   3.559   7.538  0.1647  0.5885  0.9464
  161SAPE   H8Y18100   2.448   3.604   7.534  0.4892 -2.4552 -1.6493
  161SAPE   C3918101   2.542   3.706   7.695  0.5410  0.3381 -0.1286
  161SAPE   H9X18102   2.480   3.798   7.691 -1.5690 -1.0969 -0.9063
  161SAPE   H9Y18103   2.646   3.739   7.716  0.9903 -1.3122  0.2945
  161SAPE  C31018104   2.485   3.609   7.800  0.0727  0.3403  0.5387
  161SAPE  H10X18105   2.522   3.507   7.780 -1.0693  0.1039 -0.4351
  161SAPE  H10Y18106   2.374   3.606   7.793  0.2587 -0.9604 -2.8767
  161SAPE  C31118107   2.516   3.655   7.940 -0.2877  0.3188 -1.2752
  161SAPE  H11X18108   2.441   3.733   7.966 -0.9255 -0.6257 -0.2498
  161SAPE  H11Y18109   2.621   3.686   7.961 -0.3521  0.5707 -1.3222
  161SAPE  C31218110   2.492   3.535   8.030 -0.1186  0.5405  0.4339
  161SAPE  H12X18111   2.532   3.442   7.984  1.1898  2.1936 -1.8552
  161SAPE  H12Y18112   2.385   3.519   8.052  0.4790 -1.0028  2.3519
  161SAPE  C31318113   2.561   3.549   8.169  0.6506  0.3086 -0.7134
  161SAPE  H13X18114   2.525   3.627   8.239 -0.6543 -0.4893 -0.4668
  161SAPE  H13Y18115   2.666   3.578   8.149  0.6738  0.0583 -0.9630
  161SAPE  C31418116   2.555   3.418   8.246 -0.0933  0.5776  0.3925
  161SAPE  H14X18117   2.593   3.331   8.189  1.0425  0.1633  1.7588
  161SAPE  H14Y18118   2.446   3.423   8.264 -0.3030  0.3443 -0.7808
  161SAPE  C31518119   2.625   3.415   8.382  0.3438  0.9228  0.4298
  161SAPE  H15X18120   2.584   3.340   8.452  0.2961  0.5853  0.0416
  161SAPE  H15Y18121   2.611   3.518   8.422  0.4928  0.9266  0.4714
  161SAPE  C31618122   2.773   3.386   8.355  0.0660  0.2890 -0.1963
  161SAPE  H16X18123   2.806   3.446   8.267  0.3585  1.8663  0.9727
  161SAPE  H16Y18124   2.791   3.279   8.328  0.7855 -0.2022  2.1095
  161SAPE  C31718125   2.866   3.420   8.472 -0.3562  0.4018 -0.0360
  161SAPE  H17X18126   2.855   3.529   8.491 -1.1413  0.2646  0.3233
  161SAPE  H17Y18127   2.969   3.390   8.444  0.5407  2.3137  1.1037
  161SAPE  C31818128   2.831   3.354   8.608  0.3917  0.3722  0.5763
  161SAPE  H18X18129   2.908   3.383   8.683  0.2745  1.4725  0.2761
  161SAPE  H18Y18130   2.830   3.244   8.597 -1.1455  0.3811  0.4899
  161SAPE  H18Z18131   2.729   3.387   8.637  0.1027  0.6398 -0.7224
  162SAPE     N18132   1.880   0.012   6.241 -0.6989 -0.1301  0.4371
  162SAPE   HN118133   1.945  -0.055   6.287 -0.2840  0.2846  0.4491
  162SAPE   HN218134   1.842  -0.019   6.149  2.2648  0.6734 -1.1175
  162SAPE   HN318135   1.938   0.097   6.228  0.7916 -1.0021  1.2430
  162SAPE   C1218136   1.776   0.040   6.344  0.2747 -0.6432 -0.1632
  162SAPE  H12A18137   1.839   0.065   6.432 -1.8308 -0.1193  1.2457
  162SAPE  H12B18138   1.727  -0.058   6.363 -3.1643  1.1269  0.3642
  162SAPE   C1118139   1.663   0.135   6.305  0.1231 -0.1436 -0.3351
  162SAPE  H11A18140   1.723   0.227   6.289 -0.2377  0.1287 -0.1261
  162SAPE  H11B18141   1.583   0.155   6.379  0.4523  2.0571 -0.5639
  162SAPE     P18142   1.565   0.172   6.068  0.4077  0.1817  0.1699
  162SAPE   O1318143   1.681   0.256   6.038 -0.2815 -0.0150 -0.5763
  162SAPE   O1418144   1.522   0.085   5.951 -0.1304 -0.9401 -0.4689
  162SAPE   O1218145   1.602   0.078   6.188 -0.4485  0.0300  0.2512
  162SAPE   O1118146   1.449   0.259   6.130 -0.2369 -0.0312  0.3981
  162SAPE    C118147   1.337   0.199   6.196 -0.6670 -0.7231  0.1453
  162SAPE    HA18148   1.259   0.158   6.128  1.0775 -2.5298 -0.8294
  162SAPE    HB18149   1.361   0.108   6.256  0.1909  0.2408  1.2795
  162SAPE    C218150   1.270   0.282   6.305 -0.1316  0.2109 -0.4339
  162SAPE    HS18151   1.230   0.380   6.271  0.4936  0.5719 -0.1413
  162SAPE   O2118152   1.359   0.315   6.410 -0.1246 -0.4796  0.5374
  162SAPE   C2118153   1.424   0.427   6.392  1.3123  0.4894  0.3602
  162SAPE   O2218154   1.431   0.498   6.295  0.5458  0.1013  0.3667
  162SAPE   C2218155   1.503   0.452   6.521 -0.5716  0.2133  0.4551
  162SAPE   H2R18156   1.443   0.508   6.596 -0.6849  0.5393  0.1256
  162SAPE   H2S18157   1.525   0.347   6.553  0.3014  0.6472  1.2874
  162SAPE    C318158   1.151   0.209   6.372 -0.5693 -0.0122  0.4069
  162SAPE    HX18159   1.192   0.111   6.406 -1.7981 -0.3440  0.9761
  162SAPE    HY18160   1.071   0.188   6.298 -0.8834  0.8218  0.5085
  162SAPE   O3118161   1.109   0.281   6.481  0.0649 -0.4443  0.0558
  162SAPE   C3118162   1.004   0.233   6.546  0.7925 -0.5627  0.5365
  162SAPE   O3218163   0.945   0.127   6.526  0.1354 -1.0749  0.2583
  162SAPE   C3218164   0.946   0.349   6.628  0.5579 -0.5628 -1.1954
  162SAPE   H2X18165   0.835   0.348   6.632  0.5943  0.8342  2.5554
  162SAPE   H2Y18166   0.974   0.446   6.582 -1.2604  1.2714  1.4113
  162SAPE   C2318167   1.632   0.532   6.493 -0.1599  0.7166 -0.7835
  162SAPE   H3R18168   1.625   0.642   6.507 -0.0508  0.6326 -0.0279
  162SAPE   H3S18169   1.668   0.519   6.389  2.4293  1.7651 -0.0550
  162SAPE   C2418170   1.747   0.489   6.589 -0.4715  0.0618  0.4212
  162SAPE   H4R18171   1.723   0.520   6.693 -0.8043 -3.0459  1.3212
  162SAPE   H4S18172   1.832   0.553   6.556  0.7216 -1.0175  1.3642
  162SAPE   C2518173   1.794   0.344   6.582  0.0163 -0.1051 -0.5359
  162SAPE   H5R18174   1.825   0.317   6.480  3.7574  2.1482 -0.1108
  162SAPE   C2618175   1.793   0.239   6.674  0.1722 -0.6677 -0.4319
  162SAPE   H6R18176   1.803   0.134   6.642  0.7464 -1.1850  1.4315
  162SAPE   C2718177   1.737   0.258   6.820 -0.0582  0.7836 -0.1154
  162SAPE   H7R18178   1.627   0.244   6.820  0.0245  0.0542  1.5762
  162SAPE   H7S18179   1.727   0.365   6.847 -1.1802  0.9972 -1.3145
  162SAPE   C2818180   1.801   0.186   6.936  0.5418  0.2337  0.2980
  162SAPE   H8R18181   1.824   0.078   6.935 -1.1828 -0.1554  1.8383
  162SAPE   C2918182   1.812   0.237   7.063 -0.5027 -0.9986  0.8528
  162SAPE   H9R18183   1.876   0.181   7.133  2.4119  1.1160 -0.0780
  162SAPE  C21018184   1.782   0.378   7.104 -0.7749  0.1410 -0.1829
  162SAPE  H10R18185   1.712   0.383   7.190  1.6259 -0.8583  1.8705
  162SAPE  H10S18186   1.727   0.438   7.028 -0.5635 -0.9063 -1.1814
  162SAPE  C21118187   1.916   0.446   7.136 -0.3297 -0.5527  0.1522
  162SAPE  H11R18188   1.962   0.463   7.037 -3.2431  2.4199 -0.8372
  162SAPE  C21218189   1.978   0.468   7.251  0.5364 -0.2910 -1.4765
  162SAPE  H12R18190   2.051   0.550   7.248 -0.4328  0.6207 -0.7474
  162SAPE  C21318191   1.920   0.425   7.381 -0.8319 -0.2514  0.0834
  162SAPE  H13R18192   1.846   0.344   7.366 -1.7513  0.7745 -1.0357
  162SAPE  H13S18193   1.869   0.517   7.418  0.4293  0.8026 -0.7322
  162SAPE  C21418194   2.019   0.394   7.488 -0.4702  0.8324  0.1271
  162SAPE  H14R18195   2.108   0.339   7.452 -1.0900 -0.3580  0.3732
  162SAPE  C21518196   2.003   0.406   7.623 -0.4099  0.5914 -0.3958
  162SAPE  H15R18197   2.083   0.371   7.691 -1.5557 -0.9881  0.1769
  162SAPE  C21618198   1.885   0.466   7.694 -0.5357 -0.2779  0.6227
  162SAPE  H16R18199   1.846   0.552   7.635 -0.6011  0.2327  1.4009
  162SAPE  H16S18200   1.921   0.519   7.784  0.6803  0.9432 -0.5461
  162SAPE  C21718201   1.763   0.375   7.716 -0.2571 -0.3366  0.2769
  162SAPE  H17R18202   1.806   0.289   7.772 -1.9241 -1.2989  0.1117
  162SAPE  H17S18203   1.720   0.333   7.622 -0.1332  1.6578 -0.7052
  162SAPE  C21818204   1.651   0.453   7.794 -0.4971  0.1072 -0.5929
  162SAPE  H18R18205   1.559   0.429   7.736  0.5733 -0.7033 -1.9988
  162SAPE  H18S18206   1.665   0.563   7.792 -2.2493  0.3567 -0.1735
  162SAPE  C21918207   1.628   0.412   7.943 -1.6618 -0.8397  0.3355
  162SAPE  H19R18208   1.722   0.444   7.994 -0.8429 -1.2092 -0.9008
  162SAPE  H19S18209   1.632   0.301   7.951  2.1229 -0.6791  2.2002
  162SAPE  C22018210   1.505   0.466   8.008 -0.6046  0.7196  0.2908
  162SAPE  H20R18211   1.505   0.575   7.988  0.6752  1.1036  2.2506
  162SAPE  H20S18212   1.498   0.452   8.118 -2.1640  1.0782  0.2583
  162SAPE  H20T18213   1.409   0.427   7.968  1.4609 -2.8736 -1.4247
  162SAPE   C3318214   1.014   0.345   6.765 -0.0196  0.2818  0.6190
  162SAPE   H3X18215   1.052   0.245   6.795 -2.3511 -1.0984 -0.8808
  162SAPE   H3Y18216   0.936   0.361   6.842  1.2316  0.1360  1.9521
  162SAPE   C3418217   1.138   0.440   6.776  0.4468  0.4481  0.5432
  162SAPE   H4X18218   1.091   0.537   6.748 -1.1801 -1.0192 -1.9803
  162SAPE   H4Y18219   1.218   0.429   6.699 -1.0383  0.7889 -1.0759
  162SAPE   C3518220   1.197   0.447   6.918  0.8718 -0.4562 -0.1792
  162SAPE   H5X18221   1.232   0.347   6.952  0.9728  0.0492  1.2331
  162SAPE   H5Y18222   1.107   0.464   6.981 -0.0995  1.2937 -1.9623
  162SAPE   C3618223   1.303   0.554   6.941 -0.0999 -0.4007 -0.0209
  162SAPE   H6X18224   1.248   0.650   6.946 -1.4618 -1.2612  2.1507
  162SAPE   H6Y18225   1.374   0.564   6.856  1.5083  0.5133  1.3974
  162SAPE   C3718226   1.381   0.533   7.071  0.2460  0.0229 -0.6544
  162SAPE   H7X18227   1.467   0.603   7.070  0.0454  0.2903  0.0266
  162SAPE   H7Y18228   1.430   0.434   7.077  0.3327  0.1336  0.5783
  162SAPE   C3818229   1.295   0.557   7.191  0.0212  0.6844 -0.0729
  162SAPE   H8X18230   1.200   0.501   7.183  0.7472 -0.3289 -1.8916
  162SAPE   H8Y18231   1.262   0.662   7.177 -1.1314  0.5044  1.1221
  162SAPE   C3918232   1.355   0.554   7.332 -0.0745  0.0351  0.5299
  162SAPE   H9X18233   1.440   0.625   7.339  0.1378 -0.2240  0.5885
  162SAPE   H9Y18234   1.390   0.451   7.353  0.2563  0.0348 -0.0349
  162SAPE  C31018235   1.252   0.608   7.436 -0.0425 -0.4253  0.3901
  162SAPE  H10X18236   1.160   0.548   7.423  0.1863 -0.5908 -0.5041
  162SAPE  H10Y18237   1.238   0.714   7.406 -0.0201 -0.8105 -0.9749
  162SAPE  C31118238   1.295   0.615   7.586 -0.9480  0.3270 -0.3678
  162SAPE  H11X18239   1.395   0.663   7.581 -1.5040  1.4578 -0.7610
  162SAPE  H11Y18240   1.312   0.511   7.620  0.6114  0.2056 -1.4854
  162SAPE  C31218241   1.205   0.704   7.673 -0.2055 -0.3070  0.3877
  162SAPE  H12X18242   1.102   0.663   7.667 -0.8051  1.2649 -0.4555
  162SAPE  H12Y18243   1.201   0.803   7.622 -0.1236 -1.2006 -1.3698
  162SAPE  C31318244   1.242   0.727   7.821  0.4366 -0.2174  0.3997
  162SAPE  H13X18245   1.317   0.809   7.816  1.2649 -1.0852 -2.4903
  162SAPE  H13Y18246   1.287   0.634   7.861 -0.1094 -0.4372  0.5117
  162SAPE  C31418247   1.122   0.759   7.913  0.2237 -0.9887 -0.5981
  162SAPE  H14X18248   1.063   0.669   7.939 -0.8886 -0.4460 -1.2131
  162SAPE  H14Y18249   1.054   0.823   7.853 -0.5474  0.2149  1.5392
  162SAPE  C31518250   1.152   0.835   8.045 -0.8052  0.2135 -0.7099
  162SAPE  H15X18251   1.057   0.865   8.095 -1.8732 -0.9388 -1.9864
  162SAPE  H15Y18252   1.226   0.916   8.028  1.6585 -1.5735  1.1874
  162SAPE  C31618253   1.231   0.740   8.130 -0.3452  0.2852  0.1237
  162SAPE  H16X18254   1.322   0.716   8.071  0.6465  0.0662  1.7222
  162SAPE  H16Y18255   1.175   0.645   8.143  3.6402 -2.1000  0.6252
  162SAPE  C31718256   1.271   0.803   8.266 -0.8513  0.2186 -0.2603
  162SAPE  H17X18257   1.182   0.806   8.333 -1.3719  0.0895 -0.9354
  162SAPE  H17Y18258   1.293   0.908   8.237 -0.0522  0.3079  0.6737
  162SAPE  C31818259   1.391   0.731   8.331  0.1631 -0.2299 -0.1731
  162SAPE  H18X18260   1.483   0.733   8.269  0.5908  1.1833  0.4829
  162SAPE  H18Y18261   1.361   0.625   8.342 -0.1370 -0.2044 -0.7235
  162SAPE  H18Z18262   1.420   0.779   8.427 -1.6488 -0.4668  0.5097
  163SAPE     N18263   0.250   4.910   6.202  0.2095 -0.2462  0.2850
  163SAPE   HN118264   0.270   4.971   6.283  0.6556 -2.5583  1.9806
  163SAPE   HN218265   0.280   4.811   6.213  0.2870 -0.4442 -1.6147
  163SAPE   HN318266   0.284   4.950   6.113  0.0341 -0.1495  0.2617
  163SAPE   C1218267   0.098   4.904   6.189  0.0733  0.4844 -0.4121
  163SAPE  H12A18268   0.076   4.860   6.090  0.9320 -1.5323  0.2765
  163SAPE  H12B18269   0.062   5.010   6.190  1.0888  0.8314  0.8260
  163SAPE   C1118270   0.033   4.822   6.296  0.2616  0.1627  0.1703
  163SAPE  H11A18271   0.057   4.714   6.285  0.5308  0.2244  0.1453
  163SAPE  H11B18272  -0.077   4.814   6.284  0.4315  0.8943 -2.1023
  163SAPE     P18273   0.088   4.786   6.542 -0.2049 -0.0721  0.0675
  163SAPE   O1318274   0.171   4.672   6.500  0.0067 -0.0858 -1.0939
  163SAPE   O1418275   0.144   4.872   6.651  0.1891 -0.1566  0.4670
  163SAPE   O1218276   0.064   4.882   6.421  0.4012 -0.0658  0.2733
  163SAPE   O1118277  -0.050   4.733   6.577  0.2786  0.1351  0.1305
  163SAPE    C118278  -0.138   4.796   6.662  0.2687  0.3272 -0.4065
  163SAPE    HA18279  -0.122   4.905   6.675 -1.0155  0.4051  0.6005
  163SAPE    HB18280  -0.238   4.788   6.614  0.0891  0.6323 -0.0873
  163SAPE    C218281  -0.149   4.721   6.800  0.2484  0.0403  0.9545
  163SAPE    HS18282  -0.234   4.767   6.855 -1.3053 -1.0239 -0.4858
  163SAPE   O2118283  -0.026   4.732   6.875 -0.3353  0.1293 -0.0770
  163SAPE   C2118284   0.023   4.846   6.910 -0.9413  0.1350  0.7485
  163SAPE   O2218285  -0.035   4.952   6.903  0.4389  0.0186 -0.4728
  163SAPE   C2218286   0.167   4.819   6.962  0.0798 -0.4009  0.1687
  163SAPE   H2R18287   0.208   4.731   6.907  0.1888 -0.2898  0.0709
  163SAPE   H2S18288   0.232   4.905   6.933  1.3360 -2.0641 -2.0984
  163SAPE    C318289  -0.183   4.570   6.783  0.4503  0.3494  0.4216
  163SAPE    HX18290  -0.087   4.528   6.749 -0.2667  0.5309 -1.8874
  163SAPE    HY18291  -0.259   4.557   6.703 -0.4017 -0.4037  1.3376
  163SAPE   O3118292  -0.224   4.513   6.909 -0.0402  0.1380 -0.5871
  163SAPE   C3118293  -0.129   4.452   6.980  0.5369  0.1893 -0.6940
  163SAPE   O3218294  -0.010   4.443   6.944  0.7084 -0.3808  0.1732
  163SAPE   C3218295  -0.184   4.374   7.100  0.0803  0.0836  0.5254
  163SAPE   H2X18296  -0.287   4.339   7.078 -0.2540  2.5233 -2.1896
  163SAPE   H2Y18297  -0.195   4.453   7.176 -1.6722  2.0115 -1.6507
  163SAPE   C2318298   0.173   4.778   7.113 -0.0636 -0.0400  0.0370
  163SAPE   H3R18299   0.117   4.684   7.134  2.9432 -1.5704  1.5607
  163SAPE   H3S18300   0.105   4.854   7.157  1.2700  0.4963  1.2267
  163SAPE   C2418301   0.308   4.789   7.196  0.1709 -0.1521 -0.2996
  163SAPE   H4R18302   0.397   4.761   7.136  0.5082  0.2194  0.0260
  163SAPE   H4S18303   0.302   4.729   7.289 -3.1211  1.6068  0.6934
  163SAPE   C2518304   0.332   4.934   7.237  0.4089 -0.0632  0.0544
  163SAPE   H5R18305   0.301   5.009   7.163  2.7385  0.1956 -0.6903
  163SAPE   C2618306   0.378   4.976   7.359 -0.5603  0.1234  0.1235
  163SAPE   H6R18307   0.387   5.084   7.381  1.0254  0.2934 -1.2725
  163SAPE   C2718308   0.414   4.894   7.481 -0.0943  0.6167  0.2725
  163SAPE   H7R18309   0.455   4.794   7.455 -0.6438  0.4504  0.0329
  163SAPE   H7S18310   0.322   4.867   7.537  0.0063 -1.6746 -0.6067
  163SAPE   C2818311   0.518   4.945   7.573 -0.0178 -0.6703 -0.1858
  163SAPE   H8R18312   0.596   5.011   7.533 -0.6641  0.9328  1.1094
  163SAPE   C2918313   0.536   4.925   7.707  1.2121 -0.2162 -0.4022
  163SAPE   H9R18314   0.614   4.979   7.762  1.8663 -1.2565 -0.2875
  163SAPE  C21018315   0.443   4.843   7.793 -0.3559  0.2010  0.4704
  163SAPE  H10R18316   0.504   4.787   7.866  0.7940  0.4210 -0.3001
  163SAPE  H10S18317   0.381   4.773   7.734  1.4777 -0.3309 -0.8993
  163SAPE  C21118318   0.352   4.938   7.865  1.1761  0.2025  0.2293
  163SAPE  H11R18319   0.283   4.985   7.794  1.0305  0.6801  0.6833
  163SAPE  C21218320   0.347   4.967   7.997 -0.5103 -0.4779 -0.3797
  163SAPE  H12R18321   0.281   5.047   8.035 -0.4193 -0.1446 -0.9173
  163SAPE  C21318322   0.427   4.906   8.104  0.3573  0.3800 -0.8706
  163SAPE  H13R18323   0.471   4.806   8.084  0.2986  0.1579  0.0541
  163SAPE  H13S18324   0.349   4.897   8.183  1.8786  0.6285  0.6986
  163SAPE  C21418325   0.545   4.988   8.149  1.1586 -0.7072  0.5722
  163SAPE  H14R18326   0.594   5.054   8.076  1.9901 -0.4795  1.3223
  163SAPE  C21518327   0.588   4.986   8.274 -0.6220 -0.0852 -0.2202
  163SAPE  H15R18328   0.665   5.058   8.303  1.1995 -2.5561  1.2951
  163SAPE  C21618329   0.529   4.897   8.382 -0.4676 -0.3975 -0.1438
  163SAPE  H16R18330   0.551   4.794   8.346 -1.0352 -0.7385  0.4901
  163SAPE  H16S18331   0.422   4.926   8.380 -0.1591  0.8848  1.1968
  163SAPE  C21718332   0.572   4.919   8.528  0.4044  0.7030 -0.5517
  163SAPE  H17R18333   0.548   5.015   8.579  0.8004  0.5340 -0.0439
  163SAPE  H17S18334   0.682   4.905   8.527  0.2922 -0.6831  1.6262
  163SAPE  C21818335   0.497   4.819   8.620  0.1141  0.3561  0.1119
  163SAPE  H18R18336   0.518   4.719   8.575  0.8918  0.6013 -0.0856
  163SAPE  H18S18337   0.387   4.834   8.612 -0.2563 -2.1052  0.3167
  163SAPE  C21918338   0.540   4.839   8.771 -0.1311  0.3600  0.0176
  163SAPE  H19R18339   0.508   4.942   8.799 -2.5292 -0.6510  1.0753
  163SAPE  H19S18340   0.651   4.834   8.770 -0.1469 -0.0767  0.4638
  163SAPE  C22018341   0.477   4.741   8.864  0.1126  0.2641  0.1180
  163SAPE  H20R18342   0.367   4.743   8.879  0.0683  2.0686 -0.2746
  163SAPE  H20S18343   0.519   4.752   8.966  0.5994  0.5901 -0.1147
  163SAPE  H20T18344   0.501   4.641   8.822  0.6208  0.7301 -0.7260
  163SAPE   C3318345  -0.101   4.247   7.139 -0.6604  0.1572 -0.0345
  163SAPE   H3X18346   0.010   4.256   7.143 -0.7273  0.5005  1.4075
  163SAPE   H3Y18347  -0.129   4.164   7.072  1.4977 -1.3306  0.8190
  163SAPE   C3418348  -0.135   4.223   7.289 -0.1832  0.6398  0.3755
  163SAPE   H4X18349  -0.243   4.199   7.289 -0.2992  1.1408 -0.6081
  163SAPE   H4Y18350  -0.124   4.313   7.353 -2.1756  0.3180  1.2077
  163SAPE   C3518351  -0.042   4.110   7.340 -0.1961  0.3848  0.2629
  163SAPE   H5X18352   0.062   4.148   7.330 -0.7373  1.6567 -0.6588
  163SAPE   H5Y18353  -0.059   4.028   7.267  0.0461 -0.8730  1.5835
  163SAPE   C3618354  -0.062   4.045   7.475 -0.0567  0.3965  0.1109
  163SAPE   H6X18355   0.027   3.980   7.491  0.6730  0.9920 -1.4471
  163SAPE   H6Y18356  -0.145   3.972   7.464  0.6559  0.1604 -4.6896
  163SAPE   C3718357  -0.087   4.130   7.597 -0.2828 -0.4916  0.5048
  163SAPE   H7X18358  -0.189   4.173   7.588 -1.5328 -3.5517 -0.7000
  163SAPE   H7Y18359  -0.018   4.216   7.609 -0.8126  0.1040 -0.6840
  163SAPE   C3818360  -0.076   4.055   7.735 -1.0173  0.3940 -0.0184
  163SAPE   H8X18361   0.034   4.043   7.750 -1.2412 -0.9419  0.5834
  163SAPE   H8Y18362  -0.123   3.954   7.732  1.1497 -0.6300 -1.3134
  163SAPE   C3918363  -0.150   4.130   7.844  0.0027 -0.1086 -0.4257
  163SAPE   H9X18364  -0.259   4.123   7.825 -0.5780  3.5461  1.1077
  163SAPE   H9Y18365  -0.132   4.239   7.832 -0.1239 -0.4504 -4.1847
  163SAPE  C31018366  -0.125   4.081   7.989  0.2339  0.2681 -0.1646
  163SAPE  H10X18367  -0.108   3.971   7.989 -0.8840  0.0524 -2.5456
  163SAPE  H10Y18368  -0.223   4.096   8.038  0.1091  1.6138 -0.8101
  163SAPE  C31118369  -0.019   4.161   8.064 -0.4875 -0.8816 -0.3876
  163SAPE  H11X18370  -0.055   4.266   8.063 -0.8880 -1.0177 -0.1762
  163SAPE  H11Y18371   0.082   4.153   8.017 -0.0415  0.6894  0.2597
  163SAPE  C31218372  -0.022   4.136   8.216 -0.3421 -0.2137  0.0371
  163SAPE  H12X18373   0.018   4.034   8.235  0.8904  0.0936 -0.8348
  163SAPE  H12Y18374  -0.124   4.154   8.255 -1.1252 -0.5008 -1.8234
  163SAPE  C31318375   0.065   4.231   8.298  0.5574  0.0833  0.6357
  163SAPE  H13X18376   0.004   4.324   8.290  2.3142  1.2122 -0.0537
  163SAPE  H13Y18377   0.163   4.249   8.248  2.1482  0.8920  3.8982
  163SAPE  C31418378   0.078   4.192   8.445 -0.4385  0.4989  0.5163
  163SAPE  H14X18379   0.129   4.276   8.497  0.5535 -0.9101  1.8540
  163SAPE  H14Y18380   0.143   4.102   8.452 -1.9725 -0.9916 -3.2271
  163SAPE  C31518381  -0.057   4.170   8.521  0.1510  0.0561  0.0853
  163SAPE  H15X18382  -0.035   4.149   8.628  2.4003  0.4327 -0.2844
  163SAPE  H15Y18383  -0.108   4.078   8.484  0.9065 -0.2275 -0.2472
  163SAPE  C31618384  -0.155   4.291   8.526 -0.6238 -0.0150  0.4679
  163SAPE  H16X18385  -0.167   4.325   8.421  1.0607  0.1916  0.3334
  163SAPE  H16Y18386  -0.100   4.371   8.579  0.3088 -0.0591 -0.4330
  163SAPE  C31718387  -0.281   4.247   8.588  0.4588 -0.1044 -0.0407
  163SAPE  H17X18388  -0.259   4.202   8.687  0.5744 -1.8470 -0.8321
  163SAPE  H17Y18389  -0.323   4.170   8.520  0.3023 -2.7775  2.9792
  163SAPE  C31818390  -0.372   4.363   8.615  0.1172  0.1382 -0.5600
  163SAPE  H18X18391  -0.341   4.417   8.706 -1.2335 -0.1858  0.1035
  163SAPE  H18Y18392  -0.475   4.326   8.637  0.5080 -0.8999 -0.4522
  163SAPE  H18Z18393  -0.385   4.439   8.535 -1.4122  0.3893 -0.0811
  164SAPE     N18394   4.143   1.985   6.039 -0.4578 -0.4154  0.0013
  164SAPE   HN118395   4.097   2.070   6.001 -1.5449  0.5139  3.2722
  164SAPE   HN218396   4.206   2.007   6.119 -1.4168  0.6664  0.4737
  164SAPE   HN318397   4.210   1.961   5.963  0.7555  2.4188  0.1352
  164SAPE   C1218398   4.051   1.871   6.069  0.1612  0.2676 -0.0776
  164SAPE  H12A18399   4.099   1.777   6.105  0.2759  0.1748 -0.4721
  164SAPE  H12B18400   3.994   1.850   5.977 -0.3072 -2.6834  0.8319
  164SAPE   C1118401   3.952   1.916   6.173  0.8809  0.2812  0.1659
  164SAPE  H11A18402   4.004   1.932   6.270  2.9175 -0.3585 -0.8103
  164SAPE  H11B18403   3.886   1.829   6.192  1.1941 -0.1815 -0.8820
  164SAPE     P18404   3.738   2.017   6.044 -0.4641  0.1606  0.4418
  164SAPE   O1318405   3.671   2.148   6.057 -0.3861 -0.3617  0.0364
  164SAPE   O1418406   3.778   1.974   5.907 -0.1887 -0.1428  0.2508
  164SAPE   O1218407   3.878   2.026   6.130  0.5594  0.0955 -0.6717
  164SAPE   O1118408   3.663   1.901   6.118  0.5047 -0.0250  0.5834
  164SAPE    C118409   3.537   1.922   6.189 -0.4096  0.1901  0.0170
  164SAPE    HA18410   3.465   1.978   6.126  0.7310  0.5891 -0.9667
  164SAPE    HB18411   3.487   1.824   6.205 -0.2990 -0.1912 -1.8384
  164SAPE    C218412   3.562   1.989   6.319  0.3725  0.0118  0.2296
  164SAPE    HS18413   3.604   2.090   6.299 -1.3075  0.8745  0.8696
  164SAPE   O2118414   3.660   1.919   6.396  0.0288 -0.6210 -0.1494
  164SAPE   C2118415   3.724   1.983   6.488  0.5571 -0.2159  0.1553
  164SAPE   O2218416   3.728   2.101   6.512  0.4586  0.0813  0.4404
  164SAPE   C2218417   3.804   1.887   6.572  0.2854 -0.0788  0.2782
  164SAPE   H2R18418   3.733   1.804   6.588  0.9716 -0.6718  0.2592
  164SAPE   H2S18419   3.892   1.850   6.515 -0.9474  1.1436 -2.4855
  164SAPE    C318420   3.420   1.994   6.389 -0.5602  0.5645  0.3341
  164SAPE    HX18421   3.381   1.892   6.407 -1.4451  0.8234 -0.1205
  164SAPE    HY18422   3.357   2.047   6.315  1.0785 -2.4939 -3.4285
  164SAPE   O3118423   3.423   2.069   6.509  0.0473  0.8916 -0.0318
  164SAPE   C3118424   3.317   2.090   6.576 -0.1783  0.0601 -1.4756
  164SAPE   O3218425   3.204   2.058   6.537  0.0903 -0.2389 -0.3358
  164SAPE   C3218426   3.349   2.169   6.702  0.0624 -0.3870 -0.2715
  164SAPE   H2X18427   3.356   2.274   6.666 -0.6665  0.3240  1.5616
  164SAPE   H2Y18428   3.450   2.142   6.740 -0.9864 -0.8536  2.3146
  164SAPE   C2318429   3.849   1.942   6.715  0.6145  1.0034 -0.0727
  164SAPE   H3R18430   3.769   2.002   6.762 -1.5414 -2.5913  1.0492
  164SAPE   H3S18431   3.948   1.989   6.693  0.6345 -0.2102 -2.7500
  164SAPE   C2418432   3.879   1.831   6.821  0.4241  0.1952 -0.2800
  164SAPE   H4R18433   3.790   1.767   6.837  0.6337 -0.2022 -0.7286
  164SAPE   H4S18434   3.899   1.890   6.913 -1.0420 -1.6552  1.2576
  164SAPE   C2518435   3.981   1.729   6.779  0.6970 -0.2724  0.8896
  164SAPE   H5R18436   3.951   1.688   6.681 -3.1733  1.0424  1.4289
  164SAPE   C2618437   4.103   1.701   6.829 -0.3168 -0.5467  0.6185
  164SAPE   H6R18438   4.170   1.641   6.766 -0.2106 -1.2962  1.4254
  164SAPE   C2718439   4.161   1.761   6.958 -0.5465 -0.0078  0.3288
  164SAPE   H7R18440   4.227   1.689   7.012 -1.0516 -1.7076 -1.2513
  164SAPE   H7S18441   4.084   1.803   7.026  2.2897  3.2850  1.6682
  164SAPE   C2818442   4.248   1.873   6.918 -0.0686  0.5689 -0.5269
  164SAPE   H8R18443   4.314   1.852   6.833 -0.4500 -1.8784 -0.2583
  164SAPE   C2918444   4.265   1.993   6.982 -0.1611  0.4482  0.0664
  164SAPE   H9R18445   4.324   2.077   6.942 -2.0964  2.7166  1.8324
  164SAPE  C21018446   4.197   2.029   7.111  0.8594 -0.1307  0.1843
  164SAPE  H10R18447   4.251   2.096   7.181 -0.3605 -1.2632  2.2636
  164SAPE  H10S18448   4.182   1.934   7.167 -0.7591  0.0303  0.0728
  164SAPE  C21118449   4.059   2.086   7.082 -0.0700  0.1318  0.6263
  164SAPE  H11R18450   4.062   2.140   6.986  2.3729 -0.1470  0.5189
  164SAPE  C21218451   3.943   2.073   7.149 -0.3727 -0.1949 -0.5202
  164SAPE  H12R18452   3.858   2.137   7.122 -1.7268 -1.1584  1.3541
  164SAPE  C21318453   3.924   2.001   7.279 -0.7148  0.4888  0.3638
  164SAPE  H13R18454   3.836   2.042   7.334 -0.3162  0.9374  0.6773
  164SAPE  H13S18455   4.013   2.014   7.344 -0.1063  0.7631 -0.5275
  164SAPE  C21418456   3.879   1.858   7.255  0.4184 -0.0242  0.4694
  164SAPE  H14R18457   3.833   1.837   7.157  0.1820 -0.9886  0.7798
  164SAPE  C21518458   3.905   1.742   7.319 -0.6488  0.1060 -0.2522
  164SAPE  H15R18459   3.873   1.648   7.271 -1.0404  1.0394 -1.8428
  164SAPE  C21618460   3.980   1.726   7.450  0.1605  0.9512  0.8262
  164SAPE  H16R18461   3.905   1.690   7.523  0.3979 -0.5631  0.3389
  164SAPE  H16S18462   4.030   1.818   7.488 -0.5123  1.0993  1.3474
  164SAPE  C21718463   4.103   1.621   7.445  0.1540  0.1942 -0.3411
  164SAPE  H17R18464   4.058   1.520   7.449 -2.1269  1.2193  0.8274
  164SAPE  H17S18465   4.165   1.635   7.536 -0.4133  1.4072 -0.1227
  164SAPE  C21818466   4.196   1.642   7.324  0.3228 -0.0851 -0.0712
  164SAPE  H18R18467   4.211   1.752   7.318  0.0318  0.0769  1.6672
  164SAPE  H18S18468   4.147   1.610   7.230 -2.7212 -0.5791  1.6349
  164SAPE  C21918469   4.329   1.560   7.346  0.7557 -0.1791 -0.5085
  164SAPE  H19R18470   4.396   1.608   7.419  0.9098  1.7129 -1.8617
  164SAPE  H19S18471   4.379   1.555   7.247 -0.8349 -1.6452 -1.2745
  164SAPE  C22018472   4.300   1.416   7.390 -0.6921  0.1474  0.4902
  164SAPE  H20R18473   4.391   1.353   7.381 -0.8744  0.1053 -1.3751
  164SAPE  H20S18474   4.217   1.374   7.329  0.8587 -0.9852 -0.8847
  164SAPE  H20T18475   4.270   1.413   7.497 -2.8108 -1.6491 -0.1058
  164SAPE   C3318476   3.240   2.159   6.810 -0.4681 -0.2505 -0.0748
  164SAPE   H3X18477   3.218   2.055   6.839  1.3904 -0.8591 -0.7772
  164SAPE   H3Y18478   3.148   2.215   6.784  0.5442  0.9660 -1.1548
  164SAPE   C3418479   3.287   2.233   6.944 -0.4277  0.8223  0.8252
  164SAPE   H4X18480   3.297   2.343   6.929 -0.1650  0.7149  0.1709
  164SAPE   H4Y18481   3.382   2.188   6.980 -2.2020 -3.6554  0.1839
  164SAPE   C3518482   3.183   2.222   7.054  0.0353  0.5847  0.1479
  164SAPE   H5X18483   3.171   2.114   7.080 -0.5012  0.7243  0.5104
  164SAPE   H5Y18484   3.083   2.270   7.044 -0.6504 -0.9837 -0.8164
  164SAPE   C3618485   3.238   2.288   7.186  0.1642 -0.9187  0.7592
  164SAPE   H6X18486   3.229   2.393   7.152 -1.6174 -0.6490  1.9728
  164SAPE   H6Y18487   3.336   2.252   7.225 -0.5671 -0.2960  3.3096
  164SAPE   C3718488   3.154   2.274   7.314 -0.1164  0.6545 -0.2997
  164SAPE   H7X18489   3.045   2.289   7.297 -0.6820 -2.5645  0.2932
  164SAPE   H7Y18490   3.180   2.344   7.396  1.2922  1.1555 -1.1523
  164SAPE   C3818491   3.174   2.133   7.366 -0.4522 -0.4931  0.4171
  164SAPE   H8X18492   3.282   2.107   7.354 -0.8515 -1.2909 -1.6150
  164SAPE   H8Y18493   3.115   2.056   7.312  1.3767 -0.3521 -1.8592
  164SAPE   C3918494   3.144   2.104   7.515  0.5349  0.0252 -0.5048
  164SAPE   H9X18495   3.040   2.143   7.527  0.6358  0.6236 -1.4890
  164SAPE   H9Y18496   3.208   2.165   7.582 -0.7921 -0.7638  1.5448
  164SAPE  C31018497   3.159   1.958   7.557 -0.4844 -0.3989 -0.1113
  164SAPE  H10X18498   3.256   1.916   7.523 -1.1400 -0.9669 -1.3246
  164SAPE  H10Y18499   3.083   1.904   7.497 -1.3901 -0.2915  0.9154
  164SAPE  C31118500   3.141   1.907   7.707  0.0309 -0.3317  0.0795
  164SAPE  H11X18501   3.147   1.796   7.705 -0.4404 -0.3476 -2.4823
  164SAPE  H11Y18502   3.033   1.922   7.728 -0.1296 -0.0569 -0.8988
  164SAPE  C31218503   3.240   1.973   7.805 -0.1635 -0.2597  0.3920
  164SAPE  H12X18504   3.224   2.082   7.791 -1.2505 -0.5441 -0.6733
  164SAPE  H12Y18505   3.345   1.953   7.776 -0.7282 -0.0279 -1.9150
  164SAPE  C31318506   3.232   1.941   7.954  0.2711 -0.1453  0.1477
  164SAPE  H13X18507   3.231   1.831   7.968  0.5625  0.1051  2.3488
  164SAPE  H13Y18508   3.132   1.972   7.990  0.6798 -0.1465  1.2853
  164SAPE  C31418509   3.349   1.991   8.029 -0.0671  0.1520 -0.1212
  164SAPE  H14X18510   3.373   2.098   8.011  1.0280  0.2582  1.7779
  164SAPE  H14Y18511   3.435   1.934   7.989  0.5682  0.7485  0.3725
  164SAPE  C31518512   3.332   1.989   8.179 -0.1846  0.2054 -0.2076
  164SAPE  H15X18513   3.247   2.050   8.216 -2.0938 -1.4348 -1.7658
  164SAPE  H15Y18514   3.430   2.030   8.212  0.4583 -1.2019 -0.3673
  164SAPE  C31618515   3.312   1.855   8.240 -0.3181 -0.1865 -0.4172
  164SAPE  H16X18516   3.404   1.799   8.210 -0.1348 -0.7614  1.1472
  164SAPE  H16Y18517   3.219   1.817   8.193  0.7826  0.0986 -2.8813
  164SAPE  C31718518   3.297   1.863   8.394  0.5800 -0.2589 -0.2473
  164SAPE  H17X18519   3.223   1.942   8.420 -0.2978 -0.5377 -1.8631
  164SAPE  H17Y18520   3.392   1.902   8.437 -0.0393  2.5730 -1.3818
  164SAPE  C31818521   3.255   1.739   8.464 -0.1291 -0.0504 -0.1650
  164SAPE  H18X18522   3.342   1.670   8.471 -0.4780 -0.4895 -0.1480
  164SAPE  H18Y18523   3.181   1.686   8.401 -0.9218  1.7748 -0.8033
  164SAPE  H18Z18524   3.198   1.755   8.557 -2.0822 -2.2460 -0.9385
  165SAPE     N18525   2.465   4.761   6.406 -0.1588  0.4853  0.3234
  165SAPE   HN118526   2.487   4.843   6.346  1.6275 -0.8299 -0.8706
  165SAPE   HN218527   2.545   4.694   6.401 -3.8879 -4.2261  0.2190
  165SAPE   HN318528   2.381   4.707   6.378 -0.1455  0.8990 -0.5057
  165SAPE   C1218529   2.467   4.813   6.551 -0.3367 -0.1379 -0.3033
  165SAPE  H12A18530   2.502   4.732   6.618 -1.5778 -0.3859  0.0687
  165SAPE  H12B18531   2.362   4.836   6.578  0.1944  1.8425  0.2127
  165SAPE   C1118532   2.567   4.934   6.568  0.3153 -0.3322  0.7657
  165SAPE  H11A18533   2.666   4.924   6.518 -0.7478 -1.7532 -1.1004
  165SAPE  H11B18534   2.602   4.945   6.673  1.5575  0.2121  0.3093
  165SAPE     P18535   2.566   5.193   6.517 -0.2204  0.1285  0.3021
  165SAPE   O1318536   2.640   5.218   6.391  0.2155 -0.2268  0.2856
  165SAPE   O1418537   2.464   5.295   6.554 -0.4147  1.1405  0.2302
  165SAPE   O1218538   2.501   5.048   6.510 -0.6708  0.1142  0.1717
  165SAPE   O1118539   2.673   5.173   6.627 -0.4712  0.3499 -0.2848
  165SAPE    C118540   2.698   5.280   6.722  0.6214 -0.3551  0.1125
  165SAPE    HA18541   2.697   5.381   6.675 -1.3719 -0.5969 -0.4043
  165SAPE    HB18542   2.622   5.275   6.802 -1.2260  0.7551 -1.5125
  165SAPE    C218543   2.845   5.266   6.774 -0.6176 -0.0731 -0.3921
  165SAPE    HS18544   2.912   5.244   6.688  1.4366 -0.7309  1.3489
  165SAPE   O2118545   2.851   5.161   6.872  0.2125  0.4851  0.4133
  165SAPE   C2118546   2.971   5.109   6.883 -0.5064  0.0827  0.1224
  165SAPE   O2218547   3.068   5.148   6.825 -0.2553  0.1744 -0.0136
  165SAPE   C2218548   2.974   4.986   6.969 -0.0558 -0.1544  0.3236
  165SAPE   H2R18549   2.933   4.906   6.902  0.9470  1.0195 -1.7225
  165SAPE   H2S18550   3.081   4.960   6.986 -0.0397 -0.7143 -0.5862
  165SAPE    C318551   2.891   5.405   6.835 -0.0805  0.6488  0.2028
  165SAPE    HX18552   2.914   5.465   6.744  2.0914 -0.0667  0.2639
  165SAPE    HY18553   2.983   5.383   6.893 -0.7288 -3.3624 -0.1609
  165SAPE   O3118554   2.788   5.453   6.919 -0.0160 -0.0481  0.3838
  165SAPE   C3118555   2.788   5.582   6.937  0.1070  0.3780  0.9137
  165SAPE   O3218556   2.875   5.650   6.890  0.0413 -0.2649  0.4832
  165SAPE   C3218557   2.656   5.621   7.001 -0.3130  0.1276  0.0122
  165SAPE   H2X18558   2.573   5.565   6.952  1.2555 -2.7914  0.5643
  165SAPE   H2Y18559   2.650   5.731   6.986  2.0410  0.2694 -0.0129
  165SAPE   C2318560   2.890   4.997   7.102 -0.7366  0.0073 -0.8119
  165SAPE   H3R18561   2.878   4.895   7.144 -0.5809  0.1945 -0.3162
  165SAPE   H3S18562   2.793   5.048   7.082 -1.3100 -0.6744  0.1761
  165SAPE   C2418563   2.959   5.090   7.205 -0.1478  0.2951 -0.3180
  165SAPE   H4R18564   2.947   5.196   7.173 -0.8463  0.2403 -0.2536
  165SAPE   H4S18565   3.065   5.069   7.182 -1.0822 -0.4613 -4.1561
  165SAPE   C2518566   2.921   5.080   7.346 -0.0716  0.6172 -0.0061
  165SAPE   H5R18567   2.818   5.112   7.366 -0.1839 -1.0554  2.2979
  165SAPE   C2618568   2.992   5.044   7.457  0.1987  0.1003 -0.3882
  165SAPE   H6R18569   2.938   5.035   7.552 -0.5351 -0.8822 -0.8960
  165SAPE   C2718570   3.141   5.003   7.460  0.4030 -0.5486  0.1596
  165SAPE   H7R18571   3.187   5.042   7.553 -0.9632  0.9672  0.2074
  165SAPE   H7S18572   3.190   5.064   7.381 -0.8741  0.9923  0.5421
  165SAPE   C2818573   3.150   4.847   7.444 -0.2871  0.5634  0.2125
  165SAPE   H8R18574   3.125   4.810   7.343 -0.7022 -2.1672  1.2698
  165SAPE   C2918575   3.186   4.759   7.539  0.5726  0.7278  0.8026
  165SAPE   H9R18576   3.213   4.655   7.515  0.1360  1.0399 -1.1220
  165SAPE  C21018577   3.209   4.797   7.680  0.3960  0.2947 -0.5853
  165SAPE  H10R18578   3.146   4.885   7.705  0.9112  0.1737  1.2188
  165SAPE  H10S18579   3.315   4.828   7.690  0.4509 -0.0873  0.0509
  165SAPE  C21118580   3.157   4.692   7.772 -0.4779  0.1105  0.0688
  165SAPE  H11R18581   3.064   4.643   7.739  0.1648 -0.7168 -0.5250
  165SAPE  C21218582   3.221   4.648   7.882  0.1508 -0.1473  0.2149
  165SAPE  H12R18583   3.179   4.565   7.940 -0.4066 -0.6553 -0.9223
  165SAPE  C21318584   3.356   4.701   7.934  0.1693  0.2850  1.1194
  165SAPE  H13R18585   3.381   4.807   7.913 -0.2318  0.4462  1.4451
  165SAPE  H13S18586   3.434   4.639   7.887 -1.4099 -0.1532 -0.9836
  165SAPE  C21418587   3.369   4.686   8.085 -0.4565  0.2226 -0.0780
  165SAPE  H14R18588   3.373   4.779   8.144  1.1373  1.5697 -2.2634
  165SAPE  C21518589   3.375   4.575   8.163 -0.2422  0.5783  0.3707
  165SAPE  H15R18590   3.378   4.577   8.273  0.7994 -0.7335  0.3763
  165SAPE  C21618591   3.366   4.436   8.114  0.4244  0.0788  0.3656
  165SAPE  H16R18592   3.459   4.392   8.157  1.1807  0.2278 -1.1042
  165SAPE  H16S18593   3.373   4.429   8.004  0.9959 -0.3387  0.4240
  165SAPE  C21718594   3.242   4.365   8.159  0.3178  0.8197  0.6405
  165SAPE  H17R18595   3.259   4.261   8.124  1.9854  0.6724  1.8330
  165SAPE  H17S18596   3.150   4.411   8.118  0.7624  0.7174 -0.4923
  165SAPE  C21818597   3.231   4.344   8.313  0.1249 -1.1309 -0.4867
  165SAPE  H18R18598   3.195   4.436   8.365 -2.9545 -1.9668 -1.0448
  165SAPE  H18S18599   3.330   4.308   8.348  0.4512  0.1871 -0.0005
  165SAPE  C21918600   3.118   4.247   8.347 -0.5456 -0.1187 -0.2075
  165SAPE  H19R18601   3.168   4.154   8.313  0.0059  1.2527 -3.3598
  165SAPE  H19S18602   3.018   4.260   8.301  0.6680  1.8015 -2.4343
  165SAPE  C22018603   3.100   4.250   8.506 -0.4637  0.6148  0.5754
  165SAPE  H20R18604   3.047   4.159   8.541  1.1491 -1.3595 -1.9211
  165SAPE  H20S18605   3.040   4.335   8.544 -2.2896 -0.8864  1.1045
  165SAPE  H20T18606   3.201   4.247   8.552  0.0979  1.6887 -0.5388
  165SAPE   C3318607   2.658   5.590   7.149 -0.0469  0.7414 -0.0489
  165SAPE   H3X18608   2.697   5.487   7.165 -0.1855  0.6261 -0.4580
  165SAPE   H3Y18609   2.552   5.584   7.182 -0.0049 -0.8532 -0.1921
  165SAPE   C3418610   2.741   5.675   7.241 -0.3292 -0.7425  0.7013
  165SAPE   H4X18611   2.703   5.778   7.223 -0.4889 -1.0847 -0.9527
  165SAPE   H4Y18612   2.847   5.691   7.210 -1.0110 -0.9426 -1.7773
  165SAPE   C3518613   2.727   5.640   7.381  0.4102 -0.0943 -0.1802
  165SAPE   H5X18614   2.620   5.618   7.404  0.5249 -0.5587 -0.0848
  165SAPE   H5Y18615   2.759   5.731   7.435 -0.9896  0.0431  0.4491
  165SAPE   C3618616   2.832   5.543   7.431 -0.0111  0.2155  0.2512
  165SAPE   H6X18617   2.926   5.590   7.395 -0.9465  0.3463 -2.0759
  165SAPE   H6Y18618   2.810   5.450   7.374 -1.1141  0.5313  0.1622
  165SAPE   C3718619   2.842   5.519   7.580  0.1289 -0.5081  0.0078
  165SAPE   H7X18620   2.752   5.488   7.636  0.3294 -2.6522 -0.8215
  165SAPE   H7Y18621   2.873   5.617   7.624 -2.0319 -0.1747  0.8074
  165SAPE   C3818622   2.936   5.401   7.615  0.8266  0.2658 -0.0661
  165SAPE   H8X18623   3.038   5.409   7.571  0.6633 -1.8319 -0.8925
  165SAPE   H8Y18624   2.884   5.317   7.564 -1.7182 -0.9776  4.3045
  165SAPE   C3918625   2.946   5.379   7.767 -0.5532  0.0622  0.3443
  165SAPE   H9X18626   2.850   5.395   7.821 -0.6892  1.7761 -0.3571
  165SAPE   H9Y18627   3.014   5.457   7.809  0.1676  0.4280 -1.4427
  165SAPE  C31018628   3.006   5.234   7.794  0.0029  0.0646  0.0862
  165SAPE  H10X18629   3.091   5.217   7.724  0.8000 -2.1334  1.5264
  165SAPE  H10Y18630   2.927   5.165   7.756 -1.1171  1.7671 -0.7278
  165SAPE  C31118631   3.043   5.201   7.944 -0.6007  0.0036 -0.1621
  165SAPE  H11X18632   2.953   5.224   8.005  1.4110  0.6310  2.7165
  165SAPE  H11Y18633   3.127   5.264   7.981 -0.6258  0.0512 -0.1855
  165SAPE  C31218634   3.071   5.051   7.965 -0.4260 -0.5364  0.0592
  165SAPE  H12X18635   3.146   5.035   7.885 -1.0333  0.7202 -0.7676
  165SAPE  H12Y18636   2.981   4.994   7.933 -1.0796  0.1388  0.6745
  165SAPE  C31318637   3.131   5.017   8.108  0.5728  0.6766 -0.2007
  165SAPE  H13X18638   3.214   5.088   8.124  0.2614  1.3844 -1.6188
  165SAPE  H13Y18639   3.171   4.914   8.099 -1.1393  0.0407 -0.7947
  165SAPE  C31418640   3.027   5.027   8.218  0.0687 -0.1880 -0.2271
  165SAPE  H14X18641   2.952   4.952   8.184 -1.4978  1.8809 -1.4187
  165SAPE  H14Y18642   2.970   5.120   8.199 -0.7781 -0.4409  1.0036
  165SAPE  C31518643   3.082   5.016   8.359  0.0876 -0.7886 -0.3873
  165SAPE  H15X18644   3.004   5.044   8.433  1.4917  0.3153  0.6780
  165SAPE  H15Y18645   3.154   5.099   8.375 -1.2477  0.4948 -0.9573
  165SAPE  C31618646   3.129   4.874   8.397 -0.4576 -0.1010 -0.4393
  165SAPE  H16X18647   3.186   4.835   8.311 -1.3812 -1.7920 -0.3110
  165SAPE  H16Y18648   3.042   4.805   8.398 -1.0509  0.6119 -1.8701
  165SAPE  C31718649   3.215   4.860   8.518  0.4380 -0.3495  0.6517
  165SAPE  H17X18650   3.152   4.857   8.609 -2.6978 -0.7137 -1.4613
  165SAPE  H17Y18651   3.273   4.954   8.528 -1.3531  1.1300 -2.2115
  165SAPE  C31818652   3.298   4.733   8.519 -0.1052  0.2848  0.1717
  165SAPE  H18X18653   3.384   4.743   8.587 -0.0412  1.1712 -0.0380
  165SAPE  H18Y18654   3.334   4.713   8.416 -1.9496 -2.1718 -0.0560
  165SAPE  H18Z18655   3.236   4.651   8.561  0.4512 -0.3747 -0.2777
  166SAPE     N18656   2.795   1.017   5.841  0.1602 -0.4770  0.4967
  166SAPE   HN118657   2.719   1.056   5.901 -0.1986  0.6626 -0.6753
  166SAPE   HN218658   2.782   1.048   5.742  1.5373 -0.6968  0.2374
  166SAPE   HN318659   2.784   0.914   5.846  1.9110 -0.7933 -1.4264
  166SAPE   C1218660   2.935   1.070   5.875 -0.1437  0.3253  0.7006
  166SAPE  H12A18661   3.001   0.998   5.822  0.3732  1.9602 -0.9095
  166SAPE  H12B18662   2.956   1.052   5.982 -1.7813 -3.7149  0.4587
  166SAPE   C1118663   2.951   1.218   5.835  0.0798  0.3863  0.1209
  166SAPE  H11A18664   2.935   1.233   5.726 -1.8384 -0.4301  0.2565
  166SAPE  H11B18665   3.052   1.257   5.858  0.4415  0.6338 -1.7965
  166SAPE     P18666   2.853   1.379   6.027 -0.2021 -0.2415 -0.3169
  166SAPE   O1318667   2.811   1.514   5.993 -0.3593 -0.4202  0.1575
  166SAPE   O1418668   2.774   1.299   6.120 -0.1296  0.9022 -0.2306
  166SAPE   O1218669   2.847   1.303   5.893 -0.2847 -0.4477 -0.0163
  166SAPE   O1118670   3.012   1.394   6.065  0.0813 -0.4727  0.5224
  166SAPE    C118671   3.069   1.314   6.171  0.3010  0.0439 -0.2195
  166SAPE    HA18672   3.047   1.206   6.153  0.7972 -0.0665 -0.1741
  166SAPE    HB18673   3.180   1.321   6.172  0.3187 -0.1349 -0.5914
  166SAPE    C218674   3.021   1.348   6.321 -0.0430  0.9141 -0.5932
  166SAPE    HS18675   2.913   1.331   6.338 -0.1774  2.4891  0.1829
  166SAPE   O2118676   3.054   1.485   6.357 -0.1238  0.2198  0.5541
  166SAPE   C2118677   2.952   1.557   6.392  0.7129 -0.3685  0.6620
  166SAPE   O2218678   2.832   1.523   6.398  0.5741 -0.0711  0.1589
  166SAPE   C2218679   3.002   1.693   6.431  0.0568 -0.0497 -0.5542
  166SAPE   H2R18680   3.100   1.714   6.385  0.0958  2.4440  0.5879
  166SAPE   H2S18681   2.926   1.764   6.391 -0.4241 -0.0953  0.2582
  166SAPE    C318682   3.082   1.240   6.428  0.0066  0.0284  0.3454
  166SAPE    HX18683   3.190   1.263   6.416 -0.1590 -0.9426 -3.5901
  166SAPE    HY18684   3.069   1.132   6.405 -2.0340  0.4287 -0.4047
  166SAPE   O3118685   3.049   1.269   6.560  0.0780 -0.9064  0.4259
  166SAPE   C3118686   2.920   1.226   6.593  0.6311  0.1237  0.4741
  166SAPE   O3218687   2.854   1.150   6.523 -0.2246  0.0000 -0.3228
  166SAPE   C3218688   2.876   1.290   6.717  0.2978  0.3874 -0.0881
  166SAPE   H2X18689   2.827   1.387   6.699 -0.7992  0.1974  1.7769
  166SAPE   H2Y18690   2.963   1.330   6.773  0.0462  0.4683  0.2461
  166SAPE   C2318691   3.007   1.707   6.585  0.0145 -0.3087  0.6652
  166SAPE   H3R18692   3.059   1.805   6.589  0.2275 -0.4877  2.2471
  166SAPE   H3S18693   3.072   1.627   6.625 -1.5746 -3.1536 -2.1436
  166SAPE   C2418694   2.863   1.705   6.649 -0.4540 -0.3843  0.4455
  166SAPE   H4R18695   2.834   1.598   6.659 -0.5155 -0.5042 -1.0012
  166SAPE   H4S18696   2.787   1.746   6.580  1.3333  0.2071 -1.2251
  166SAPE   C2518697   2.887   1.775   6.776 -0.8255  0.3455 -0.6564
  166SAPE   H5R18698   2.959   1.859   6.777  0.4205 -0.7105 -0.2885
  166SAPE   C2618699   2.804   1.772   6.884  0.7197  0.0688 -0.5847
  166SAPE   H6R18700   2.825   1.835   6.971 -0.9974 -0.2421  0.0732
  166SAPE   C2718701   2.674   1.688   6.895 -0.3937  0.3269 -0.5142
  166SAPE   H7R18702   2.684   1.583   6.860  0.0439  1.0356 -2.5302
  166SAPE   H7S18703   2.589   1.733   6.839  0.4844 -0.9296 -2.9206
  166SAPE   C2818704   2.620   1.681   7.034  0.2468  0.3447 -0.6227
  166SAPE   H8R18705   2.677   1.729   7.115  0.6421 -0.6653 -0.2817
  166SAPE   C2918706   2.503   1.625   7.067  0.4727  0.3635  0.5319
  166SAPE   H9R18707   2.474   1.623   7.173 -2.5754  1.2029 -0.2341
  166SAPE  C21018708   2.400   1.571   6.962 -0.5208  0.3479  0.3898
  166SAPE  H10R18709   2.401   1.644   6.878 -0.4728 -0.2168 -0.1026
  166SAPE  H10S18710   2.301   1.578   7.013 -0.0494  1.2853  1.2014
  166SAPE  C21118711   2.405   1.432   6.906  0.4697 -0.8506  1.1505
  166SAPE  H11R18712   2.474   1.414   6.821 -0.3001  0.6540  0.1960
  166SAPE  C21218713   2.333   1.321   6.947 -0.5005  0.2381 -0.0827
  166SAPE  H12R18714   2.360   1.222   6.907  0.3938 -0.4787  2.1533
  166SAPE  C21318715   2.244   1.320   7.069  0.6655  0.1198 -0.1275
  166SAPE  H13R18716   2.164   1.397   7.065  1.5229  1.0009 -0.5501
  166SAPE  H13S18717   2.300   1.357   7.159  0.1955 -0.3745  0.3713
  166SAPE  C21418718   2.183   1.183   7.092 -0.3960 -0.3141 -0.5139
  166SAPE  H14R18719   2.139   1.137   7.002 -0.8925  1.2920 -1.1076
  166SAPE  C21518720   2.193   1.114   7.206  0.4619  0.6668  0.1566
  166SAPE  H15R18721   2.133   1.022   7.213  1.9395 -0.4696 -1.5791
  166SAPE  C21618722   2.270   1.147   7.332 -0.1554 -0.5083  0.5714
  166SAPE  H16R18723   2.291   1.256   7.337 -0.2963 -0.4721  0.3859
  166SAPE  H16S18724   2.372   1.103   7.338 -0.7466 -2.0462 -0.2459
  166SAPE  C21718725   2.195   1.098   7.464  0.0563  0.1104  0.0738
  166SAPE  H17R18726   2.092   1.141   7.471  0.0437  0.6565 -3.0126
  166SAPE  H17S18727   2.255   1.139   7.548  0.9751  0.1222 -0.5848
  166SAPE  C21818728   2.186   0.949   7.495  0.5870 -0.5650  0.0944
  166SAPE  H18R18729   2.288   0.906   7.477  1.7867  1.6599  1.4222
  166SAPE  H18S18730   2.119   0.918   7.411  0.0225 -0.1439  0.3912
  166SAPE  C21918731   2.127   0.910   7.631  1.1739 -1.2500 -0.0583
  166SAPE  H19R18732   2.020   0.933   7.648  1.2757 -0.1499 -0.8423
  166SAPE  H19S18733   2.188   0.967   7.704  0.0939  0.1910 -0.2644
  166SAPE  C22018734   2.154   0.770   7.672 -0.7666 -0.1830 -0.4324
  166SAPE  H20R18735   2.256   0.740   7.638 -0.9945 -0.6004 -0.7542
  166SAPE  H20S18736   2.083   0.698   7.625 -0.7101  0.4135 -1.4603
  166SAPE  H20T18737   2.146   0.764   7.782  0.0502  0.3273 -0.3438
  166SAPE   C3318738   2.775   1.203   6.794  0.3504 -0.3973 -0.3981
  166SAPE   H3X18739   2.820   1.104   6.817 -1.5976 -0.9018  1.4123
  166SAPE   H3Y18740   2.680   1.199   6.738 -1.3115 -1.0662  2.3530
  166SAPE   C3418741   2.745   1.279   6.927  0.0753  0.3115 -0.5601
  166SAPE   H4X18742   2.674   1.363   6.910 -1.6207 -0.7203  1.1972
  166SAPE   H4Y18743   2.843   1.315   6.965 -1.0377  2.2979  0.5006
  166SAPE   C3518744   2.690   1.188   7.036 -0.4735  0.3930 -0.4410
  166SAPE   H5X18745   2.759   1.103   7.048  1.1211  1.7436  0.1152
  166SAPE   H5Y18746   2.593   1.140   7.010  0.0771 -0.4307 -1.0016
  166SAPE   C3618747   2.669   1.275   7.166 -0.0283 -1.0843 -0.9412
  166SAPE   H6X18748   2.575   1.330   7.145 -0.4403 -1.0156  0.9733
  166SAPE   H6Y18749   2.749   1.351   7.179 -0.2472 -1.0081  0.0602
  166SAPE   C3718750   2.662   1.193   7.300 -0.0288  0.7418 -0.7200
  166SAPE   H7X18751   2.761   1.145   7.315  1.5318  3.9636 -0.1567
  166SAPE   H7Y18752   2.599   1.103   7.283  1.3642 -0.3010 -0.4648
  166SAPE   C3818753   2.626   1.270   7.426 -0.3268 -0.6016 -0.2087
  166SAPE   H8X18754   2.543   1.341   7.408  0.4759  0.3772 -0.1182
  166SAPE   H8Y18755   2.705   1.338   7.464 -0.9426 -0.3750  0.6992
  166SAPE   C3918756   2.588   1.172   7.547  0.0223 -1.0891  0.5931
  166SAPE   H9X18757   2.659   1.088   7.561 -1.5505 -2.4059  0.7784
  166SAPE   H9Y18758   2.493   1.131   7.507 -0.5802  0.6576  0.1940
  166SAPE  C31018759   2.563   1.251   7.673 -0.5593  0.2002  0.3874
  166SAPE  H10X18760   2.477   1.315   7.643 -0.2268  0.7325  0.5570
  166SAPE  H10Y18761   2.648   1.316   7.704 -1.4271  0.8193  1.5253
  166SAPE  C31118762   2.516   1.166   7.792 -0.2989  0.0088  0.2189
  166SAPE  H11X18763   2.585   1.080   7.805  0.7968  0.7331 -0.6566
  166SAPE  H11Y18764   2.421   1.122   7.756  0.6414 -0.4896 -1.7397
  166SAPE  C31218765   2.477   1.235   7.920  0.7362  0.3182 -0.7352
  166SAPE  H12X18766   2.409   1.322   7.913 -0.5243 -0.3711  2.2140
  166SAPE  H12Y18767   2.573   1.282   7.949  1.1431 -0.4762 -0.7750
  166SAPE  C31318768   2.448   1.140   8.038 -0.1008  0.0707  1.2325
  166SAPE  H13X18769   2.348   1.098   8.017  0.2641 -1.4777  2.5259
  166SAPE  H13Y18770   2.433   1.199   8.130  2.7900 -0.2727  1.9905
  166SAPE  C31418771   2.554   1.037   8.066  0.5364  0.5009  0.3180
  166SAPE  H14X18772   2.651   1.090   8.083  2.5464 -2.5829 -1.0865
  166SAPE  H14Y18773   2.581   0.969   7.982 -0.5202  0.4519  0.0176
  166SAPE  C31518774   2.508   0.957   8.190 -0.2062  0.0681 -0.3979
  166SAPE  H15X18775   2.409   0.914   8.162  0.0277 -0.8612  0.1860
  166SAPE  H15Y18776   2.471   1.030   8.266  0.9890  1.5253 -1.2123
  166SAPE  C31618777   2.606   0.851   8.233  0.0986  0.0564  0.1522
  166SAPE  H16X18778   2.689   0.884   8.299  0.3387  0.9249 -0.5678
  166SAPE  H16Y18779   2.647   0.805   8.141 -1.9250 -1.4232 -0.0291
  166SAPE  C31718780   2.535   0.734   8.297 -0.4608 -1.1299  0.9223
  166SAPE  H17X18781   2.466   0.768   8.377 -0.9781 -0.2942  0.1401
  166SAPE  H17Y18782   2.606   0.665   8.347  2.0240 -0.0363 -0.9939
  166SAPE  C31818783   2.445   0.639   8.212  0.6092  0.0958  0.4229
  166SAPE  H18X18784   2.339   0.669   8.202  0.7482  0.5212  0.1989
  166SAPE  H18Y18785   2.443   0.540   8.263  1.1104  0.2606  0.7700
  166SAPE  H18Z18786   2.490   0.626   8.111  2.0073 -0.4563  1.0993
  167SAPE     N18787   3.826   1.171   6.276 -0.4772 -0.0564  0.2889
  167SAPE   HN118788   3.798   1.081   6.232 -0.0001  0.0586 -0.2449
  167SAPE   HN218789   3.760   1.186   6.355 -1.0143 -0.8361 -0.0085
  167SAPE   HN318790   3.817   1.251   6.211  0.4722 -0.1565  0.0305
  167SAPE   C1218791   3.972   1.164   6.328  0.0391  0.0011 -0.2449
  167SAPE  H12A18792   3.986   1.080   6.399 -1.3480  1.0027  1.2403
  167SAPE  H12B18793   4.002   1.263   6.368 -0.9564 -0.0357  0.6039
  167SAPE   C1118794   4.071   1.129   6.215  1.1122 -0.3245 -0.4209
  167SAPE  H11A18795   4.169   1.155   6.261  0.2734 -0.0711  1.2266
  167SAPE  H11B18796   4.054   1.203   6.134  2.1396 -0.8179 -1.1067
  167SAPE     P18797   4.099   0.860   6.230  0.2402  0.0793 -0.1542
  167SAPE   O1318798   4.002   0.810   6.332 -0.2523  0.5284  0.1549
  167SAPE   O1418799   4.130   0.776   6.114 -0.0767 -0.4828 -0.4433
  167SAPE   O1218800   4.050   0.995   6.168  0.2261 -0.1500 -0.3067
  167SAPE   O1118801   4.237   0.891   6.300 -0.3436  0.3076  0.0061
  167SAPE    C118802   4.293   0.837   6.422  0.3089  0.4600 -0.0070
  167SAPE    HA18803   4.254   0.735   6.441 -0.8932  0.6264 -1.5109
  167SAPE    HB18804   4.403   0.824   6.410  0.1578 -0.2394 -0.6443
  167SAPE    C218805   4.280   0.924   6.553  0.3563  0.1778 -0.2781
  167SAPE    HS18806   4.324   0.870   6.639 -1.7791 -0.0525  0.7104
  167SAPE   O2118807   4.139   0.947   6.583 -0.6504 -0.0970  0.1654
  167SAPE   C2118808   4.065   0.850   6.630  0.1616 -0.2932 -0.6217
  167SAPE   O2218809   4.104   0.738   6.657 -0.0368  0.8374 -0.1363
  167SAPE   C2218810   3.933   0.899   6.673 -0.7931 -0.0251 -0.0982
  167SAPE   H2R18811   3.955   0.985   6.741 -1.7408  0.2234 -0.1010
  167SAPE   H2S18812   3.883   0.938   6.582 -1.0295 -1.2016 -0.4708
  167SAPE    C318813   4.357   1.060   6.541  0.4243 -0.8794  0.4327
  167SAPE    HX18814   4.308   1.112   6.456 -1.2519  1.0919  2.5470
  167SAPE    HY18815   4.464   1.047   6.514  1.5834  0.8664  3.8368
  167SAPE   O3118816   4.371   1.132   6.667  0.4580  0.2453 -0.0319
  167SAPE   C3118817   4.281   1.234   6.686 -0.5388  1.1652  0.0436
  167SAPE   O3218818   4.197   1.260   6.606  0.4783 -0.2630 -0.2742
  167SAPE   C3218819   4.302   1.283   6.820  0.0684 -0.0696  0.1443
  167SAPE   H2X18820   4.243   1.375   6.838 -1.6379 -1.6575  3.1472
  167SAPE   H2Y18821   4.408   1.313   6.831  0.4618 -1.3472 -0.0180
  167SAPE   C2318822   3.848   0.801   6.752  0.1598  0.4636 -0.5234
  167SAPE   H3R18823   3.895   0.783   6.851  1.7767 -1.6793 -1.6413
  167SAPE   H3S18824   3.861   0.704   6.699 -2.9914 -0.0880 -0.3856
  167SAPE   C2418825   3.697   0.839   6.762 -0.9179 -0.5785 -0.1595
  167SAPE   H4R18826   3.657   0.837   6.658 -2.0726 -0.8691  0.2818
  167SAPE   H4S18827   3.685   0.944   6.795  1.3889 -0.3486  0.0280
  167SAPE   C2518828   3.636   0.730   6.841  0.7721  0.6055  0.2186
  167SAPE   H5R18829   3.625   0.637   6.783  2.5041  1.1385 -0.9820
  167SAPE   C2618830   3.605   0.716   6.968  0.4611  1.0401 -0.2522
  167SAPE   H6R18831   3.567   0.618   6.999  1.5755  0.6728 -0.0002
  167SAPE   C2718832   3.623   0.816   7.081 -0.3175  0.1371  0.0935
  167SAPE   H7R18833   3.701   0.892   7.059  0.1353 -0.6854 -1.2355
  167SAPE   H7S18834   3.662   0.764   7.171  1.1009 -1.4340 -1.3790
  167SAPE   C2818835   3.494   0.885   7.104  0.3160  0.2216 -0.3883
  167SAPE   H8R18836   3.429   0.890   7.015 -1.7201  0.1795  1.0542
  167SAPE   C2918837   3.456   0.937   7.223  0.0859  0.5658 -0.5075
  167SAPE   H9R18838   3.361   0.991   7.230  0.0717  0.4942 -0.1589
  167SAPE  C21018839   3.536   0.940   7.357 -0.1860  0.2469 -0.2431
  167SAPE  H10R18840   3.646   0.953   7.349  0.0827 -0.5293  1.7980
  167SAPE  H10S18841   3.535   0.839   7.403 -4.5109 -0.2292 -1.1717
  167SAPE  C21118842   3.479   1.046   7.449  0.2182 -0.3883 -0.4961
  167SAPE  H11R18843   3.471   1.148   7.409  1.4225 -0.1530 -0.1619
  167SAPE  C21218844   3.437   1.028   7.576 -0.1322  0.9547 -0.6054
  167SAPE  H12R18845   3.397   1.114   7.633  3.4975  1.8628  0.6869
  167SAPE  C21318846   3.445   0.897   7.653 -0.5401  0.1540  0.6550
  167SAPE  H13R18847   3.461   0.814   7.581  3.0118  0.6599  0.7902
  167SAPE  H13S18848   3.349   0.880   7.707 -1.2448 -0.4268 -0.7443
  167SAPE  C21418849   3.559   0.893   7.751 -0.0639 -0.0891 -0.2453
  167SAPE  H14R18850   3.653   0.902   7.696 -0.6744 -1.8177 -1.6377
  167SAPE  C21518851   3.573   0.872   7.880 -0.2973  0.0798 -0.4592
  167SAPE  H15R18852   3.671   0.891   7.926  0.3047  0.9336 -2.0454
  167SAPE  C21618853   3.470   0.824   7.981  0.2649 -0.7628  0.0467
  167SAPE  H16R18854   3.369   0.812   7.935  0.2292 -1.8833  0.3929
  167SAPE  H16S18855   3.456   0.902   8.059  0.9322 -1.3251  0.7382
  167SAPE  C21718856   3.499   0.687   8.035  0.2945 -0.2903 -0.0103
  167SAPE  H17R18857   3.606   0.662   8.049  0.3413 -1.0218 -1.6309
  167SAPE  H17S18858   3.474   0.618   7.951 -1.3160 -0.7112  0.7831
  167SAPE  C21818859   3.408   0.638   8.156 -0.4037  0.1896  0.0636
  167SAPE  H18R18860   3.441   0.536   8.186 -1.4826 -0.4700 -0.9425
  167SAPE  H18S18861   3.305   0.614   8.123  0.1643  0.0707 -1.7250
  167SAPE  C21918862   3.417   0.728   8.279  0.5859 -0.8771  0.1896
  167SAPE  H19R18863   3.394   0.836   8.265  2.0779 -0.4351  1.0005
  167SAPE  H19S18864   3.526   0.728   8.304  1.4015  2.1893 -2.8517
  167SAPE  C22018865   3.339   0.668   8.402  0.5007 -0.3496  0.0172
  167SAPE  H20R18866   3.236   0.646   8.369  0.1700  0.6271  0.3903
  167SAPE  H20S18867   3.331   0.742   8.484  1.3072  0.4796 -0.6383
  167SAPE  H20T18868   3.393   0.577   8.437  4.2036  0.9422 -1.9521
  167SAPE   C3318869   4.253   1.178   6.931 -0.1515  0.1603  0.2570
  167SAPE   H3X18870   4.289   1.210   7.031  0.6651  1.5133 -0.4633
  167SAPE   H3Y18871   4.292   1.078   6.903  4.3264  1.4277  1.4960
  167SAPE   C3418872   4.103   1.179   6.926  1.0015  0.4901  0.4132
  167SAPE   H4X18873   4.086   1.166   6.817  0.2103  0.3310  0.5562
  167SAPE   H4Y18874   4.064   1.282   6.944 -1.0002 -0.3112  0.8290
  167SAPE   C3518875   4.034   1.071   7.012 -0.3621  0.5540 -0.4706
  167SAPE   H5X18876   4.082   0.974   6.987 -0.4695  0.6485 -1.0355
  167SAPE   H5Y18877   3.926   1.072   6.984 -0.8442 -0.0906  1.2743
  167SAPE   C3618878   4.046   1.089   7.168 -0.2922 -0.3355  0.2467
  167SAPE   H6X18879   4.137   1.149   7.188  1.0808 -1.0697 -3.4270
  167SAPE   H6Y18880   4.067   0.985   7.201  2.8876 -1.0983 -3.7648
  167SAPE   C3718881   3.926   1.154   7.247 -0.6311  0.3840  0.2425
  167SAPE   H7X18882   3.837   1.095   7.219  1.1413 -2.4148  0.2489
  167SAPE   H7Y18883   3.906   1.257   7.210 -0.6215  0.2572 -0.1070
  167SAPE   C3818884   3.956   1.152   7.398  0.2911  0.3187 -0.4251
  167SAPE   H8X18885   4.056   1.200   7.406 -0.4354  1.8414 -0.2863
  167SAPE   H8Y18886   3.961   1.049   7.440 -2.0356  0.4643  0.2412
  167SAPE   C3918887   3.862   1.246   7.469  0.3710  0.0441  0.5133
  167SAPE   H9X18888   3.755   1.218   7.452  0.4024  1.0987 -1.5389
  167SAPE   H9Y18889   3.883   1.344   7.421  1.6712 -0.7232 -0.5331
  167SAPE  C31018890   3.884   1.263   7.618  0.7943  0.4458 -0.0175
  167SAPE  H10X18891   3.831   1.356   7.647  0.5765 -0.0280  1.1691
  167SAPE  H10Y18892   3.985   1.293   7.652  0.2268  1.3688  0.8943
  167SAPE  C31118893   3.814   1.158   7.702  0.5661 -0.7557 -0.8060
  167SAPE  H11X18894   3.845   1.054   7.678  3.1939 -0.4990  1.1773
  167SAPE  H11Y18895   3.707   1.159   7.672  0.0762  0.6891  0.8679
  167SAPE  C31218896   3.831   1.173   7.858  0.1478 -0.2681  1.1451
  167SAPE  H12X18897   3.784   1.092   7.919  0.6887  0.3254  2.3806
  167SAPE  H12Y18898   3.790   1.275   7.878  3.0244  0.5997  2.9383
  167SAPE  C31318899   3.983   1.172   7.892  0.5170 -0.0149  0.1654
  167SAPE  H13X18900   4.040   1.258   7.852  2.0982 -0.3382  1.6534
  167SAPE  H13Y18901   4.034   1.084   7.848 -1.8748 -0.2758 -2.2056
  167SAPE  C31418902   4.004   1.190   8.040 -0.4600 -0.2792 -0.3265
  167SAPE  H14X18903   3.964   1.096   8.084 -0.2055 -0.7005 -0.9931
  167SAPE  H14Y18904   3.954   1.282   8.078 -4.4715 -1.5731 -2.1585
  167SAPE  C31518905   4.150   1.210   8.095 -0.5959  0.3319  0.0109
  167SAPE  H15X18906   4.188   1.301   8.043  0.4433 -0.1000 -0.0082
  167SAPE  H15Y18907   4.211   1.125   8.056 -1.2786 -1.2623  2.3629
  167SAPE  C31618908   4.159   1.228   8.248 -0.5752  0.3911  0.6134
  167SAPE  H16X18909   4.106   1.143   8.295  0.5002 -0.9090 -0.4843
  167SAPE  H16Y18910   4.102   1.316   8.285  0.2695  2.3452 -2.4578
  167SAPE  C31718911   4.300   1.235   8.290 -0.3756 -0.4588 -0.5347
  167SAPE  H17X18912   4.329   1.335   8.252 -1.2939 -0.7356 -1.9917
  167SAPE  H17Y18913   4.362   1.153   8.247 -0.2756 -1.1833  0.9253
  167SAPE  C31818914   4.322   1.233   8.443 -0.4248  0.0447  0.2266
  167SAPE  H18X18915   4.251   1.297   8.499 -1.3622 -0.8539  0.0640
  167SAPE  H18Y18916   4.427   1.267   8.454 -0.9927  1.4597  1.3958
  167SAPE  H18Z18917   4.298   1.136   8.489  1.7312 -0.2369  0.8313
  168SAPE     N18918   6.069   2.258   6.277  1.1303  0.4620  0.0568
  168SAPE   HN118919   6.125   2.186   6.227  0.2408  0.3293 -0.7714
  168SAPE   HN218920   6.124   2.278   6.363  1.2729  0.4771 -0.0367
  168SAPE   HN318921   5.985   2.202   6.302  1.0059  0.1677 -0.9948
  168SAPE   C1218922   6.025   2.385   6.218  0.6378  0.3080 -0.0447
  168SAPE  H12A18923   6.001   2.364   6.112  0.2478  1.7282 -0.2467
  168SAPE  H12B18924   6.109   2.457   6.211  0.8880 -0.1175 -1.4382
  168SAPE   C1118925   5.894   2.439   6.286  0.1071 -0.4877  0.2127
  168SAPE  H11A18926   5.818   2.364   6.257 -0.6073  0.4793 -0.4426
  168SAPE  H11B18927   5.875   2.540   6.242 -0.0827  0.3108  2.0686
  168SAPE     P18928   5.862   2.564   6.498 -0.0052 -0.7858 -0.1990
  168SAPE   O1318929   5.965   2.665   6.463  0.1555  0.2477  0.0473
  168SAPE   O1418930   5.724   2.601   6.466 -0.1993  1.2281 -0.0163
  168SAPE   O1218931   5.896   2.439   6.429  0.3395  0.3612 -0.6521
  168SAPE   O1118932   5.879   2.529   6.658  0.1913  0.0756 -0.1131
  168SAPE    C118933   5.877   2.385   6.681  0.0900 -0.0663 -0.2883
  168SAPE    HA18934   5.783   2.328   6.663  0.2610 -1.3995  2.6725
  168SAPE    HB18935   5.973   2.338   6.648 -0.5313 -1.8590  0.3793
  168SAPE    C218936   5.884   2.356   6.837  0.2296 -0.1744  0.4340
  168SAPE    HS18937   5.846   2.252   6.838 -2.0079  0.6039 -0.8799
  168SAPE   O2118938   5.803   2.454   6.904  0.4201 -0.0915 -0.1826
  168SAPE   C2118939   5.672   2.428   6.893 -0.3726 -0.2289  0.6508
  168SAPE   O2218940   5.619   2.334   6.838  0.3500  0.6278 -1.4195
  168SAPE   C2218941   5.595   2.541   6.964  0.0313  0.6168 -0.2619
  168SAPE   H2R18942   5.652   2.636   6.959  2.2899 -0.7445 -1.2333
  168SAPE   H2S18943   5.499   2.551   6.910 -1.2871  3.6144  2.5574
  168SAPE    C318944   6.029   2.360   6.890  0.0633  0.2934  0.2226
  168SAPE    HX18945   6.073   2.462   6.884 -3.0375  1.9165  2.9131
  168SAPE    HY18946   6.086   2.286   6.830 -0.8022  0.4977 -0.8870
  168SAPE   O3118947   6.029   2.326   7.028 -0.2778  0.4594  0.3123
  168SAPE   C3118948   6.030   2.425   7.119 -0.0321 -0.7244  0.6404
  168SAPE   O3218949   6.050   2.543   7.089 -0.7827  0.1352 -0.3243
  168SAPE   C3218950   6.005   2.372   7.255 -0.5068 -0.0142 -0.2566
  168SAPE   H2X18951   6.080   2.292   7.275 -1.9529 -0.6639  2.7640
  168SAPE   H2Y18952   5.906   2.324   7.245 -1.1791  1.0694  1.0433
  168SAPE   C2318953   5.553   2.506   7.106  0.7689  0.3341  0.1051
  168SAPE   H3R18954   5.633   2.508   7.183 -0.2857  0.1766  1.2089
  168SAPE   H3S18955   5.516   2.402   7.111 -0.1101  0.6721  0.7787
  168SAPE   C2418956   5.455   2.605   7.163  0.5126 -0.8388  0.0603
  168SAPE   H4R18957   5.485   2.707   7.132 -0.5583 -0.7197 -0.6199
  168SAPE   H4S18958   5.450   2.596   7.273  0.7240  5.1970  0.7030
  168SAPE   C2518959   5.321   2.582   7.094  0.0455 -0.5966 -0.8353
  168SAPE   H5R18960   5.322   2.614   6.988 -0.0980 -1.7836 -1.2005
  168SAPE   C2618961   5.199   2.565   7.147  0.1262  1.2096  0.0466
  168SAPE   H6R18962   5.114   2.547   7.080  0.7582 -0.0269 -0.4394
  168SAPE   C2718963   5.140   2.544   7.287  0.0664 -0.0622  0.3858
  168SAPE   H7R18964   5.219   2.490   7.343  2.3065  0.8672 -1.7763
  168SAPE   H7S18965   5.057   2.470   7.284 -0.1029  0.1399 -0.0082
  168SAPE   C2818966   5.107   2.673   7.349 -0.0903 -0.6747 -0.1485
  168SAPE   H8R18967   5.174   2.699   7.432 -3.2613  0.3763  2.1835
  168SAPE   C2918968   5.005   2.765   7.342 -0.7096  0.5834 -0.2721
  168SAPE   H9R18969   5.014   2.856   7.403 -0.0288 -0.6858  1.5413
  168SAPE  C21018970   4.873   2.753   7.264 -1.7282  0.2860 -0.4917
  168SAPE  H10R18971   4.826   2.656   7.291  0.0328 -0.5557 -0.3209
  168SAPE  H10S18972   4.904   2.743   7.158 -0.1192  2.7901 -0.3135
  168SAPE  C21118973   4.778   2.861   7.293 -0.0072  0.1921  0.1913
  168SAPE  H11R18974   4.779   2.942   7.219 -0.2919 -0.6447 -0.7304
  168SAPE  C21218975   4.702   2.877   7.401  0.0022  0.2864  0.4610
  168SAPE  H12R18976   4.631   2.961   7.411 -0.5997 -0.3474  1.6928
  168SAPE  C21318977   4.700   2.781   7.511  0.2059  0.0637 -0.6629
  168SAPE  H13R18978   4.780   2.705   7.507 -0.8982 -1.1821  0.2753
  168SAPE  H13S18979   4.596   2.740   7.511 -0.4397  1.6581 -0.2025
  168SAPE  C21418980   4.717   2.865   7.639  0.3267  0.2762  0.3546
  168SAPE  H14R18981   4.791   2.946   7.628  1.8235 -1.1400 -0.2986
  168SAPE  C21518982   4.657   2.847   7.756  0.9151 -0.2853 -0.1136
  168SAPE  H15R18983   4.680   2.916   7.839 -1.1959 -0.0054  0.2732
  168SAPE  C21618984   4.554   2.741   7.779 -0.0512  0.2725  0.1317
  168SAPE  H16R18985   4.552   2.664   7.699  3.2198 -0.3234  0.5531
  168SAPE  H16S18986   4.457   2.789   7.804 -0.4006 -0.5014  0.2748
  168SAPE  C21718987   4.597   2.673   7.913  0.2836  0.3969 -0.2996
  168SAPE  H17R18988   4.590   2.737   8.004 -1.5148 -0.5594  0.2612
  168SAPE  H17S18989   4.706   2.652   7.920  0.0402 -0.2820  1.9245
  168SAPE  C21818990   4.509   2.546   7.938 -0.1025  0.2355 -0.3363
  168SAPE  H18R18991   4.514   2.474   7.853  0.2411  0.7348 -0.7457
  168SAPE  H18S18992   4.404   2.582   7.948  0.2193  1.3315 -0.8223
  168SAPE  C21918993   4.539   2.462   8.066 -0.1172 -0.4221 -0.1673
  168SAPE  H19R18994   4.468   2.376   8.065  1.2747 -1.5911  0.1914
  168SAPE  H19S18995   4.515   2.533   8.148  0.3492 -1.4394  0.8567
  168SAPE  C22018996   4.671   2.396   8.076  0.0641 -0.2428 -0.5207
  168SAPE  H20R18997   4.679   2.313   8.003 -1.6065  0.7138 -1.8180
  168SAPE  H20S18998   4.692   2.354   8.177 -0.6103 -0.3595 -0.4273
  168SAPE  H20T18999   4.757   2.465   8.059  2.5431 -2.7471  1.3460
  168SAPE   C3319000   6.005   2.469   7.384  0.2338 -0.2766  0.3177
  168SAPE   H3X19001   5.933   2.551   7.366 -0.8565 -1.4527 -0.7644
  168SAPE   H3Y19002   6.110   2.505   7.383  0.3639 -0.6555 -0.1136
  168SAPE   C3419003   5.938   2.414   7.518 -0.5377  0.2768  0.4852
  168SAPE   H4X19004   5.976   2.311   7.534 -0.1288  0.4290  0.4865
  168SAPE   H4Y19005   5.827   2.416   7.514 -0.5646 -2.0922 -4.6974
  168SAPE   C3519006   5.984   2.500   7.636  0.5796 -0.1868  0.7647
  168SAPE   H5X19007   5.961   2.602   7.598  0.2105 -1.3632 -2.3578
  168SAPE   H5Y19008   6.094   2.502   7.651  0.7706  2.3473 -0.7597
  168SAPE   C3619009   5.907   2.488   7.773 -0.3916  0.2946 -0.1988
  168SAPE   H6X19010   5.920   2.386   7.814 -1.7941  0.5429  0.9036
  168SAPE   H6Y19011   5.799   2.500   7.753  0.1860  3.1659 -1.8563
  168SAPE   C3719012   5.939   2.585   7.886 -0.3960  0.0866  0.4722
  168SAPE   H7X19013   5.891   2.679   7.850  1.3759  0.3058 -1.3877
  168SAPE   H7Y19014   6.049   2.592   7.895 -0.4687  1.1716  0.5546
  168SAPE   C3819015   5.857   2.552   8.009 -0.3744  0.3208  1.3215
  168SAPE   H8X19016   5.884   2.445   8.027  0.9874  0.4494  0.0749
  168SAPE   H8Y19017   5.748   2.552   7.989 -0.5035 -0.0604  1.9936
  168SAPE   C3919018   5.873   2.644   8.126 -0.3638  0.0184  0.7531
  168SAPE   H9X19019   5.811   2.728   8.086  1.2710  0.1537 -1.6076
  168SAPE   H9Y19020   5.973   2.690   8.145 -1.6760  3.2928  0.2038
  168SAPE  C31019021   5.825   2.594   8.264 -0.2085 -0.3916  0.2266
  168SAPE  H10X19022   5.874   2.496   8.286  1.9614  0.9389  1.6007
  168SAPE  H10Y19023   5.715   2.595   8.272 -0.2070  1.3548  0.1944
  168SAPE  C31119024   5.866   2.691   8.373  0.0381 -0.2889 -0.2592
  168SAPE  H11X19025   5.862   2.795   8.333 -0.3366 -0.3672 -0.4252
  168SAPE  H11Y19026   5.974   2.676   8.390 -0.7542 -2.5625  3.2397
  168SAPE  C31219027   5.795   2.682   8.510  0.6760 -0.3658 -0.1250
  168SAPE  H12X19028   5.820   2.584   8.556  3.3738  1.4364  2.4347
  168SAPE  H12Y19029   5.684   2.676   8.500  0.7706  0.0088 -1.5771
  168SAPE  C31319030   5.839   2.797   8.603  0.0881  0.2926  0.6478
  168SAPE  H13X19031   5.783   2.887   8.570 -0.3309 -0.5574 -1.0510
  168SAPE  H13Y19032   5.949   2.811   8.595 -0.0403  0.1786 -1.8808
  168SAPE  C31419033   5.804   2.757   8.743 -0.0374 -0.4537  0.0600
  168SAPE  H14X19034   5.857   2.666   8.778 -1.2762 -0.3605  2.2659
  168SAPE  H14Y19035   5.694   2.740   8.752  0.0367 -1.0015 -0.0714
  168SAPE  C31519036   5.833   2.868   8.845  0.3908 -0.2302 -0.5466
  168SAPE  H15X19037   5.754   2.947   8.841  1.0015  0.3788 -0.7219
  168SAPE  H15Y19038   5.926   2.916   8.807  0.0339  3.5386  3.0005
  168SAPE  C31619039   5.857   2.829   8.988 -0.0109 -0.2519 -1.1946
  168SAPE  H16X19040   5.882   2.916   9.053 -1.4750 -1.2116  0.7451
  168SAPE  H16Y19041   5.954   2.776   8.981  1.1316  1.7529 -0.7249
  168SAPE  C31719042   5.743   2.754   9.057 -0.4745  0.3575  0.4564
  168SAPE  H17X19043   5.780   2.718   9.155 -0.2069  0.2281  0.3060
  168SAPE  H17Y19044   5.726   2.667   8.991 -1.8271 -0.4072  1.7800
  168SAPE  C31819045   5.612   2.834   9.074 -0.0066 -0.1012 -0.0605
  168SAPE  H18X19046   5.568   2.853   8.973  1.3253  1.1040 -0.4422
  168SAPE  H18Y19047   5.627   2.926   9.134  1.1379 -0.4457  0.1937
  168SAPE  H18Z19048   5.536   2.782   9.136 -0.1948  0.2259 -0.0189
  169SAPE     N19049   4.438   4.163   6.301  1.3729 -0.4370 -0.0066
  169SAPE   HN119050   4.469   4.262   6.291  1.3105 -0.3577  0.5772
  169SAPE   HN219051   4.525   4.106   6.309  1.3288 -0.3684  0.9929
  169SAPE   HN319052   4.388   4.130   6.216  1.5409 -0.3320 -0.1475
  169SAPE   C1219053   4.356   4.136   6.429 -0.4664 -0.3810 -0.6940
  169SAPE  H12A19054   4.415   4.176   6.514  0.7627 -2.4132 -0.5545
  169SAPE  H12B19055   4.332   4.029   6.445 -1.0094  0.0131  1.2663
  169SAPE   C1119056   4.223   4.214   6.421 -0.1187  0.5280  0.0785
  169SAPE  H11A19057   4.167   4.180   6.511  1.0229  1.9804  1.3800
  169SAPE  H11B19058   4.169   4.187   6.328  0.7802 -2.0786  0.2739
  169SAPE     P19059   4.128   4.458   6.398 -0.0568 -0.2705 -0.0659
  169SAPE   O1319060   4.168   4.584   6.473 -0.1992  0.0811  0.2337
  169SAPE   O1419061   4.106   4.479   6.253  0.0536  0.3802  0.2885
  169SAPE   O1219062   4.241   4.356   6.428  0.4455 -0.3695  0.5167
  169SAPE   O1119063   4.006   4.391   6.473 -0.0120 -0.0386 -0.4782
  169SAPE    C119064   4.023   4.374   6.617  0.1482  0.0715 -0.3862
  169SAPE    HA19065   3.967   4.282   6.645  0.3511 -0.4771 -1.7311
  169SAPE    HB19066   4.126   4.357   6.655  0.5021  0.1278 -1.3112
  169SAPE    C219067   3.971   4.498   6.699  0.4192 -0.6958 -0.7292
  169SAPE    HS19068   4.038   4.581   6.668 -1.2860  1.2274  0.5418
  169SAPE   O2119069   3.960   4.465   6.834  0.4165  0.2133  0.0159
  169SAPE   C2119070   3.959   4.567   6.920 -0.4070 -0.5213  0.3919
  169SAPE   O2219071   3.982   4.681   6.885 -0.3422  0.3694  0.4521
  169SAPE   C2219072   3.936   4.523   7.065  0.2330  0.2617 -0.6060
  169SAPE   H2R19073   3.834   4.485   7.086  0.4064  0.9122  1.6146
  169SAPE   H2S19074   4.009   4.443   7.091 -1.8888 -0.8620  2.2199
  169SAPE    C319075   3.827   4.547   6.651 -0.1808 -0.1954 -0.5844
  169SAPE    HX19076   3.842   4.571   6.544 -1.7973  0.5064 -0.6604
  169SAPE    HY19077   3.797   4.643   6.698  1.6714 -0.2189  0.7068
  169SAPE   O3119078   3.726   4.442   6.671 -0.1875 -0.6345 -0.5205
  169SAPE   C3119079   3.667   4.447   6.789 -0.0697 -1.1215  0.1750
  169SAPE   O3219080   3.692   4.521   6.884  0.0243  0.8218 -0.3514
  169SAPE   C3219081   3.546   4.350   6.776  0.2446 -0.0121  0.7278
  169SAPE   H2X19082   3.592   4.268   6.716  0.3705  0.3056  0.3872
  169SAPE   H2Y19083   3.475   4.410   6.715  0.4124  1.7488  2.2231
  169SAPE   C2319084   3.950   4.640   7.161  0.4757  0.4424  0.1310
  169SAPE   H3R19085   3.872   4.718   7.147  0.2447  0.3828  1.0529
  169SAPE   H3S19086   4.049   4.689   7.148  1.2111 -0.6978  1.2896
  169SAPE   C2419087   3.930   4.590   7.302 -0.7028  0.1501  0.4829
  169SAPE   H4R19088   3.829   4.546   7.322 -0.2690 -0.4474  1.4056
  169SAPE   H4S19089   3.935   4.679   7.369 -2.0035  0.8279 -0.2862
  169SAPE   C2519090   4.037   4.491   7.351 -0.5518  0.1867 -0.6433
  169SAPE   H5R19091   4.000   4.388   7.357  0.1832 -0.1481 -1.8447
  169SAPE   C2619092   4.164   4.510   7.388 -0.0924  0.2797 -0.0761
  169SAPE   H6R19093   4.228   4.422   7.406  0.8403  1.4396  2.4536
  169SAPE   C2719094   4.232   4.645   7.405  0.5795 -0.2645  0.4778
  169SAPE   H7R19095   4.180   4.712   7.478  3.1991  3.1444 -0.6811
  169SAPE   H7S19096   4.216   4.707   7.314 -0.6665  0.5130  1.2120
  169SAPE   C2819097   4.382   4.629   7.440  0.3823  0.3709 -0.1775
  169SAPE   H8R19098   4.449   4.629   7.353 -1.6500  0.5676 -1.7896
  169SAPE   C2919099   4.436   4.593   7.562 -0.3806  0.0624  0.7869
  169SAPE   H9R19100   4.545   4.589   7.580  0.0709  3.2241 -0.8186
  169SAPE  C21019101   4.349   4.570   7.683 -0.2765 -0.1745 -0.1575
  169SAPE  H10R19102   4.250   4.526   7.657 -0.5428  0.8718 -0.9756
  169SAPE  H10S19103   4.328   4.669   7.730  1.2576 -0.7586  1.8207
  169SAPE  C21119104   4.402   4.488   7.797 -0.1670 -0.1263 -0.3670
  169SAPE  H11R19105   4.459   4.399   7.770  0.6182 -0.0188  0.8882
  169SAPE  C21219106   4.401   4.521   7.930 -0.5389  0.0524  0.1913
  169SAPE  H12R19107   4.461   4.461   8.000 -2.1497 -2.0387 -0.1716
  169SAPE  C21319108   4.346   4.645   7.991  0.2147  0.1916 -0.4370
  169SAPE  H13R19109   4.267   4.620   8.064 -0.1707  1.6455 -0.3507
  169SAPE  H13S19110   4.288   4.712   7.923 -2.5600 -0.1907  1.4969
  169SAPE  C21419111   4.439   4.733   8.077  0.7736 -0.4034 -0.4981
  169SAPE  H14R19112   4.504   4.794   8.013  0.9929 -0.5858 -0.4489
  169SAPE  C21519113   4.450   4.743   8.212 -0.2013  0.2895 -0.4021
  169SAPE  H15R19114   4.527   4.811   8.251 -0.3687  0.2558 -0.0087
  169SAPE  C21619115   4.362   4.680   8.316  0.3483 -0.1586 -0.2886
  169SAPE  H16R19116   4.304   4.602   8.261 -1.7579  2.3729 -1.7943
  169SAPE  H16S19117   4.304   4.767   8.354  1.0824  0.1687  0.0941
  169SAPE  C21719118   4.435   4.623   8.435 -0.2332 -0.1956 -0.6275
  169SAPE  H17R19119   4.502   4.536   8.417 -1.0366 -0.4757 -2.3791
  169SAPE  H17S19120   4.366   4.591   8.516 -0.6991 -0.7151 -1.2233
  169SAPE  C21819121   4.513   4.727   8.509  0.1740  0.1369 -0.2441
  169SAPE  H18R19122   4.447   4.793   8.570  1.2948  1.5573 -0.5512
  169SAPE  H18S19123   4.563   4.802   8.444  0.7150  0.7279  0.8455
  169SAPE  C21919124   4.609   4.666   8.610 -0.6674  0.0851  0.2162
  169SAPE  H19R19125   4.686   4.622   8.542 -1.1846 -0.6352  0.0888
  169SAPE  H19S19126   4.563   4.582   8.667 -0.5950 -1.3953 -1.8300
  169SAPE  C22019127   4.679   4.758   8.713  0.0850  0.4921 -0.6902
  169SAPE  H20R19128   4.605   4.809   8.779  0.8809  0.1798  0.4649
  169SAPE  H20S19129   4.731   4.838   8.657 -0.6171  0.6658 -1.0950
  169SAPE  H20T19130   4.753   4.703   8.775 -0.9097 -0.8984 -0.6987
  169SAPE   C3319131   3.490   4.311   6.915 -0.1171  0.0547  0.0232
  169SAPE   H3X19132   3.393   4.259   6.902 -0.0968  0.3864 -1.5099
  169SAPE   H3Y19133   3.464   4.405   6.970  0.4650  1.9440 -2.8309
  169SAPE   C3419134   3.587   4.218   6.994  0.3835  1.6243  0.5059
  169SAPE   H4X19135   3.691   4.255   7.007  0.6442  0.6938  1.0944
  169SAPE   H4Y19136   3.603   4.129   6.930  0.6250  1.2350  1.1169
  169SAPE   C3519137   3.529   4.170   7.131  0.3948  0.5296  0.9108
  169SAPE   H5X19138   3.584   4.079   7.165 -1.4056 -0.0293  2.3905
  169SAPE   H5Y19139   3.429   4.124   7.116  1.6156 -2.2907  0.9638
  169SAPE   C3619140   3.548   4.275   7.248 -0.1112  0.0545  0.3967
  169SAPE   H6X19141   3.471   4.352   7.224 -2.1608 -1.9709  0.2734
  169SAPE   H6Y19142   3.648   4.320   7.235  1.0375 -2.5848 -0.3109
  169SAPE   C3719143   3.515   4.205   7.378 -0.0708 -0.5128  0.4219
  169SAPE   H7X19144   3.576   4.115   7.401 -0.3209 -0.7174  0.2877
  169SAPE   H7Y19145   3.411   4.169   7.363  0.2146 -1.4957  0.7520
  169SAPE   C3819146   3.550   4.301   7.490  0.0303 -0.0371 -0.0559
  169SAPE   H8X19147   3.476   4.383   7.490  1.2572  1.0888  1.4998
  169SAPE   H8Y19148   3.655   4.337   7.485  0.5137 -1.2539  1.0950
  169SAPE   C3919149   3.547   4.236   7.623 -0.3544  0.5552  0.1878
  169SAPE   H9X19150   3.597   4.137   7.626 -1.4625 -0.1073 -2.3267
  169SAPE   H9Y19151   3.441   4.219   7.649 -0.8038  1.0127 -1.2858
  169SAPE  C31019152   3.616   4.319   7.733  1.2147 -0.2488 -0.7726
  169SAPE  H10X19153   3.580   4.424   7.732 -1.7260 -1.1202  2.1655
  169SAPE  H10Y19154   3.726   4.312   7.724  1.5068 -0.9774  2.8279
  169SAPE  C31119155   3.580   4.264   7.874  0.5850 -1.4818 -0.0948
  169SAPE  H11X19156   3.473   4.240   7.891  1.0033 -0.6632  4.4170
  169SAPE  H11Y19157   3.616   4.344   7.942 -0.0815 -1.6179  0.4267
  169SAPE  C31219158   3.655   4.132   7.902  0.1833  0.3436 -0.6163
  169SAPE  H12X19159   3.756   4.177   7.913 -1.2147  3.4649  0.0051
  169SAPE  H12Y19160   3.668   4.057   7.821  1.9406 -1.4356  1.2441
  169SAPE  C31319161   3.612   4.072   8.026  0.0645  0.2903  0.0326
  169SAPE  H13X19162   3.576   4.137   8.108  2.5193  0.5708  0.9246
  169SAPE  H13Y19163   3.700   4.025   8.074 -0.9504  0.4444  2.0700
  169SAPE  C31419164   3.515   3.951   8.001 -0.9259 -0.1483  0.3185
  169SAPE  H14X19165   3.546   3.869   7.933 -0.3647 -0.5886  1.0913
  169SAPE  H14Y19166   3.425   3.997   7.954 -1.4076 -0.3970  0.9846
  169SAPE  C31519167   3.475   3.897   8.141 -0.0798  0.1036  0.7880
  169SAPE  H15X19168   3.402   3.816   8.123  0.7477 -0.8512  1.6778
  169SAPE  H15Y19169   3.437   3.981   8.203 -1.9641  1.2220 -1.7557
  169SAPE  C31619170   3.593   3.826   8.219 -0.5250  0.5937 -0.2186
  169SAPE  H16X19171   3.668   3.903   8.245 -1.6563  2.1360 -1.4650
  169SAPE  H16Y19172   3.641   3.755   8.148  1.7217  0.1692  1.6903
  169SAPE  C31719173   3.557   3.746   8.342 -0.1224 -0.2528 -0.2687
  169SAPE  H17X19174   3.466   3.685   8.322  0.5472 -0.6397 -2.2191
  169SAPE  H17Y19175   3.532   3.817   8.424 -0.9092  2.6989 -2.9549
  169SAPE  C31819176   3.677   3.660   8.380  0.6818 -0.7805 -0.2012
  169SAPE  H18X19177   3.667   3.596   8.470  0.0905 -0.3984  0.0049
  169SAPE  H18Y19178   3.774   3.716   8.376  0.9001 -0.8206  3.0840
  169SAPE  H18Z19179   3.691   3.587   8.298  0.7170  0.4692 -1.3161
  170SAPE     N19180   5.543   2.115   6.202 -0.4029  0.0412  0.2805
  170SAPE   HN119181   5.641   2.080   6.208  0.4482  2.2032 -0.4828
  170SAPE   HN219182   5.534   2.165   6.111  1.6170 -0.4266 -0.1974
  170SAPE   HN319183   5.518   2.186   6.274  0.4126 -0.6132  1.2199
  170SAPE   C1219184   5.461   1.988   6.211 -0.3920  0.0636  0.1404
  170SAPE  H12A19185   5.356   2.022   6.199 -0.5911 -0.2479  0.9642
  170SAPE  H12B19186   5.468   1.950   6.315 -2.8232 -1.4567 -0.2315
  170SAPE   C1119187   5.507   1.889   6.105  0.5298  0.0709 -0.6829
  170SAPE  H11A19188   5.496   1.924   6.000 -0.8221  1.2045 -0.1703
  170SAPE  H11B19189   5.437   1.802   6.103 -2.0946  2.1300 -0.7035
  170SAPE     P19190   5.688   1.706   6.110 -0.2215  0.3001  0.3305
  170SAPE   O1319191   5.633   1.644   5.988 -0.3134  0.0653  0.5525
  170SAPE   O1419192   5.834   1.704   6.134  0.3660  0.2650  0.1178
  170SAPE   O1219193   5.643   1.859   6.120  0.1133 -0.0937 -0.2772
  170SAPE   O1119194   5.613   1.653   6.234 -0.2517 -0.5115  0.0595
  170SAPE    C119195   5.681   1.677   6.361  0.5546 -0.6319 -0.4681
  170SAPE    HA19196   5.782   1.630   6.362 -0.5282 -3.0692 -1.4316
  170SAPE    HB19197   5.679   1.784   6.392  1.2985 -0.0638 -2.3414
  170SAPE    C219198   5.601   1.617   6.481  0.3792 -0.2014  0.5032
  170SAPE    HS19199   5.501   1.664   6.494  1.7560  3.1338 -0.2318
  170SAPE   O2119200   5.683   1.635   6.597 -0.6255 -0.0300 -0.0350
  170SAPE   C2119201   5.684   1.753   6.658  0.1913  0.6514  0.1715
  170SAPE   O2219202   5.615   1.848   6.613 -0.4956  0.3440 -0.7601
  170SAPE   C2219203   5.774   1.752   6.772 -0.5917  0.1382 -0.6513
  170SAPE   H2R19204   5.746   1.671   6.843  0.4460 -0.6795 -1.1484
  170SAPE   H2S19205   5.875   1.723   6.734 -0.8439 -0.9335 -0.5138
  170SAPE    C319206   5.576   1.466   6.456 -0.6827 -0.1102  0.4148
  170SAPE    HX19207   5.680   1.426   6.460 -0.8034 -0.8120 -2.2222
  170SAPE    HY19208   5.535   1.448   6.354  0.9369  0.0789 -0.2882
  170SAPE   O3119209   5.499   1.402   6.559 -0.3615 -0.2026  0.3006
  170SAPE   C3119210   5.363   1.426   6.553  0.6849 -0.0587 -0.1115
  170SAPE   O3219211   5.304   1.486   6.469  0.4996  0.5144 -0.0584
  170SAPE   C3219212   5.296   1.353   6.671  0.3801  0.1719  0.6656
  170SAPE   H2X19213   5.372   1.338   6.750  2.0052 -0.6171 -1.0041
  170SAPE   H2Y19214   5.262   1.254   6.633 -0.7266  0.9955 -0.5817
  170SAPE   C2319215   5.797   1.881   6.857  0.4935  0.0062 -0.6937
  170SAPE   H3R19216   5.815   1.972   6.797  2.0589 -0.4018 -0.8724
  170SAPE   H3S19217   5.889   1.867   6.917  0.3135 -0.5467 -0.5472
  170SAPE   C2419218   5.680   1.931   6.953 -0.2012  0.3174 -0.0153
  170SAPE   H4R19219   5.644   1.858   7.029  2.9081  0.4792  1.6927
  170SAPE   H4S19220   5.602   1.967   6.883 -0.5870  0.2050  0.3504
  170SAPE   C2519221   5.733   2.042   7.041 -0.8135 -0.3577  0.8373
  170SAPE   H5R19222   5.716   2.144   7.006  0.4134 -0.0680  1.0681
  170SAPE   C2619223   5.791   2.037   7.159  0.1376  0.0393 -0.4946
  170SAPE   H6R19224   5.824   2.130   7.209 -1.2828  0.1388  0.3074
  170SAPE   C2719225   5.833   1.916   7.242 -0.1129 -0.2360  0.0412
  170SAPE   H7R19226   5.902   1.957   7.319 -1.9978  0.1314  1.5660
  170SAPE   H7S19227   5.884   1.848   7.170 -1.0216 -0.1838 -0.6542
  170SAPE   C2819228   5.732   1.830   7.317  0.0993 -0.2711  0.1375
  170SAPE   H8R19229   5.672   1.768   7.249 -0.0581  3.5328 -3.4243
  170SAPE   C2919230   5.724   1.809   7.448  0.8104 -0.2956 -0.4377
  170SAPE   H9R19231   5.636   1.755   7.485 -0.1578  1.5922  0.0996
  170SAPE  C21019232   5.820   1.874   7.539 -1.6571 -0.2714 -0.3995
  170SAPE  H10R19233   5.824   1.984   7.524  0.0902 -0.2307  0.2332
  170SAPE  H10S19234   5.924   1.841   7.516 -1.2389  0.4060  0.4555
  170SAPE  C21119235   5.802   1.857   7.686 -0.0501  0.2029  0.0727
  170SAPE  H11R19236   5.700   1.831   7.716  0.6706 -1.7134  0.9504
  170SAPE  C21219237   5.895   1.878   7.779 -0.8426 -0.4623 -0.3403
  170SAPE  H12R19238   5.866   1.875   7.885 -1.3087  2.0706 -0.3451
  170SAPE  C21319239   6.040   1.924   7.755  1.0043 -0.3980  0.3504
  170SAPE  H13R19240   6.072   1.904   7.651 -1.3662  1.1558 -0.7407
  170SAPE  H13S19241   6.107   1.860   7.815 -0.4126 -2.2227  0.0080
  170SAPE  C21419242   6.046   2.074   7.778  0.1701 -0.3634 -0.1886
  170SAPE  H14R19243   5.973   2.133   7.719 -0.0273 -0.1000  0.3153
  170SAPE  C21519244   6.114   2.128   7.881  0.4590  0.3297  0.7290
  170SAPE  H15R19245   6.130   2.237   7.878  1.2914  0.1903 -0.2919
  170SAPE  C21619246   6.203   2.054   7.983 -0.1942  0.3715 -0.2406
  170SAPE  H16R19247   6.312   2.063   7.959  0.1924  0.0476  1.3314
  170SAPE  H16S19248   6.190   1.944   7.987  2.3626  0.0302 -0.5019
  170SAPE  C21719249   6.174   2.095   8.132  0.2358 -0.2860 -0.0584
  170SAPE  H17R19250   6.069   2.069   8.154 -0.0616 -0.2174 -1.3933
  170SAPE  H17S19251   6.184   2.205   8.145 -0.5454 -0.1026 -1.0145
  170SAPE  C21819252   6.261   2.027   8.236 -1.0594 -0.5521 -0.0302
  170SAPE  H18R19253   6.366   2.057   8.214 -0.8866 -3.2273 -3.4362
  170SAPE  H18S19254   6.259   1.918   8.215 -1.7673  0.0161 -3.3346
  170SAPE  C21919255   6.224   2.070   8.377  0.4360 -0.3213 -0.4152
  170SAPE  H19R19256   6.114   2.054   8.380  0.3762 -0.2981 -2.0663
  170SAPE  H19S19257   6.256   2.175   8.396 -1.1440  0.4919 -2.1231
  170SAPE  C22019258   6.268   1.983   8.493  0.1834 -0.0064  0.5829
  170SAPE  H20R19259   6.250   2.009   8.599  0.2703 -2.5823  1.2427
  170SAPE  H20S19260   6.376   1.961   8.484  0.2729  0.6828 -0.1171
  170SAPE  H20T19261   6.217   1.885   8.478 -0.6698  0.3177  1.2844
  170SAPE   C3319262   5.173   1.428   6.725  0.4996 -0.5292 -0.1957
  170SAPE   H3X19263   5.118   1.355   6.789 -0.2286 -0.1515 -0.3784
  170SAPE   H3Y19264   5.115   1.456   6.634  1.2545  1.6879 -0.0119
  170SAPE   C3419265   5.199   1.557   6.801  0.1492 -0.2144  0.1341
  170SAPE   H4X19266   5.113   1.577   6.869 -0.5726 -0.0681 -0.8198
  170SAPE   H4Y19267   5.213   1.639   6.728 -1.4880 -1.0562 -1.1453
  170SAPE   C3519268   5.331   1.549   6.879  0.0057 -0.2649  0.1774
  170SAPE   H5X19269   5.414   1.549   6.805 -0.1733  1.3136 -0.0400
  170SAPE   H5Y19270   5.330   1.462   6.949  0.9349 -0.4175 -0.0038
  170SAPE   C3619271   5.362   1.666   6.972  0.4967  1.2269 -0.3550
  170SAPE   H6X19272   5.335   1.761   6.922  1.1007  1.0390 -1.0363
  170SAPE   H6Y19273   5.470   1.668   6.996  0.1974 -0.7400  1.2709
  170SAPE   C3719274   5.288   1.649   7.108  0.4179  0.4108 -0.5576
  170SAPE   H7X19275   5.280   1.545   7.148  1.0729 -0.0156 -1.5195
  170SAPE   H7Y19276   5.192   1.693   7.073 -0.1958 -1.6641 -1.5545
  170SAPE   C3819277   5.347   1.753   7.204  0.3011  0.4152 -0.4843
  170SAPE   H8X19278   5.299   1.853   7.191 -1.4105 -0.0503  2.0016
  170SAPE   H8Y19279   5.455   1.767   7.184  0.6146  0.7046  1.3492
  170SAPE   C3919280   5.328   1.714   7.350 -0.2675  0.4405  0.5284
  170SAPE   H9X19281   5.420   1.677   7.400  0.3890  1.5979  0.1958
  170SAPE   H9Y19282   5.261   1.626   7.346 -0.2658  0.3937  1.3220
  170SAPE  C31019283   5.276   1.837   7.434 -0.3491  0.7202 -0.0392
  170SAPE  H10X19284   5.173   1.857   7.397  0.2497  2.1221 -0.9765
  170SAPE  H10Y19285   5.345   1.921   7.413  1.7635 -1.4547 -2.0994
  170SAPE  C31119286   5.275   1.797   7.584 -0.2133 -0.3974  0.5488
  170SAPE  H11X19287   5.351   1.718   7.605 -0.0603 -0.7544 -1.2636
  170SAPE  H11Y19288   5.182   1.739   7.604 -0.9718  1.2465  1.9712
  170SAPE  C31219289   5.287   1.917   7.684 -0.6037 -0.6554 -0.3663
  170SAPE  H12X19290   5.184   1.956   7.693 -0.8838 -1.3006 -0.7802
  170SAPE  H12Y19291   5.351   1.996   7.639 -0.4162  0.6317  2.0625
  170SAPE  C31319292   5.324   1.876   7.823 -0.9417  0.4424 -0.7908
  170SAPE  H13X19293   5.431   1.845   7.817 -1.1339 -0.5786  0.7586
  170SAPE  H13Y19294   5.269   1.786   7.856 -1.7058  1.3819  0.5583
  170SAPE  C31419295   5.294   1.982   7.930 -0.1796  0.2297 -0.0289
  170SAPE  H14X19296   5.184   1.997   7.927 -0.2737 -0.5585 -0.6753
  170SAPE  H14Y19297   5.332   2.083   7.903  0.3781  0.3872  1.3131
  170SAPE  C31519298   5.333   1.936   8.076 -0.0850 -0.8895 -0.1852
  170SAPE  H15X19299   5.440   1.907   8.080  0.0076 -0.6150 -0.6829
  170SAPE  H15Y19300   5.274   1.847   8.108 -2.1758  1.0544  1.4535
  170SAPE  C31619301   5.306   2.046   8.182  0.6926 -0.7708  0.3516
  170SAPE  H16X19302   5.199   2.074   8.169  0.4196 -2.3170 -0.8781
  170SAPE  H16Y19303   5.361   2.143   8.175 -0.0310 -0.3160  0.9232
  170SAPE  C31719304   5.338   2.006   8.325 -0.1837 -0.2632 -0.3435
  170SAPE  H17X19305   5.447   1.989   8.339 -0.2071 -0.1771 -0.0573
  170SAPE  H17Y19306   5.289   1.908   8.338  2.3006 -1.2744  1.8343
  170SAPE  C31819307   5.282   2.094   8.436 -0.2412 -0.2951 -0.1306
  170SAPE  H18X19308   5.317   2.199   8.431 -0.7739 -0.1540 -0.9648
  170SAPE  H18Y19309   5.319   2.057   8.534 -0.3817 -1.8992 -0.6714
  170SAPE  H18Z19310   5.171   2.104   8.434 -0.1022  1.2565 -3.6856
  171SAPE     N19311   0.458   2.362   6.047 -0.8078 -0.2446 -0.3345
  171SAPE   HN119312   0.431   2.280   5.988 -0.0747 -0.3751 -0.4863
  171SAPE   HN219313   0.523   2.421   5.992 -0.0070 -0.3122  0.5274
  171SAPE   HN319314   0.512   2.326   6.128  2.6706  0.7191 -2.1321
  171SAPE   C1219315   0.331   2.436   6.061 -0.4819 -0.1299 -0.3284
  171SAPE  H12A19316   0.293   2.473   5.964  2.1219  2.2088 -0.5239
  171SAPE  H12B19317   0.360   2.520   6.129 -1.2171 -0.5929  0.5808
  171SAPE   C1119318   0.214   2.353   6.124 -0.3304  0.0725  0.0115
  171SAPE  H11A19319   0.130   2.422   6.145  0.7400  2.6617 -3.7462
  171SAPE  H11B19320   0.253   2.302   6.215 -2.0485  0.1644  0.8071
  171SAPE     P19321   0.019   2.182   6.064  0.1947  0.2846 -0.0432
  171SAPE   O1319322  -0.086   2.267   5.998 -0.5135  0.0720  0.5071
  171SAPE   O1419323   0.026   2.041   6.018 -0.4301 -0.2968 -0.8960
  171SAPE   O1219324   0.159   2.245   6.041  0.2481  0.2131  0.2497
  171SAPE   O1119325  -0.008   2.185   6.217 -0.4783 -0.3753  0.4583
  171SAPE    C119326   0.074   2.105   6.308  0.3236  0.3046 -0.4252
  171SAPE    HA19327   0.021   2.010   6.332 -0.0577  0.6894  0.2713
  171SAPE    HB19328   0.173   2.081   6.264 -0.2519 -3.4961  0.1656
  171SAPE    C219329   0.094   2.179   6.440  0.7140  0.0450  0.4548
  171SAPE    HS19330  -0.003   2.171   6.493 -0.8783 -2.0013 -2.6399
  171SAPE   O2119331   0.159   2.310   6.417  0.4484  0.0183  0.0323
  171SAPE   C2119332   0.125   2.404   6.507  0.5669 -0.4944  0.8519
  171SAPE   O2219333   0.051   2.386   6.602  0.4810  0.0459  0.1329
  171SAPE   C2219334   0.189   2.542   6.470 -0.2584 -0.8004 -0.0122
  171SAPE   H2R19335   0.299   2.531   6.459 -0.1891 -2.4227  1.7841
  171SAPE   H2S19336   0.131   2.583   6.385  1.4430 -0.4052 -0.9930
  171SAPE    C319337   0.191   2.088   6.526 -0.5896 -0.3957 -0.1736
  171SAPE    HX19338   0.283   2.084   6.464 -0.5575  0.9866 -0.2434
  171SAPE    HY19339   0.149   1.985   6.530  1.5451 -1.2748 -0.0918
  171SAPE   O3119340   0.221   2.147   6.654 -0.9505  0.1888 -0.0525
  171SAPE   C3119341   0.131   2.125   6.752  0.7577  0.2010 -0.4117
  171SAPE   O3219342   0.023   2.078   6.735  0.2593 -0.1302  0.2035
  171SAPE   C3219343   0.198   2.155   6.882 -0.2191 -0.1921 -0.1419
  171SAPE   H2X19344   0.290   2.214   6.862  0.0527 -0.1046  1.2680
  171SAPE   H2Y19345   0.239   2.067   6.936  0.9483  0.4116 -0.0276
  171SAPE   C2319346   0.172   2.655   6.579 -0.8123 -0.1540 -0.1226
  171SAPE   H3R19347   0.073   2.637   6.626 -0.4953  1.0677  1.0276
  171SAPE   H3S19348   0.160   2.747   6.518  2.9376 -0.0469 -0.7911
  171SAPE   C2419349   0.284   2.665   6.679 -0.4271 -0.3627 -0.0073
  171SAPE   H4R19350   0.379   2.696   6.631  0.8949 -3.7173  0.2791
  171SAPE   H4S19351   0.280   2.558   6.709 -1.1479  0.1328  1.7573
  171SAPE   C2519352   0.241   2.765   6.788 -0.4248  0.1111 -0.7429
  171SAPE   H5R19353   0.248   2.872   6.765  0.6219  0.6654  1.9654
  171SAPE   C2619354   0.197   2.735   6.910  0.2074  0.1959 -0.2576
  171SAPE   H6R19355   0.181   2.813   6.986  2.0054 -1.4103  1.8395
  171SAPE   C2719356   0.178   2.598   6.971 -0.2362 -0.7287  0.2339
  171SAPE   H7R19357   0.214   2.516   6.906 -0.4778 -0.8915  0.3062
  171SAPE   H7S19358   0.070   2.578   6.984  0.0310 -3.2589 -1.1212
  171SAPE   C2819359   0.246   2.579   7.104  0.5165  0.2637 -0.2866
  171SAPE   H8R19360   0.343   2.529   7.102  1.7974  2.7069 -2.2525
  171SAPE   C2919361   0.197   2.624   7.220 -0.6082 -0.1318 -0.1301
  171SAPE   H9R19362   0.261   2.608   7.308 -0.3380  1.8634  0.0683
  171SAPE  C21019363   0.077   2.716   7.241 -0.1487 -0.0578 -0.2298
  171SAPE  H10R19364  -0.001   2.652   7.287  0.0122  0.0127  0.1387
  171SAPE  H10S19365   0.040   2.767   7.149 -2.8482  0.7034  1.2493
  171SAPE  C21119366   0.103   2.825   7.341 -0.3200 -0.1625 -0.1335
  171SAPE  H11R19367   0.208   2.852   7.362 -0.8048  1.5357  0.1453
  171SAPE  C21219368   0.017   2.889   7.420  1.4073  0.2401  0.0020
  171SAPE  H12R19369   0.060   2.959   7.494  0.2123 -1.7453  2.6826
  171SAPE  C21319370  -0.125   2.862   7.452 -0.7301  0.4716  0.8976
  171SAPE  H13R19371  -0.143   2.758   7.419  0.9743  0.7840 -1.1365
  171SAPE  H13S19372  -0.193   2.934   7.400 -1.3675 -0.1543  0.8582
  171SAPE  C21419373  -0.156   2.880   7.599  0.8384 -0.8535 -0.5199
  171SAPE  H14R19374  -0.213   2.972   7.619 -0.5877 -1.8185 -0.0601
  171SAPE  C21519375  -0.116   2.798   7.700  0.1465  0.2437 -0.2956
  171SAPE  H15R19376  -0.132   2.833   7.803  1.7799  2.7283 -0.8371
  171SAPE  C21619377  -0.033   2.676   7.695  0.0694 -0.1218  0.4677
  171SAPE  H16R19378  -0.012   2.665   7.587 -0.9558  0.1238  0.2456
  171SAPE  H16S19379  -0.095   2.589   7.724 -1.4157  0.9422  0.4888
  171SAPE  C21719380   0.106   2.669   7.779  0.2482 -0.0101  0.2553
  171SAPE  H17R19381   0.089   2.659   7.888 -0.1199 -0.6456  0.1396
  171SAPE  H17S19382   0.174   2.756   7.765 -0.0147  0.1810  0.1777
  171SAPE  C21819383   0.178   2.536   7.749  0.1387 -0.3892  1.0720
  171SAPE  H18R19384   0.139   2.438   7.785  0.0482 -1.4230 -1.7463
  171SAPE  H18S19385   0.277   2.542   7.797 -0.5562  0.1622  2.4734
  171SAPE  C21919386   0.203   2.531   7.595  0.0224 -0.1005 -0.1663
  171SAPE  H19R19387   0.239   2.629   7.558 -1.5591 -0.1500 -1.9574
  171SAPE  H19S19388   0.104   2.509   7.548 -0.1586  1.2516 -0.4356
  171SAPE  C22019389   0.305   2.418   7.559  0.0368 -0.3321 -0.4485
  171SAPE  H20R19390   0.400   2.463   7.594 -0.1597  0.4502 -0.9150
  171SAPE  H20S19391   0.305   2.408   7.448 -3.3093 -0.7045 -0.4812
  171SAPE  H20T19392   0.283   2.318   7.603  0.2102 -0.8854 -1.5981
  171SAPE   C3319393   0.105   2.236   6.977 -0.1852  0.6346 -0.4667
  171SAPE   H3X19394   0.005   2.187   6.980  0.1583 -0.0089  1.4655
  171SAPE   H3Y19395   0.084   2.342   6.954  2.0127  1.3456  0.6417
  171SAPE   C3419396   0.157   2.232   7.120  0.1030  0.5795 -0.7968
  171SAPE   H4X19397   0.139   2.332   7.165  0.5627  0.4431 -0.3050
  171SAPE   H4Y19398   0.268   2.224   7.126 -0.0769 -0.6656  1.8211
  171SAPE   C3519399   0.073   2.132   7.215  0.1439  0.1004 -0.3532
  171SAPE   H5X19400   0.078   2.026   7.182 -0.0925 -0.1421  0.3756
  171SAPE   H5Y19401  -0.032   2.167   7.203 -0.3961 -1.5917 -0.6765
  171SAPE   C3619402   0.115   2.136   7.367  0.0155  0.9055  0.1380
  171SAPE   H6X19403   0.028   2.179   7.421  0.3231  0.4744  0.9858
  171SAPE   H6Y19404   0.206   2.197   7.383 -0.4703  1.3066  1.4569
  171SAPE   C3719405   0.133   1.992   7.413  0.3241  0.2917  0.7080
  171SAPE   H7X19406   0.208   1.940   7.349  2.9081  1.9936  2.2704
  171SAPE   H7Y19407   0.033   1.945   7.402  1.3792 -1.4249 -2.3130
  171SAPE   C3819408   0.161   1.982   7.564  0.2546 -0.0435  0.5428
  171SAPE   H8X19409   0.146   1.877   7.597 -0.0703 -0.8403 -1.9631
  171SAPE   H8Y19410   0.090   2.043   7.622  0.5054 -1.6122  2.5584
  171SAPE   C3919411   0.302   2.032   7.599 -0.4619 -0.5443 -0.3497
  171SAPE   H9X19412   0.312   2.134   7.555 -0.3011 -0.3894  0.0502
  171SAPE   H9Y19413   0.367   1.961   7.543 -1.5118 -1.5126 -0.3513
  171SAPE  C31019414   0.328   2.036   7.747  0.4433  0.1265  0.8655
  171SAPE  H10X19415   0.253   2.087   7.811 -0.3788  0.1735 -0.1133
  171SAPE  H10Y19416   0.420   2.097   7.759  2.1586 -2.5895  1.9582
  171SAPE  C31119417   0.356   1.898   7.800 -0.4426 -0.8622  0.1217
  171SAPE  H11X19418   0.446   1.861   7.746  0.5983 -0.1920  1.3615
  171SAPE  H11Y19419   0.264   1.838   7.786  0.7425 -2.2206 -2.0176
  171SAPE  C31219420   0.403   1.906   7.947  0.0467 -0.7929  0.1716
  171SAPE  H12X19421   0.500   1.959   7.956 -2.4198  3.6527  1.9984
  171SAPE  H12Y19422   0.429   1.803   7.980  0.3275 -0.4984  0.8693
  171SAPE  C31319423   0.296   1.955   8.045 -0.2223 -0.6535  0.1603
  171SAPE  H13X19424   0.198   1.909   8.020 -0.4205 -0.7904  1.1725
  171SAPE  H13Y19425   0.280   2.063   8.023  1.4507 -0.8549 -2.1915
  171SAPE  C31419426   0.340   1.936   8.193  0.0971 -0.4578  0.6359
  171SAPE  H14X19427   0.328   1.829   8.220  3.5798 -0.6316  1.7315
  171SAPE  H14Y19428   0.272   1.998   8.256 -0.2545 -0.6959  0.4961
  171SAPE  C31519429   0.485   1.976   8.223 -0.0894  0.4252  0.3648
  171SAPE  H15X19430   0.509   2.068   8.164 -1.2356  0.5938  0.1420
  171SAPE  H15Y19431   0.550   1.895   8.182  0.6974 -0.0836  2.5368
  171SAPE  C31619432   0.507   2.006   8.373  0.1421  0.7066  0.1528
  171SAPE  H16X19433   0.481   1.913   8.428  0.9590  0.6737  0.4901
  171SAPE  H16Y19434   0.436   2.085   8.406 -1.8982 -0.7043 -0.7041
  171SAPE  C31719435   0.647   2.050   8.415 -1.2781 -0.7503  0.3912
  171SAPE  H17X19436   0.630   2.089   8.518  0.4862 -0.7741  0.7028
  171SAPE  H17Y19437   0.677   2.141   8.360 -1.0752 -0.9955  0.0996
  171SAPE  C31819438   0.757   1.949   8.423  0.4229 -0.7872 -0.5113
  171SAPE  H18X19439   0.754   1.904   8.525 -1.2365  1.6689  0.5746
  171SAPE  H18Y19440   0.861   1.982   8.404  0.4106 -0.7336 -0.4869
  171SAPE  H18Z19441   0.729   1.873   8.348 -1.0928  1.6365 -2.4719
  172SAPE     N19442   6.284   0.640   6.157  0.2451  0.1815 -0.0147
  172SAPE   HN119443   6.204   0.638   6.090 -0.6189  1.2872  0.9694
  172SAPE   HN219444   6.321   0.543   6.161 -1.5662 -0.5736 -0.7365
  172SAPE   HN319445   6.249   0.661   6.252  1.4219 -2.0324  0.9378
  172SAPE   C1219446   6.401   0.728   6.124 -0.3068 -0.7844  1.0534
  172SAPE  H12A19447   6.405   0.738   6.013 -1.0131  0.2957  1.1151
  172SAPE  H12B19448   6.493   0.676   6.158 -0.5296 -1.1971  1.0259
  172SAPE   C1119449   6.375   0.870   6.181  0.3734 -0.2503 -0.0918
  172SAPE  H11A19450   6.346   0.861   6.288 -0.2879  0.4739 -0.2074
  172SAPE  H11B19451   6.290   0.922   6.133  2.2265  1.6595 -1.4050
  172SAPE     P19452   6.602   0.974   6.278  0.2582 -0.3559  0.3020
  172SAPE   O1319453   6.699   0.864   6.267 -0.1755 -0.2887 -0.1000
  172SAPE   O1419454   6.658   1.103   6.270  0.0946 -0.1604  0.1903
  172SAPE   O1219455   6.491   0.951   6.167 -0.0960 -0.5894  0.2910
  172SAPE   O1119456   6.519   0.954   6.412 -0.5966  0.4347  0.1079
  172SAPE    C119457   6.439   1.066   6.454 -0.5084  0.4165  0.0773
  172SAPE    HA19458   6.500   1.154   6.485 -0.5430  0.8275 -1.0153
  172SAPE    HB19459   6.359   1.083   6.379 -0.9247  3.1093  1.0552
  172SAPE    C219460   6.368   1.031   6.587  0.5048 -0.5576  0.2090
  172SAPE    HS19461   6.341   1.128   6.635 -2.1404 -1.9404  1.6398
  172SAPE   O2119462   6.456   0.956   6.670  0.7373  0.6588 -0.1953
  172SAPE   C2119463   6.541   1.012   6.742  0.1407  0.3380  0.1367
  172SAPE   O2219464   6.559   1.135   6.761 -0.1837  0.0382  0.1136
  172SAPE   C2219465   6.626   0.907   6.825 -0.2777 -0.5252  0.1061
  172SAPE   H2R19466   6.712   0.962   6.869 -1.3540  0.9720  0.3633
  172SAPE   H2S19467   6.566   0.867   6.909 -0.7839 -0.5513 -0.2665
  172SAPE    C319468   6.236   0.954   6.563  0.2739  0.2344 -0.1772
  172SAPE    HX19469   6.249   0.854   6.516  0.1927  0.6770 -1.1563
  172SAPE    HY19470   6.169   1.013   6.497 -0.3574 -1.9798 -1.5480
  172SAPE   O3119471   6.176   0.929   6.690  0.1267 -0.6276  0.0937
  172SAPE   C3119472   6.056   0.869   6.671 -0.4228  0.4087 -1.3251
  172SAPE   O3219473   6.012   0.842   6.558  0.2494  0.0116 -0.1883
  172SAPE   C3219474   5.983   0.840   6.801  0.3335 -0.0699 -0.4959
  172SAPE   H2X19475   6.045   0.869   6.888 -0.7294 -0.9576  0.5702
  172SAPE   H2Y19476   5.981   0.729   6.801 -1.6678 -0.0470  0.2347
  172SAPE   C2319477   6.671   0.783   6.741 -0.5873 -0.0996 -0.2810
  172SAPE   H3R19478   6.736   0.811   6.655 -1.8631 -1.4434 -1.6914
  172SAPE   H3S19479   6.583   0.738   6.691  0.1468 -1.2779 -0.5307
  172SAPE   C2419480   6.752   0.689   6.823 -0.2840  1.0381 -0.3837
  172SAPE   H4R19481   6.781   0.599   6.764 -0.6664  1.4176 -1.1671
  172SAPE   H4S19482   6.690   0.651   6.907  0.8192 -0.3641 -0.1637
  172SAPE   C2519483   6.885   0.748   6.871  0.4163 -1.0289 -0.4593
  172SAPE   H5R19484   6.951   0.771   6.786 -0.2108 -1.4994 -1.0856
  172SAPE   C2619485   6.920   0.779   7.000  0.1852  0.2575  0.7738
  172SAPE   H6R19486   7.012   0.837   7.013  1.0190 -0.6848 -0.9329
  172SAPE   C2719487   6.833   0.758   7.116  0.6864  0.0316  0.1699
  172SAPE   H7R19488   6.803   0.651   7.117 -0.9972  0.4474 -2.0892
  172SAPE   H7S19489   6.736   0.811   7.104  0.1668 -0.7377  0.8608
  172SAPE   C2819490   6.908   0.785   7.246  0.6185  0.9991 -0.2321
  172SAPE   H8R19491   6.991   0.858   7.246  2.0696 -0.6058  0.3401
  172SAPE   C2919492   6.869   0.739   7.369  0.0076 -0.2833 -0.1185
  172SAPE   H9R19493   6.912   0.786   7.459  0.8115  1.0914 -1.1921
  172SAPE  C21019494   6.741   0.662   7.390  0.3761  0.0545  0.2395
  172SAPE  H10R19495   6.663   0.716   7.332  0.6358  0.0476 -0.1170
  172SAPE  H10S19496   6.695   0.691   7.488 -0.5881  0.9919 -0.4733
  172SAPE  C21119497   6.744   0.514   7.359 -0.3785 -0.1628  0.9547
  172SAPE  H11R19498   6.732   0.491   7.253 -1.2459  0.0836  0.9946
  172SAPE  C21219499   6.744   0.426   7.461  0.4116 -0.4035  0.5002
  172SAPE  H12R19500   6.751   0.321   7.431  0.7742 -0.4706  0.8127
  172SAPE  C21319501   6.744   0.451   7.611  0.4000  0.0586 -0.0372
  172SAPE  H13R19502   6.713   0.357   7.662  1.2536 -0.9912 -1.4007
  172SAPE  H13S19503   6.676   0.530   7.650 -0.5466  0.4060 -2.2925
  172SAPE  C21419504   6.880   0.491   7.659 -0.1389  0.1905 -0.0092
  172SAPE  H14R19505   6.929   0.561   7.590 -2.1525  0.5303 -1.1347
  172SAPE  C21519506   6.931   0.465   7.781 -0.3533  0.2099  0.0079
  172SAPE  H15R19507   7.027   0.516   7.799  0.0827 -0.4176 -0.5222
  172SAPE  C21619508   6.859   0.391   7.893 -0.1755  0.0772  0.0823
  172SAPE  H16R19509   6.866   0.283   7.869  2.5868  0.4703 -1.0917
  172SAPE  H16S19510   6.754   0.425   7.902  0.3019  1.3245  0.9893
  172SAPE  C21719511   6.930   0.397   8.035 -0.2495 -0.6217  0.1528
  172SAPE  H17R19512   6.928   0.506   8.057 -3.2300 -0.1272 -2.2541
  172SAPE  H17S19513   7.036   0.364   8.044  0.5392  1.1644 -2.2811
  172SAPE  C21819514   6.846   0.327   8.142 -0.8497 -0.4903 -0.5568
  172SAPE  H18R19515   6.866   0.217   8.140  0.6837 -0.2873  1.6970
  172SAPE  H18S19516   6.739   0.352   8.127 -0.2777  1.4657 -1.4208
  172SAPE  C21919517   6.889   0.372   8.285  0.6838  0.1889 -0.1861
  172SAPE  H19R19518   6.845   0.307   8.363  1.0473 -2.8631 -2.4469
  172SAPE  H19S19519   6.850   0.476   8.297 -0.3595 -0.5079  3.0232
  172SAPE  C22019520   7.036   0.352   8.311 -0.4445  1.0318 -0.1598
  172SAPE  H20R19521   7.052   0.347   8.421 -2.2500 -3.0257 -0.0026
  172SAPE  H20S19522   7.101   0.430   8.265  2.5593 -1.6438 -0.6665
  172SAPE  H20T19523   7.072   0.252   8.279  1.0974  1.5694 -0.1801
  172SAPE   C3319524   5.837   0.888   6.804 -0.2050 -0.0509  0.5649
  172SAPE   H3X19525   5.794   0.858   6.706  1.4932  3.0791 -1.2226
  172SAPE   H3Y19526   5.833   0.998   6.822  1.7131 -0.2851  2.6682
  172SAPE   C3419527   5.758   0.823   6.920  0.2010 -0.2143 -0.3458
  172SAPE   H4X19528   5.741   0.716   6.895 -3.1819  0.1664  0.1510
  172SAPE   H4Y19529   5.653   0.859   6.920  0.2289 -0.0759  1.9365
  172SAPE   C3519530   5.830   0.836   7.063 -0.2992 -0.3269  0.1359
  172SAPE   H5X19531   5.919   0.769   7.071 -0.3734 -0.8611 -2.7309
  172SAPE   H5Y19532   5.764   0.791   7.140  0.0393 -1.7074 -0.3622
  172SAPE   C3619533   5.853   0.981   7.091  0.1000 -0.3464  1.0122
  172SAPE   H6X19534   5.760   1.031   7.056 -0.3418 -2.1850 -0.4630
  172SAPE   H6Y19535   5.936   1.026   7.033 -1.4710  0.0100 -0.9999
  172SAPE   C3719536   5.856   1.018   7.240  0.5265 -0.4795  0.1837
  172SAPE   H7X19537   5.759   1.042   7.289 -0.0331 -0.8883 -0.7163
  172SAPE   H7Y19538   5.903   1.118   7.238  0.0429 -0.2522  0.1978
  172SAPE   C3819539   5.949   0.934   7.330 -0.2829  0.4393  0.3645
  172SAPE   H8X19540   6.044   0.922   7.273 -1.4748 -0.6405 -1.4356
  172SAPE   H8Y19541   5.903   0.833   7.338  0.9998 -0.2836 -1.0843
  172SAPE   C3919542   5.971   1.000   7.471 -0.6827 -0.2764  0.7046
  172SAPE   H9X19543   5.879   1.000   7.535 -1.0569 -0.8662  0.1732
  172SAPE   H9Y19544   5.987   1.107   7.445 -1.1904 -0.4397 -0.3032
  172SAPE  C31019545   6.084   0.934   7.547 -0.2234 -0.2381 -0.0708
  172SAPE  H10X19546   6.164   0.918   7.472  1.5034  0.3500  1.6092
  172SAPE  H10Y19547   6.053   0.839   7.597  1.5969 -0.1743  1.2417
  172SAPE  C31119548   6.145   1.020   7.658 -0.1735  0.2070 -0.0152
  172SAPE  H11X19549   6.182   1.115   7.613 -0.5907 -0.5527 -2.0063
  172SAPE  H11Y19550   6.236   0.963   7.687 -0.9821  0.0182  2.2531
  172SAPE  C31219551   6.050   1.040   7.779 -0.0488 -0.2482  0.0645
  172SAPE  H12X19552   5.987   0.956   7.814 -2.5214  1.0344 -1.1723
  172SAPE  H12Y19553   5.974   1.116   7.749 -0.1798  0.0437  1.1243
  172SAPE  C31319554   6.136   1.094   7.896  0.7729 -0.1324  0.1534
  172SAPE  H13X19555   6.074   1.162   7.958 -1.1637 -1.2780 -0.5156
  172SAPE  H13Y19556   6.216   1.155   7.847 -1.6041  2.2950 -0.8469
  172SAPE  C31419557   6.192   0.992   7.989  0.2332  0.1687  0.4574
  172SAPE  H14X19558   6.249   1.050   8.065  0.8396 -0.2316  0.3045
  172SAPE  H14Y19559   6.253   0.926   7.925  0.6626  0.4922  0.5367
  172SAPE  C31519560   6.098   0.892   8.062  0.3475 -0.5670  0.4369
  172SAPE  H15X19561   6.001   0.913   8.012  0.7399  1.6381  0.5719
  172SAPE  H15Y19562   6.085   0.925   8.167 -0.9547  2.0778 -0.5321
  172SAPE  C31619563   6.143   0.743   8.054 -0.1615  0.1584  0.1472
  172SAPE  H16X19564   6.245   0.736   8.097 -0.8656 -2.7756  1.4110
  172SAPE  H16Y19565   6.132   0.706   7.950 -1.5566 -0.7154  0.5868
  172SAPE  C31719566   6.038   0.666   8.141 -0.1827  0.7576  0.1970
  172SAPE  H17X19567   6.037   0.561   8.105  0.7889  1.1654 -1.0545
  172SAPE  H17Y19568   5.937   0.695   8.107 -0.5129 -0.6535 -0.0579
  172SAPE  C31819569   6.052   0.682   8.290  0.2329  0.5047  0.1338
  172SAPE  H18X19570   6.004   0.778   8.314 -0.4827  0.1287  0.2129
  172SAPE  H18Y19571   6.160   0.688   8.315  0.5121  1.7070 -1.3069
  172SAPE  H18Z19572   6.000   0.596   8.337 -2.5795  1.2220 -1.5763
  173SOPE     N19573   0.020   4.804  11.080 -0.0649  0.2204  1.0045
  173SOPE   HN119574   0.029   4.706  11.046  0.8463 -0.0585  2.0260
  173SOPE   HN219575  -0.065   4.817  11.139 -1.4374 -0.1464 -0.8425
  173SOPE   HN319576   0.010   4.863  10.995  2.0870  1.5637  1.6500
  173SOPE   C1219577   0.151   4.834  11.147  0.7177 -0.6607 -0.2343
  173SOPE  H12A19578   0.197   4.733  11.161 -0.6358 -1.2064  0.4102
  173SOPE  H12B19579   0.134   4.887  11.243  1.5659 -1.8899  0.6120
  173SOPE   C1119580   0.239   4.920  11.059  0.0037 -0.1155  0.2718
  173SOPE  H11A19581   0.242   4.880  10.956 -1.5903  4.6351 -1.7550
  173SOPE  H11B19582   0.342   4.916  11.100  1.4459 -0.8056 -3.2673
  173SOPE     P19583   0.222   5.176  10.959  0.0188  0.4413  0.0719
  173SOPE   O1319584   0.254   5.296  11.039  0.5032 -0.1892 -0.4636
  173SOPE   O1419585   0.106   5.180  10.865  0.5965  0.5938 -0.1044
  173SOPE   O1219586   0.191   5.057  11.065  0.3528  0.7211  0.2199
  173SOPE   O1119587   0.349   5.108  10.896  0.1432  0.3575 -0.6264
  173SOPE    C119588   0.392   5.178  10.775 -0.7583 -0.0337  0.2370
  173SOPE    HA19589   0.500   5.200  10.781 -1.1945  1.6257  3.5570
  173SOPE    HB19590   0.333   5.268  10.747 -0.1206  0.8900  1.7832
  173SOPE    C219591   0.381   5.095  10.647  0.0734 -0.6224  0.2438
  173SOPE    HS19592   0.421   5.155  10.562  0.3025  0.0324  0.8136
  173SOPE   O2119593   0.240   5.054  10.625 -0.7954  0.1404  0.0909
  173SOPE   C2119594   0.171   5.140  10.554  0.2184 -0.4461 -0.0597
  173SOPE   O2219595   0.221   5.246  10.522  0.3669  0.3739  0.5345
  173SOPE   C2219596   0.027   5.086  10.525  0.4298 -0.1551  0.3532
  173SOPE   H2R19597  -0.044   5.169  10.505  2.0872  1.2767  0.2733
  173SOPE   H2S19598  -0.013   5.010  10.595 -0.6940  0.1638  0.0656
  173SOPE    C319599   0.477   4.975  10.647 -0.2628 -0.4311 -0.3506
  173SOPE    HX19600   0.448   4.923  10.741  1.7551  0.6230  0.8778
  173SOPE    HY19601   0.578   5.017  10.664 -0.8840  0.4496  1.2661
  173SOPE   O3119602   0.464   4.882  10.544  0.8929  0.0452 -0.2650
  173SOPE   C3119603   0.491   4.933  10.426  0.7069  0.1562 -0.1072
  173SOPE   O3219604   0.563   5.027  10.413 -0.2743  0.2495  0.5085
  173SOPE   C3219605   0.420   4.847  10.319  0.8005 -0.1919 -0.0123
  173SOPE   H2X19606   0.502   4.847  10.244  1.1965 -1.1910  0.4073
  173SOPE   H2Y19607   0.332   4.912  10.304  0.7550 -0.1178  0.5663
  173SOPE   C2319608   0.046   5.009  10.391  0.4460  0.8006 -0.4727
  173SOPE   H3R19609  -0.051   4.960  10.368  1.3245 -0.7251 -0.9986
  173SOPE   H3S19610   0.118   4.924  10.395 -1.1251 -0.5013  0.6322
  173SOPE   C2419611   0.071   5.101  10.265 -0.1281 -0.2943 -0.1974
  173SOPE   H4R19612  -0.014   5.172  10.253  0.9208  1.3264  1.5243
  173SOPE   H4S19613   0.165   5.160  10.279  1.2521 -2.3096 -0.8199
  173SOPE   C2519614   0.079   5.006  10.144 -0.8919 -0.0179 -0.1985
  173SOPE   H5R19615   0.151   4.928  10.176  0.4984  0.6235 -1.6915
  173SOPE   H5S19616  -0.021   4.963  10.121 -1.0150  0.5324 -0.7105
  173SOPE   C2619617   0.130   5.078  10.015 -0.5242 -0.1652  0.6732
  173SOPE   H6R19618   0.066   5.166   9.991 -1.6468 -1.6266 -1.8098
  173SOPE   H6S19619   0.228   5.124  10.040 -0.1171 -0.0908 -1.0378
  173SOPE   C2719620   0.149   4.982   9.896  0.6457 -0.5508 -0.0296
  173SOPE   H7R19621   0.217   5.036   9.826 -2.7337 -0.4124 -3.3751
  173SOPE   H7S19622   0.208   4.898   9.939  0.9444 -0.3855 -0.1093
  173SOPE   C2819623   0.015   4.941   9.830  0.6515 -0.1222 -1.0859
  173SOPE   H8R19624   0.032   4.842   9.783  0.4799  0.4693 -2.3990
  173SOPE   H8S19625  -0.052   4.905   9.911  0.0410 -0.7236 -1.8473
  173SOPE   C2919626  -0.055   5.036   9.734 -0.4756 -0.4998 -0.3230
  173SOPE   H9119627  -0.124   5.113   9.772 -0.4738  0.4987 -2.2702
  173SOPE  C21019628  -0.039   5.043   9.601 -0.1039  0.0925 -0.0922
  173SOPE  H10119629  -0.105   5.105   9.538  1.2419 -0.4832 -2.1147
  173SOPE  C21119630   0.060   4.963   9.519  0.6789  0.3516 -0.3485
  173SOPE  H11R19631   0.116   4.895   9.587 -0.6424 -1.1342 -0.7225
  173SOPE  H11S19632   0.123   5.043   9.474 -0.6614  1.3139 -0.5525
  173SOPE  C21219633  -0.006   4.876   9.420  0.4752 -0.3914 -0.6218
  173SOPE  H12R19634  -0.061   4.935   9.343  1.4168  2.0111  0.5246
  173SOPE  H12S19635  -0.086   4.816   9.469 -0.5081  2.0674  0.8356
  173SOPE  C21319636   0.099   4.784   9.348  0.2991 -0.2902 -0.7888
  173SOPE  H13R19637   0.147   4.713   9.418 -0.1588  1.3744  1.2718
  173SOPE  H13S19638   0.183   4.841   9.303 -0.1374  0.9330 -0.0689
  173SOPE  C21419639   0.037   4.702   9.231 -0.4116  0.3110  0.3922
  173SOPE  H14R19640  -0.043   4.761   9.181 -0.9021 -0.9206 -0.3186
  173SOPE  H14S19641  -0.017   4.618   9.282 -1.0608  1.0886  1.0002
  173SOPE  C21519642   0.137   4.640   9.137 -0.3832  0.5027 -0.1276
  173SOPE  H15R19643   0.216   4.590   9.198 -0.7153  0.3019  0.1450
  173SOPE  H15S19644   0.194   4.714   9.078 -1.7984  3.7618  2.4446
  173SOPE  C21619645   0.071   4.527   9.059  0.1674  0.7160  0.2647
  173SOPE  H16R19646   0.016   4.460   9.129  1.4975  0.1757  0.8100
  173SOPE  H16S19647   0.148   4.458   9.017 -0.5516 -0.0654  0.2208
  173SOPE  C21719648  -0.011   4.568   8.934  0.3620 -0.5196 -0.6151
  173SOPE  H17R19649  -0.107   4.605   8.978  0.4083 -1.3036  0.1349
  173SOPE  H17S19650  -0.029   4.472   8.881  5.1685 -1.1279 -1.3204
  173SOPE  C21819651   0.067   4.668   8.850  0.5422  0.1109 -0.4960
  173SOPE  H18R19652   0.034   4.665   8.744  0.9941  0.5178 -0.6508
  173SOPE  H18S19653   0.177   4.650   8.850  0.8396  1.8873 -0.1876
  173SOPE  H18T19654   0.048   4.767   8.897  1.5787  0.0046  0.1745
  173SOPE   C3319655   0.372   4.703  10.361 -0.2738 -0.7951  0.3760
  173SOPE   H3X19656   0.278   4.701  10.421 -0.4636 -2.0027  0.0490
  173SOPE   H3Y19657   0.443   4.656  10.432  0.8234 -0.5011 -0.5209
  173SOPE   C3419658   0.351   4.611  10.247  0.6655 -0.0276 -0.6219
  173SOPE   H4X19659   0.342   4.509  10.291 -0.8407 -0.3127 -1.5293
  173SOPE   H4Y19660   0.447   4.609  10.191 -0.4952 -2.1898 -2.6551
  173SOPE   C3519661   0.219   4.626  10.173 -0.5633 -0.3158 -0.0429
  173SOPE   H5X19662   0.211   4.731  10.136  1.0376  0.0042  0.4718
  173SOPE   H5Y19663   0.141   4.602  10.248 -2.0856  3.7050 -0.2266
  173SOPE   C3619664   0.198   4.540  10.045 -0.1959 -0.1776  0.6839
  173SOPE   H6X19665   0.239   4.437  10.052 -2.1740 -1.2229 -2.2742
  173SOPE   H6Y19666   0.238   4.581   9.950 -1.0666 -1.8277 -0.4345
  173SOPE   C3719667   0.043   4.526  10.006 -0.4101  0.2863 -0.5527
  173SOPE   H7X19668   0.012   4.631   9.986  2.5660  1.8056  2.2476
  173SOPE   H7Y19669  -0.015   4.495  10.095  1.2146  0.8024  0.7146
  173SOPE   C3819670   0.010   4.443   9.880 -0.3599  0.3476 -0.0181
  173SOPE   H8X19671  -0.097   4.456   9.855 -0.5903  0.7086  1.1388
  173SOPE   H8Y19672   0.020   4.335   9.906 -0.1207  0.9832  2.6932
  173SOPE   C3919673   0.100   4.462   9.764 -0.5061 -0.8323  0.0278
  173SOPE   H9X19674   0.207   4.459   9.795 -0.5881 -3.1592  0.1649
  173SOPE   H9Y19675   0.095   4.563   9.719  2.4828 -0.5458  0.2202
  173SOPE  C31019676   0.074   4.369   9.645  0.1451 -0.0972 -0.2287
  173SOPE  H10X19677   0.083   4.266   9.688  2.0342  0.2332  0.2100
  173SOPE  H10Y19678   0.161   4.378   9.576 -0.6387  1.9567 -0.9895
  173SOPE  C31119679  -0.058   4.388   9.579  0.1547  0.9247 -0.2917
  173SOPE  H11X19680  -0.039   4.478   9.516 -0.7170  1.5476  0.3141
  173SOPE  H11Y19681  -0.145   4.396   9.648 -0.0878  0.5452 -0.5534
  173SOPE  C31219682  -0.066   4.284   9.462 -0.3409 -0.1598 -0.5264
  173SOPE  H12X19683  -0.085   4.181   9.498 -1.8338  0.9918  2.1701
  173SOPE  H12Y19684   0.038   4.276   9.425 -0.4868  0.7388 -1.1508
  173SOPE  C31319685  -0.170   4.315   9.352 -0.5370 -0.1631 -1.1488
  173SOPE  H13X19686  -0.168   4.423   9.329 -2.2825  0.5113  1.6509
  173SOPE  H13Y19687  -0.266   4.300   9.407 -0.3157  0.0098 -0.7173
  173SOPE  C31419688  -0.155   4.224   9.236 -0.1702 -0.1504  0.2383
  173SOPE  H14X19689  -0.172   4.122   9.276 -2.5455 -0.5237 -1.5865
  173SOPE  H14Y19690  -0.052   4.227   9.193 -0.3774  1.2828 -0.1983
  173SOPE  C31519691  -0.257   4.238   9.120  0.3334 -0.1485 -0.3147
  173SOPE  H15X19692  -0.229   4.183   9.028  1.1899  1.0268 -0.7637
  173SOPE  H15Y19693  -0.241   4.345   9.095 -0.4899  0.4124  1.4790
  173SOPE  C31619694  -0.398   4.215   9.159 -0.2112  0.2191 -0.4272
  173SOPE  H16X19695  -0.442   4.270   9.246  0.3281 -1.6460  1.0563
  173SOPE  H16Y19696  -0.415   4.108   9.183 -0.4366  0.2215 -0.5735
  173SOPE  C31719697  -0.490   4.247   9.040 -0.0799 -0.5193 -0.0424
  173SOPE  H17X19698  -0.439   4.205   8.950  2.5368  0.3643  0.9693
  173SOPE  H17Y19699  -0.487   4.358   9.034 -0.4983 -0.2850  3.4215
  173SOPE  C31819700  -0.638   4.196   9.066  0.1908 -0.2361 -0.3137
  173SOPE  H18X19701  -0.636   4.087   9.085  1.3182 -0.1964 -0.1854
  173SOPE  H18Y19702  -0.716   4.215   8.988  0.4979 -0.2952 -0.6383
  173SOPE  H18Z19703  -0.681   4.240   9.158  0.3267  1.4895 -1.0538
  174SOPE     N19704   6.522   4.798  10.704 -0.1576 -0.3391  0.7047
  174SOPE   HN119705   6.618   4.762  10.719 -0.9102 -3.5595 -1.4878
  174SOPE   HN219706   6.495   4.809  10.604 -0.2269 -1.1821  0.6283
  174SOPE   HN319707   6.512   4.894  10.743 -1.0875  1.8350 -4.4186
  174SOPE   C1219708   6.424   4.713  10.776  0.0092  1.2230 -0.4292
  174SOPE  H12A19709   6.341   4.712  10.702  1.0500 -1.8767 -1.6392
  174SOPE  H12B19710   6.395   4.781  10.859 -2.4103 -0.5435  0.2300
  174SOPE   C1119711   6.480   4.581  10.824  0.1434  0.2617 -0.0055
  174SOPE  H11A19712   6.478   4.516  10.734 -1.0794  0.1619  0.0876
  174SOPE  H11B19713   6.422   4.531  10.905  1.4648 -0.3425  0.5888
  174SOPE     P19714   6.718   4.487  10.911  0.0210  0.0158 -0.0311
  174SOPE   O1319715   6.646   4.370  10.977  0.0133 -0.0365 -0.0173
  174SOPE   O1419716   6.819   4.564  10.988 -0.3707  0.2710  0.5763
  174SOPE   O1219717   6.615   4.596  10.873 -0.0278 -0.4548 -0.0159
  174SOPE   O1119718   6.788   4.441  10.779  0.1537  0.0453  0.5493
  174SOPE    C119719   6.730   4.397  10.656  0.0753  0.2812 -0.0913
  174SOPE    HA19720   6.677   4.482  10.606 -0.3510  1.1586  1.7831
  174SOPE    HB19721   6.671   4.307  10.681  0.7654  0.2474  1.5144
  174SOPE    C219722   6.841   4.352  10.563  0.1153 -0.9486  0.5522
  174SOPE    HS19723   6.903   4.439  10.534 -2.6093  1.2057  0.9749
  174SOPE   O2119724   6.772   4.298  10.451  0.1486 -0.5311  0.0549
  174SOPE   C2119725   6.719   4.376  10.368  0.1868  0.1669 -0.2419
  174SOPE   O2219726   6.723   4.498  10.372 -0.2622  0.7302  0.2517
  174SOPE   C2219727   6.632   4.296  10.274 -0.1097 -0.0441 -0.0945
  174SOPE   H2R19728   6.676   4.304  10.173 -0.3736  0.6331 -0.1581
  174SOPE   H2S19729   6.532   4.345  10.272  0.2298  0.6074 -1.4881
  174SOPE    C319730   6.926   4.243  10.623 -0.1246  0.1653 -0.4618
  174SOPE    HX19731   6.864   4.161  10.665  0.9874  0.5511  2.0190
  174SOPE    HY19732   6.986   4.292  10.702 -0.9660  1.4336 -0.6079
  174SOPE   O3119733   7.014   4.189  10.526  0.0650 -0.4020 -0.1427
  174SOPE   C3119734   7.127   4.260  10.489 -0.2291  0.3326 -0.2727
  174SOPE   O3219735   7.143   4.375  10.519 -0.6079 -0.4348 -0.0855
  174SOPE   C3219736   7.208   4.163  10.399  0.3251  0.3203  0.0819
  174SOPE   H2X19737   7.177   4.057  10.406  2.4162 -0.3035  0.1204
  174SOPE   H2Y19738   7.314   4.172  10.432 -0.1321  2.1930  1.1305
  174SOPE   C2319739   6.622   4.143  10.290 -0.3104 -0.5422 -0.3682
  174SOPE   H3R19740   6.602   4.127  10.398  0.1813  0.7046 -0.0807
  174SOPE   H3S19741   6.720   4.103  10.255 -0.1154  0.3727 -0.9060
  174SOPE   C2419742   6.503   4.075  10.227  0.0982  0.4513 -0.1900
  174SOPE   H4R19743   6.514   3.973  10.268 -0.0207  0.2349 -0.6957
  174SOPE   H4S19744   6.408   4.114  10.268  0.2641  0.9303 -0.2546
  174SOPE   C2519745   6.497   4.068  10.070  0.5168 -0.5732  0.6720
  174SOPE   H5R19746   6.589   4.019  10.032 -0.7020 -1.4572 -1.2165
  174SOPE   H5S19747   6.406   4.005  10.054  0.1288  0.2704 -0.4938
  174SOPE   C2619748   6.475   4.190   9.979  0.0859 -0.3415  0.1522
  174SOPE   H6R19749   6.368   4.219   9.983 -0.0155 -0.6323 -0.4215
  174SOPE   H6S19750   6.523   4.277  10.028  1.3244 -2.2731  2.4894
  174SOPE   C2719751   6.506   4.172   9.833 -0.4462 -0.2778  0.0943
  174SOPE   H7R19752   6.491   4.271   9.785  0.5220  0.1183  0.5950
  174SOPE   H7S19753   6.613   4.142   9.827 -0.1640  0.9594 -1.3234
  174SOPE   C2819754   6.418   4.075   9.761 -0.7788 -0.2707  0.1187
  174SOPE   H8R19755   6.431   3.971   9.798 -3.1018 -0.5863  0.1294
  174SOPE   H8S19756   6.312   4.101   9.784 -0.3159  1.7375  0.0347
  174SOPE   C2919757   6.444   4.073   9.610  0.0054 -0.0955  0.1335
  174SOPE   H9119758   6.552   4.059   9.592  0.5984  2.0191  1.8270
  174SOPE  C21019759   6.354   4.089   9.514  0.8358  0.6505 -0.1172
  174SOPE  H10119760   6.387   4.072   9.410  0.9256 -0.2005  0.0510
  174SOPE  C21119761   6.209   4.111   9.542 -0.0002 -0.2809 -0.2417
  174SOPE  H11R19762   6.169   4.157   9.449 -0.2841  1.4839  0.7287
  174SOPE  H11S19763   6.186   4.167   9.636  0.0809  0.5084 -0.6887
  174SOPE  C21219764   6.133   3.983   9.565  0.6588 -0.3651  0.2479
  174SOPE  H12R19765   6.166   3.920   9.651  1.6976  0.9992  0.8737
  174SOPE  H12S19766   6.144   3.917   9.477 -1.1701 -0.1564 -0.1501
  174SOPE  C21319767   5.982   4.000   9.581 -0.0370 -0.4252  0.0526
  174SOPE  H13R19768   5.947   4.053   9.489  0.7520  0.2729  0.1427
  174SOPE  H13S19769   5.970   4.068   9.668 -2.0944 -0.1898 -0.3812
  174SOPE  C21419770   5.902   3.867   9.603 -0.3363  0.3997 -0.0247
  174SOPE  H14R19771   5.801   3.891   9.641 -1.7744 -1.3018 -2.6164
  174SOPE  H14S19772   5.955   3.812   9.684 -1.4244  2.3753  2.0888
  174SOPE  C21519773   5.895   3.786   9.476 -0.0180  0.3298 -0.0998
  174SOPE  H15R19774   5.891   3.681   9.511  1.0273 -0.1355 -1.3417
  174SOPE  H15S19775   5.984   3.792   9.410 -1.2316  2.6485 -1.5744
  174SOPE  C21619776   5.769   3.804   9.398  0.1314  0.0793  0.0237
  174SOPE  H16R19777   5.726   3.906   9.406  1.5975  0.8972 -2.2336
  174SOPE  H16S19778   5.690   3.733   9.430 -0.6652  1.0087  0.1435
  174SOPE  C21719779   5.784   3.771   9.249 -0.6884 -0.0657  0.5072
  174SOPE  H17R19780   5.861   3.840   9.208  1.5215 -1.5258  2.0445
  174SOPE  H17S19781   5.692   3.783   9.188  0.6397  1.3488 -1.2658
  174SOPE  C21819782   5.837   3.629   9.230  0.0498  0.1361 -0.3861
  174SOPE  H18R19783   5.766   3.558   9.279  2.5800 -0.7908  2.0801
  174SOPE  H18S19784   5.937   3.624   9.277  0.3815 -0.3839 -1.1385
  174SOPE  H18T19785   5.838   3.618   9.120 -1.5884  0.9570 -0.5056
  174SOPE   C3319786   7.196   4.197  10.248  0.6392 -0.6300  0.0197
  174SOPE   H3X19787   7.283   4.138  10.211  1.3370  1.3556 -1.6493
  174SOPE   H3Y19788   7.209   4.307  10.231  0.3856 -0.3811  1.3759
  174SOPE   C3419789   7.057   4.148  10.189  0.1095  0.3330  0.0082
  174SOPE   H4X19790   6.993   4.227  10.234 -0.0060  0.7698 -0.9018
  174SOPE   H4Y19791   7.017   4.047  10.212  0.8861  0.5606  2.4151
  174SOPE   C3519792   7.049   4.164  10.039  0.4070  0.2070  0.6288
  174SOPE   H5X19793   7.112   4.248  10.004 -1.8063  2.1995  1.2361
  174SOPE   H5Y19794   6.943   4.167  10.005  0.7117 -0.0420 -0.3601
  174SOPE   C3619795   7.114   4.034   9.982 -0.3512 -0.4073  0.0801
  174SOPE   H6X19796   7.040   3.952   9.995  0.3068 -1.1728 -0.9651
  174SOPE   H6Y19797   7.206   3.999  10.035 -0.2270 -0.9484 -0.4900
  174SOPE   C3719798   7.139   4.032   9.834  0.2214  0.2968 -0.4804
  174SOPE   H7X19799   7.185   4.127   9.800 -2.3422  0.7208 -2.8614
  174SOPE   H7Y19800   7.043   4.006   9.785 -0.0421 -1.2464  0.8124
  174SOPE   C3819801   7.241   3.927   9.793 -0.1618 -0.5506  0.2269
  174SOPE   H8X19802   7.195   3.831   9.825  1.0729 -1.2444 -0.0558
  174SOPE   H8Y19803   7.342   3.942   9.838 -0.4027  0.5696  0.3972
  174SOPE   C3919804   7.270   3.927   9.646  0.3445  0.9294 -0.4892
  174SOPE   H9X19805   7.350   4.003   9.633  0.5911  0.7668  0.0766
  174SOPE   H9Y19806   7.184   3.972   9.592 -0.4511 -1.4823 -1.3135
  174SOPE  C31019807   7.307   3.789   9.588 -0.4759  0.2706 -0.3281
  174SOPE  H10X19808   7.245   3.710   9.636 -0.8369 -0.4804 -1.9967
  174SOPE  H10Y19809   7.407   3.752   9.619  0.2277  2.4944  0.0946
  174SOPE  C31119810   7.299   3.775   9.440 -0.3535 -0.1306  0.3237
  174SOPE  H11X19811   7.360   3.846   9.380 -0.9161 -0.6083 -0.8274
  174SOPE  H11Y19812   7.196   3.795   9.406  0.8992  1.8568 -2.5520
  174SOPE  C31219813   7.351   3.630   9.391 -0.0985  0.9202  0.1979
  174SOPE  H12X19814   7.286   3.547   9.427  0.7133 -0.8043 -2.1918
  174SOPE  H12Y19815   7.457   3.619   9.424  0.0302  0.3546 -0.3860
  174SOPE  C31319816   7.358   3.632   9.243  0.0497 -0.5211  0.7212
  174SOPE  H13X19817   7.421   3.715   9.204 -2.2313 -0.3655 -2.9387
  174SOPE  H13Y19818   7.257   3.653   9.200  0.2907  0.1925  0.4998
  174SOPE  C31419819   7.413   3.510   9.186 -0.4413 -0.1617  0.3280
  174SOPE  H14X19820   7.373   3.422   9.241  0.5975 -1.2801 -0.6857
  174SOPE  H14Y19821   7.521   3.515   9.211  0.2146  0.7676 -2.5600
  174SOPE  C31519822   7.384   3.509   9.035 -0.0222  0.2023 -0.5724
  174SOPE  H15X19823   7.461   3.568   8.981  1.2696 -0.7973  0.1571
  174SOPE  H15Y19824   7.282   3.548   9.013 -0.1575 -0.2888 -0.8190
  174SOPE  C31619825   7.394   3.368   8.980 -0.0556  0.6242 -0.2241
  174SOPE  H16X19826   7.302   3.310   9.004  0.0175 -0.2617 -1.9748
  174SOPE  H16Y19827   7.479   3.321   9.034  0.3537  2.9407  1.2195
  174SOPE  C31719828   7.408   3.376   8.826  0.9784 -0.0945 -0.0736
  174SOPE  H17X19829   7.498   3.436   8.800  0.8523  0.2475  0.2623
  174SOPE  H17Y19830   7.324   3.441   8.794  0.1328 -2.4330 -2.8491
  174SOPE  C31819831   7.422   3.237   8.758 -0.1004 -0.5586 -0.2742
  174SOPE  H18X19832   7.526   3.213   8.729  0.3501 -0.3942  1.1322
  174SOPE  H18Y19833   7.361   3.240   8.665 -1.1880  0.4627  0.4559
  174SOPE  H18Z19834   7.376   3.162   8.826 -1.0673  1.0442  0.8755
  175SOPE     N19835   2.091   6.350  10.662  0.4406 -0.1600 -0.3326
  175SOPE   HN119836   2.040   6.409  10.732  3.5282 -0.3707  2.2345
  175SOPE   HN219837   2.176   6.400  10.629  0.9421 -0.5723  0.3234
  175SOPE   HN319838   2.029   6.324  10.583 -0.3522  0.8211 -0.0509
  175SOPE   C1219839   2.120   6.223  10.731 -0.2472 -0.8969 -0.0255
  175SOPE  H12A19840   2.161   6.251  10.830 -0.1614 -1.6178  0.1417
  175SOPE  H12B19841   2.193   6.168  10.668 -2.0067 -0.0616 -2.8861
  175SOPE   C1119842   1.995   6.141  10.762 -0.0903 -0.2549  0.6281
  175SOPE  H11A19843   1.937   6.196  10.839 -1.5254  0.2690 -0.8200
  175SOPE  H11B19844   2.045   6.047  10.795 -0.1905 -0.8007 -0.7366
  175SOPE     P19845   1.888   5.966  10.592  0.1490 -0.1581 -0.3862
  175SOPE   O1319846   1.812   5.896  10.701 -0.0975 -0.3209  0.1584
  175SOPE   O1419847   2.023   5.907  10.564 -0.7987  0.1186  0.2354
  175SOPE   O1219848   1.910   6.116  10.643 -0.2283  0.3417  0.7483
  175SOPE   O1119849   1.803   5.985  10.459 -0.3333 -0.1459  0.0858
  175SOPE    C119850   1.771   6.113  10.399 -1.0742 -0.2507 -0.0798
  175SOPE    HA19851   1.858   6.177  10.424 -0.9739 -0.1488 -0.6768
  175SOPE    HB19852   1.681   6.161  10.443 -0.7477  0.8403 -0.5851
  175SOPE    C219853   1.764   6.106  10.246 -1.1220 -1.4047 -0.2202
  175SOPE    HS19854   1.734   6.209  10.215 -0.2513 -1.8327 -2.5379
  175SOPE   O2119855   1.676   6.009  10.198  0.0153 -0.2356 -0.2415
  175SOPE   C2119856   1.549   6.034  10.232  0.1943  0.1418  0.5950
  175SOPE   O2219857   1.500   6.130  10.286  0.1276  0.0971  0.1237
  175SOPE   C2219858   1.483   5.903  10.199 -0.1237  0.2633  0.8281
  175SOPE   H2R19859   1.375   5.908  10.226 -0.2392  0.7247  0.2882
  175SOPE   H2S19860   1.523   5.821  10.262 -1.6697 -0.7674  0.5093
  175SOPE    C319861   1.902   6.082  10.184 -0.0147  0.1622  0.3864
  175SOPE    HX19862   1.951   6.001  10.243 -0.4914  0.3405  1.0304
  175SOPE    HY19863   1.966   6.171  10.206  0.5710  0.0236 -0.7136
  175SOPE   O3119864   1.889   6.061  10.044 -0.2494  0.2179 -0.0586
  175SOPE   C3119865   1.955   5.966   9.984  0.1683  0.9681  0.2769
  175SOPE   O3219866   2.029   5.893  10.046 -1.0040  0.1685 -0.1286
  175SOPE   C3219867   1.935   5.957   9.836  0.5520  0.3216 -0.6249
  175SOPE   H2X19868   1.999   6.029   9.781  2.0327 -1.2218 -0.9776
  175SOPE   H2Y19869   1.830   5.985   9.811  0.6461 -0.2383 -1.6893
  175SOPE   C2319870   1.491   5.866  10.050  0.0228 -0.0091 -0.0883
  175SOPE   H3R19871   1.594   5.855  10.010  1.0834 -0.8217  2.7690
  175SOPE   H3S19872   1.442   5.946   9.990  0.6942  0.6576  0.2374
  175SOPE   C2419873   1.408   5.749  10.010 -0.4277  0.9030 -0.3247
  175SOPE   H4R19874   1.477   5.663  10.025 -0.8334  0.9582  1.9715
  175SOPE   H4S19875   1.321   5.734  10.076  0.4908 -0.5307  0.5890
  175SOPE   C2519876   1.370   5.756   9.862 -0.1515 -0.2340 -0.3794
  175SOPE   H5R19877   1.300   5.842   9.853 -0.0785  0.0914  1.8050
  175SOPE   H5S19878   1.460   5.780   9.801 -0.9979  1.0567 -1.1443
  175SOPE   C2619879   1.287   5.633   9.810  0.8407  0.3408  0.6861
  175SOPE   H6R19880   1.357   5.548   9.796  0.4292  0.1867 -0.4878
  175SOPE   H6S19881   1.220   5.593   9.889 -0.5060 -0.0569 -0.6282
  175SOPE   C2719882   1.211   5.653   9.684 -0.1512 -0.1493 -0.1644
  175SOPE   H7R19883   1.182   5.549   9.659 -2.4131  0.8278 -1.8243
  175SOPE   H7S19884   1.110   5.701   9.689 -0.2075 -0.2116 -0.7197
  175SOPE   C2819885   1.296   5.712   9.567 -0.0626 -0.0199  0.6115
  175SOPE   H8R19886   1.333   5.816   9.579 -0.8725  0.4112 -0.5450
  175SOPE   H8S19887   1.397   5.667   9.566 -0.2401 -0.4134 -0.7706
  175SOPE   C2919888   1.221   5.717   9.435 -0.8379 -0.5122  0.7567
  175SOPE   H9119889   1.152   5.802   9.434 -0.4187 -0.1730  0.7200
  175SOPE  C21019890   1.223   5.636   9.327 -0.3080  0.7596  0.1812
  175SOPE  H10119891   1.156   5.666   9.245  0.0632  2.7094  0.5790
  175SOPE  C21119892   1.303   5.516   9.304 -0.3317  0.0367 -0.5729
  175SOPE  H11R19893   1.401   5.544   9.261  0.4823 -1.7561  0.0425
  175SOPE  H11S19894   1.265   5.443   9.229  1.3027  1.5193 -2.8979
  175SOPE  C21219895   1.331   5.430   9.428  0.3214 -0.2028  0.0701
  175SOPE  H12R19896   1.234   5.405   9.475  0.0908  1.3814  0.4601
  175SOPE  H12S19897   1.390   5.474   9.511 -1.5561  4.0848 -0.7590
  175SOPE  C21319898   1.391   5.287   9.384 -0.3421  0.2017  0.2883
  175SOPE  H13R19899   1.322   5.241   9.310  0.1749  0.5505 -0.4169
  175SOPE  H13S19900   1.393   5.217   9.470 -2.1858  0.2352  0.3842
  175SOPE  C21419901   1.534   5.295   9.323  0.8194 -0.7275  0.1763
  175SOPE  H14R19902   1.519   5.324   9.217  2.4509  3.0417  0.9171
  175SOPE  H14S19903   1.554   5.188   9.301  2.9759 -0.2271 -0.4240
  175SOPE  C21519904   1.646   5.364   9.395  0.7224 -0.3907 -0.8350
  175SOPE  H15R19905   1.623   5.472   9.385  1.3198 -0.1929 -0.1107
  175SOPE  H15S19906   1.741   5.331   9.348  1.4919 -0.6991  0.8924
  175SOPE  C21619907   1.644   5.325   9.549 -0.4669  0.4257  0.5305
  175SOPE  H16R19908   1.649   5.214   9.554 -0.8985  0.3938  0.2702
  175SOPE  H16S19909   1.544   5.356   9.587  0.2721 -0.9039  3.7543
  175SOPE  C21719910   1.752   5.389   9.623 -0.1741 -0.3076 -0.8025
  175SOPE  H17R19911   1.742   5.499   9.624  0.5920 -0.2369 -0.6872
  175SOPE  H17S19912   1.852   5.367   9.580 -0.2082 -2.4391  0.1175
  175SOPE  C21819913   1.759   5.352   9.773 -0.4031 -0.1319 -0.5699
  175SOPE  H18R19914   1.659   5.325   9.815  0.4412 -3.0850 -0.3569
  175SOPE  H18S19915   1.815   5.422   9.839 -0.9080  0.8003 -1.1105
  175SOPE  H18T19916   1.810   5.254   9.774 -1.5382 -0.7311  0.5323
  175SOPE   C3319917   1.966   5.813   9.781  0.0450  0.7341 -0.7149
  175SOPE   H3X19918   1.899   5.735   9.823  0.2053  1.5125  1.0631
  175SOPE   H3Y19919   2.074   5.803   9.807  0.1645 -1.6012 -2.0493
  175SOPE   C3419920   1.972   5.797   9.629 -0.2442  0.2459  0.1478
  175SOPE   H4X19921   2.027   5.703   9.607 -0.7357 -0.0301  0.0859
  175SOPE   H4Y19922   2.039   5.879   9.597  0.4368 -1.0880 -1.9814
  175SOPE   C3519923   1.849   5.794   9.545 -0.4224  0.3169  0.4229
  175SOPE   H5X19924   1.798   5.892   9.559 -1.1915 -0.0669  0.3013
  175SOPE   H5Y19925   1.779   5.713   9.574 -0.1602 -1.3183 -3.3486
  175SOPE   C3619926   1.859   5.776   9.399 -0.1163  0.2543  0.1539
  175SOPE   H6X19927   1.924   5.847   9.343  0.6613  0.7356  1.6193
  175SOPE   H6Y19928   1.758   5.794   9.358  0.8264  3.3996 -0.9760
  175SOPE   C3719929   1.913   5.638   9.347  0.0871 -0.2844  0.4476
  175SOPE   H7X19930   1.855   5.558   9.399 -1.6189  0.1444 -0.7254
  175SOPE   H7Y19931   2.020   5.631   9.374  0.5957 -0.3680 -1.5389
  175SOPE   C3819932   1.893   5.629   9.196  0.2001 -0.2302  0.0375
  175SOPE   H8X19933   1.947   5.540   9.156  1.7236  0.9041 -0.4762
  175SOPE   H8Y19934   1.944   5.722   9.163  0.3796 -1.0783 -2.1606
  175SOPE   C3919935   1.750   5.616   9.147  0.0776 -0.0655 -0.3024
  175SOPE   H9X19936   1.678   5.678   9.204  0.2932  0.3363 -0.4615
  175SOPE   H9Y19937   1.715   5.511   9.149 -2.1763  0.6730  0.8060
  175SOPE  C31019938   1.715   5.675   9.011  0.1730  0.2394  0.3999
  175SOPE  H10X19939   1.787   5.630   8.940 -0.8369  0.3542 -0.7205
  175SOPE  H10Y19940   1.728   5.785   9.013 -1.4359  0.4541  0.0156
  175SOPE  C31119941   1.572   5.643   8.965 -1.1820 -0.1140 -0.2737
  175SOPE  H11X19942   1.553   5.701   8.872  2.0676  1.3847 -0.0975
  175SOPE  H11Y19943   1.494   5.685   9.031  0.0842  0.7702  0.7008
  175SOPE  C31219944   1.527   5.492   8.950 -0.6547 -1.0659 -0.6915
  175SOPE  H12X19945   1.557   5.431   9.037  0.5533  0.0507 -0.3215
  175SOPE  H12Y19946   1.582   5.440   8.868  0.5216  0.4900 -0.9091
  175SOPE  C31319947   1.378   5.478   8.926 -0.4996  0.5718 -0.0343
  175SOPE  H13X19948   1.353   5.547   8.843  1.2875 -0.2384 -1.2800
  175SOPE  H13Y19949   1.321   5.511   9.016 -3.1070 -0.1751 -1.3693
  175SOPE  C31419950   1.345   5.331   8.889 -0.1342 -0.4454  0.0205
  175SOPE  H14X19951   1.348   5.277   8.986 -0.8222  0.6628  0.6628
  175SOPE  H14Y19952   1.423   5.293   8.819  2.1986 -1.3228  2.9999
  175SOPE  C31519953   1.208   5.320   8.815 -0.2018 -0.7015 -0.4726
  175SOPE  H15X19954   1.219   5.379   8.722 -2.0569  3.0762  1.6057
  175SOPE  H15Y19955   1.134   5.390   8.858  0.4903  1.4425 -2.6298
  175SOPE  C31619956   1.160   5.175   8.803 -0.7647 -0.7955 -0.2141
  175SOPE  H16X19957   1.243   5.104   8.785 -2.6346 -2.7108 -1.5589
  175SOPE  H16Y19958   1.086   5.157   8.722  0.3489  0.5595 -1.5603
  175SOPE  C31719959   1.094   5.144   8.936  0.6344  0.4742  0.3509
  175SOPE  H17X19960   1.006   5.212   8.939  0.3575  0.2264 -1.5620
  175SOPE  H17Y19961   1.161   5.169   9.022  1.5578 -1.1693  0.1158
  175SOPE  C31819962   1.047   4.996   8.963  0.4518  1.2281  0.4842
  175SOPE  H18X19963   1.002   4.985   9.064  0.4237 -1.0047  0.2460
  175SOPE  H18Y19964   1.138   4.934   8.952  0.1665  0.7493  0.8059
  175SOPE  H18Z19965   0.968   4.976   8.887  1.2819  0.2609 -0.1381
  176SOPE     N19966   1.554   5.323  10.924 -0.3375  0.3677 -0.2676
  176SOPE   HN119967   1.549   5.227  10.963 -0.9621  1.0526  1.3823
  176SOPE   HN219968   1.648   5.340  10.882  0.0793  1.1845  0.9553
  176SOPE   HN319969   1.530   5.398  10.991 -1.8462  1.8161 -2.3436
  176SOPE   C1219970   1.457   5.340  10.813  0.3724 -0.2290 -0.2114
  176SOPE  H12A19971   1.441   5.250  10.751  0.2302 -1.2953  1.3615
  176SOPE  H12B19972   1.485   5.423  10.744 -1.1004 -1.5226 -2.4124
  176SOPE   C1119973   1.317   5.382  10.869 -0.0180 -0.1565 -0.1618
  176SOPE  H11A19974   1.253   5.406  10.781  0.2246  0.0854 -0.2721
  176SOPE  H11B19975   1.323   5.480  10.921  1.4420 -0.3830  0.1029
  176SOPE     P19976   1.182   5.151  10.903  0.2777 -0.2304  0.2552
  176SOPE   O1319977   1.048   5.157  10.973 -0.2637 -0.0682 -0.1579
  176SOPE   O1419978   1.261   5.028  10.919 -0.3905  0.0263 -0.5244
  176SOPE   O1219979   1.275   5.273  10.951  0.2187  0.4338 -0.0654
  176SOPE   O1119980   1.157   5.190  10.749 -0.0101  0.5716  0.0292
  176SOPE    C119981   1.143   5.086  10.647 -0.3578 -0.1960  0.1949
  176SOPE    HA19982   1.059   5.109  10.578  1.0463  1.8234 -0.8770
  176SOPE    HB19983   1.136   4.983  10.688  0.7819 -0.3117  0.1066
  176SOPE    C219984   1.273   5.087  10.559  0.3241  1.1473  0.9337
  176SOPE    HS19985   1.363   5.050  10.611  1.4680 -1.4221 -2.6312
  176SOPE   O2119986   1.286   5.224  10.513 -0.0223 -0.2230  0.3368
  176SOPE   C2119987   1.398   5.242  10.450 -0.4024 -0.2534 -0.1426
  176SOPE   O2219988   1.488   5.161  10.439 -0.1375 -0.7030  0.4271
  176SOPE   C2219989   1.392   5.379  10.374  0.5412 -0.3420  0.2756
  176SOPE   H2R19990   1.456   5.449  10.432 -1.5769  0.0046  2.2571
  176SOPE   H2S19991   1.286   5.410  10.381 -0.0584 -2.4888  1.2163
  176SOPE    C319992   1.259   4.977  10.445 -0.6572  0.2282 -0.5796
  176SOPE    HX19993   1.236   4.880  10.494  0.6484 -0.0142 -0.4227
  176SOPE    HY19994   1.358   4.953  10.402  0.6397  1.9944  1.3047
  176SOPE   O3119995   1.149   5.003  10.354  0.8923 -0.0790  0.3223
  176SOPE   C3119996   1.167   4.940  10.239 -0.4994 -0.5955  0.6003
  176SOPE   O3219997   1.265   4.886  10.201 -0.0779 -0.3035 -0.1762
  176SOPE   C3219998   1.046   4.958  10.144 -0.2222 -0.4612 -0.9112
  176SOPE   H2X19999   1.016   4.853  10.120 -0.0256 -0.4443 -1.2348
  176SOPE   H2Y20000   1.084   5.000  10.048  1.2287 -0.6681 -0.4386
  176SOPE   C2320001   1.431   5.379  10.216  0.4558 -0.3664  0.2932
  176SOPE   H3R20002   1.535   5.346  10.195  0.9916  2.4150 -1.7391
  176SOPE   H3S20003   1.424   5.479  10.168  2.2681 -0.3036  0.1064
  176SOPE   C2420004   1.333   5.288  10.139  0.1707 -0.6893 -0.0537
  176SOPE   H4R20005   1.346   5.183  10.174  1.7884 -0.6004 -0.3558
  176SOPE   H4S20006   1.232   5.324  10.167  0.1585 -0.5953 -0.2184
  176SOPE   C2520007   1.350   5.294   9.988 -0.1549 -0.4163  0.7558
  176SOPE   H5R20008   1.346   5.398   9.949 -2.5452 -2.3039 -4.4809
  176SOPE   H5S20009   1.450   5.258   9.955 -0.5329 -0.7378 -0.0444
  176SOPE   C2620010   1.233   5.226   9.914  0.5189  0.3878 -0.0727
  176SOPE   H6R20011   1.244   5.119   9.940 -0.6907  0.3038  0.0753
  176SOPE   H6S20012   1.136   5.272   9.943  0.5938 -0.5047  1.7009
  176SOPE   C2720013   1.256   5.237   9.767  0.1352  0.1010  0.5204
  176SOPE   H7R20014   1.232   5.340   9.733  3.1628  0.3728 -0.9427
  176SOPE   H7S20015   1.364   5.217   9.748  0.1515  0.5031  0.1667
  176SOPE   C2820016   1.169   5.138   9.684 -0.0050  0.9031 -0.0177
  176SOPE   H8R20017   1.182   5.146   9.574  0.0983 -1.3734 -0.1923
  176SOPE   H8S20018   1.207   5.035   9.701  0.4539  0.6985 -2.0964
  176SOPE   C2920019   1.022   5.159   9.722 -0.3003 -0.5881 -0.7187
  176SOPE   H9120020   1.000   5.154   9.830  0.0394  1.2738 -0.5446
  176SOPE  C21020021   0.916   5.162   9.637  0.0288  0.1160  0.0187
  176SOPE  H10120022   0.816   5.183   9.679 -0.3915 -1.0951 -0.3664
  176SOPE  C21120023   0.925   5.161   9.485 -0.1341  1.1533 -0.3949
  176SOPE  H11R20024   0.834   5.118   9.439  1.5885  1.0938 -3.8630
  176SOPE  H11S20025   1.018   5.114   9.446  0.5404  1.6115  0.6048
  176SOPE  C21220026   0.910   5.306   9.432 -0.1897  0.3157  0.4235
  176SOPE  H12R20027   0.987   5.376   9.472 -0.5784  1.8068 -1.3895
  176SOPE  H12S20028   0.815   5.358   9.458 -1.5545 -1.4146 -0.9834
  176SOPE  C21320029   0.935   5.313   9.283 -0.7701  0.0828  0.3593
  176SOPE  H13R20030   0.871   5.242   9.226 -0.0989 -1.4549  1.5236
  176SOPE  H13S20031   1.039   5.280   9.266 -1.2842 -0.7759 -1.2267
  176SOPE  C21420032   0.900   5.457   9.236 -0.7100  0.3054  0.2984
  176SOPE  H14R20033   0.946   5.523   9.313 -0.1730 -0.1589  0.3824
  176SOPE  H14S20034   0.791   5.470   9.254 -0.4240 -0.1170  2.3838
  176SOPE  C21520035   0.938   5.483   9.088  0.2369 -0.2409  0.1825
  176SOPE  H15R20036   0.904   5.398   9.026 -0.0786 -0.2365  0.3501
  176SOPE  H15S20037   1.049   5.474   9.077  0.3297 -0.5520  1.3541
  176SOPE  C21620038   0.892   5.610   9.026 -0.5555 -0.1737  0.2183
  176SOPE  H16R20039   0.958   5.693   9.057 -1.1690  0.3186  0.2091
  176SOPE  H16S20040   0.797   5.641   9.073 -2.0116 -0.7871 -2.2088
  176SOPE  C21720041   0.872   5.604   8.876 -0.4963  0.5093 -0.1722
  176SOPE  H17R20042   0.785   5.539   8.853 -0.6920  0.8515 -0.3797
  176SOPE  H17S20043   0.960   5.552   8.830 -2.0516 -0.8473 -1.6931
  176SOPE  C21820044   0.851   5.733   8.805 -0.6753 -0.1364  0.6647
  176SOPE  H18R20045   0.744   5.763   8.804 -0.5741  0.2631 -2.2748
  176SOPE  H18S20046   0.893   5.720   8.703  0.5974 -1.1995  1.3162
  176SOPE  H18T20047   0.897   5.820   8.857  0.9600 -0.2621 -0.5432
  176SOPE   C3320048   0.917   5.021  10.200  0.0010  0.4671 -0.4255
  176SOPE   H3X20049   0.950   5.113  10.252  3.3615 -1.8053  1.5914
  176SOPE   H3Y20050   0.875   4.950  10.274 -1.0780  0.2007 -1.2690
  176SOPE   C3420051   0.803   5.038  10.099 -0.5360 -0.0452  0.3962
  176SOPE   H4X20052   0.839   5.099  10.014 -0.4652 -1.5586 -0.6585
  176SOPE   H4Y20053   0.715   5.085  10.150  1.2753  0.2819  3.3694
  176SOPE   C3520054   0.762   4.909  10.031 -0.0121  0.4115 -0.3130
  176SOPE   H5X20055   0.763   4.819  10.095  1.8669 -0.4290 -1.4700
  176SOPE   H5Y20056   0.834   4.895   9.947  0.9440 -0.1234  0.5881
  176SOPE   C3620057   0.622   4.921   9.968 -0.3792  0.3156 -0.3319
  176SOPE   H6X20058   0.609   5.027   9.937 -0.2466  0.3950 -0.1170
  176SOPE   H6Y20059   0.549   4.896  10.048 -0.8432 -0.2849 -0.9394
  176SOPE   C3720060   0.599   4.810   9.856 -0.5491 -0.1666 -1.2474
  176SOPE   H7X20061   0.612   4.708   9.899  1.0772 -0.0248 -1.3566
  176SOPE   H7Y20062   0.672   4.832   9.775 -1.5701 -1.1957 -2.4559
  176SOPE   C3820063   0.457   4.810   9.803  0.0159  0.0183 -0.3445
  176SOPE   H8X20064   0.423   4.916   9.797  1.9458  0.5160 -3.0961
  176SOPE   H8Y20065   0.374   4.782   9.871  0.8699  1.8944  1.5532
  176SOPE   C3920066   0.446   4.753   9.654  0.5042  0.3493  0.0226
  176SOPE   H9X20067   0.528   4.801   9.597 -0.0070 -0.0300 -1.0502
  176SOPE   H9Y20068   0.345   4.783   9.617 -0.2779 -0.4143  1.4983
  176SOPE  C31020069   0.447   4.598   9.643 -0.1989  0.9198  0.3560
  176SOPE  H10X20070   0.397   4.553   9.731 -0.8787 -1.4556 -1.2072
  176SOPE  H10Y20071   0.554   4.571   9.658 -0.7243 -1.0505  0.6603
  176SOPE  C31120072   0.408   4.540   9.505 -0.1172  0.0241  0.4407
  176SOPE  H11X20073   0.463   4.571   9.414 -1.4842 -0.8435 -0.7172
  176SOPE  H11Y20074   0.303   4.577   9.494  0.4256  0.6281 -3.0416
  176SOPE  C31220075   0.407   4.383   9.501 -0.7006  0.0618 -0.4615
  176SOPE  H12X20076   0.346   4.342   9.584  2.0411 -2.8654  0.2399
  176SOPE  H12Y20077   0.508   4.342   9.527 -0.3742  1.4473  0.4700
  176SOPE  C31320078   0.365   4.335   9.367 -0.2588  0.3950 -0.5962
  176SOPE  H13X20079   0.445   4.347   9.291 -1.2998  1.7789 -1.5059
  176SOPE  H13Y20080   0.267   4.384   9.346 -1.8009 -1.4094  2.0638
  176SOPE  C31420081   0.340   4.183   9.376 -0.8352 -0.3254  0.0431
  176SOPE  H14X20082   0.252   4.170   9.442  0.5183  0.8178  2.1306
  176SOPE  H14Y20083   0.427   4.135   9.426  0.6876  1.4982 -0.7859
  176SOPE  C31520084   0.318   4.114   9.248  0.0240 -0.7376 -0.2643
  176SOPE  H15X20085   0.273   4.014   9.266  1.5443 -1.3979 -0.0203
  176SOPE  H15Y20086   0.420   4.088   9.209  0.4395 -0.0282  0.3579
  176SOPE  C31620087   0.251   4.198   9.135 -0.0289 -0.7427 -0.8890
  176SOPE  H16X20088   0.324   4.263   9.082  1.0150 -1.2618 -0.1080
  176SOPE  H16Y20089   0.175   4.259   9.186  0.3801  1.2531 -2.6008
  176SOPE  C31720090   0.177   4.109   9.037  0.1263  0.2710 -0.3280
  176SOPE  H17X20091   0.109   4.049   9.102  0.3664 -0.4925 -0.7751
  176SOPE  H17Y20092   0.252   4.040   8.992  0.3156  1.0011 -1.1387
  176SOPE  C31820093   0.112   4.184   8.925  0.4302 -0.1847  0.3200
  176SOPE  H18X20094   0.179   4.232   8.851 -0.0288  0.7250  0.4788
  176SOPE  H18Y20095   0.042   4.265   8.956 -0.5315 -0.0855 -2.0400
  176SOPE  H18Z20096   0.053   4.115   8.860  0.3236 -1.0338  1.3045
  177SOPE     N20097   1.120   2.916  11.085 -0.3668  0.0749 -0.5521
  177SOPE   HN120098   1.152   2.820  11.063 -1.3742 -1.1327  2.9107
  177SOPE   HN220099   1.190   2.968  11.142 -0.9244  1.0054 -0.7036
  177SOPE   HN320100   1.045   2.911  11.157 -0.4391 -0.5956 -0.6630
  177SOPE   C1220101   1.068   2.988  10.977 -0.2327 -0.1445  0.2790
  177SOPE  H12A20102   1.143   2.992  10.895  1.9620 -1.6253  2.1419
  177SOPE  H12B20103   1.052   3.094  11.007 -1.5110 -0.0893 -0.5383
  177SOPE   C1120104   0.936   2.927  10.925  0.0855  0.6804  0.0720
  177SOPE  H11A20105   0.959   2.823  10.893  2.4134  1.4141 -0.7433
  177SOPE  H11B20106   0.910   2.976  10.829 -2.9219  0.1291  0.5523
  177SOPE     P20107   0.685   2.975  11.013  0.1311  0.3434  0.3402
  177SOPE   O1320108   0.645   3.052  11.129  0.2170 -0.3494  0.3772
  177SOPE   O1420109   0.599   2.854  10.981  0.1989 -0.2812  0.5136
  177SOPE   O1220110   0.836   2.942  11.028 -0.6151 -0.0892  0.1230
  177SOPE   O1120111   0.697   3.070  10.889 -0.2983 -0.5709  0.1823
  177SOPE    C120112   0.600   3.076  10.783 -0.1039  0.4133 -0.5829
  177SOPE    HA20113   0.560   3.179  10.767 -0.6526 -0.1808 -3.4739
  177SOPE    HB20114   0.511   3.014  10.806  0.9140 -0.7284  0.2887
  177SOPE    C220115   0.666   3.029  10.650 -0.0935 -0.6948  0.1645
  177SOPE    HS20116   0.710   2.928  10.663 -0.0135 -0.3016  3.2585
  177SOPE   O2120117   0.760   3.129  10.603 -0.0651 -0.2837 -0.2413
  177SOPE   C2120118   0.855   3.085  10.521  0.1104  0.3962 -0.1929
  177SOPE   O2220119   0.907   2.972  10.521 -0.1098  0.1622 -0.1447
  177SOPE   C2220120   0.890   3.199  10.428  0.4606  0.0655 -0.5911
  177SOPE   H2R20121   0.988   3.179  10.381  0.2161 -1.0756 -0.6116
  177SOPE   H2S20122   0.899   3.294  10.486  1.0394 -0.0377 -0.5062
  177SOPE    C320123   0.554   3.001  10.543  0.0606  0.0653 -0.3674
  177SOPE    HX20124   0.504   3.099  10.529  0.6197  0.2007 -1.5400
  177SOPE    HY20125   0.470   2.935  10.572  0.0150 -0.1911 -1.0742
  177SOPE   O3120126   0.613   2.970  10.418  0.2532 -0.0529  0.1520
  177SOPE   C3120127   0.645   2.841  10.418  0.2334  0.1520  0.5965
  177SOPE   O3220128   0.653   2.770  10.519  0.2278 -0.5072  0.2181
  177SOPE   C3220129   0.647   2.793  10.271 -0.0521  0.1468  0.2870
  177SOPE   H2X20130   0.729   2.844  10.215  0.0222  0.0226  0.2824
  177SOPE   H2Y20131   0.554   2.836  10.228  0.0593  0.9155  0.8158
  177SOPE   C2320132   0.802   3.216  10.305 -0.1191 -0.2590 -0.6254
  177SOPE   H3R20133   0.702   3.257  10.331 -0.2796 -0.0723 -1.5361
  177SOPE   H3S20134   0.786   3.114  10.265  1.5042 -1.0128  0.5560
  177SOPE   C2420135   0.864   3.311  10.199  0.4334  0.6384  0.1702
  177SOPE   H4R20136   0.781   3.364  10.148 -0.2022 -1.0464 -0.5639
  177SOPE   H4S20137   0.931   3.381  10.255  0.4683 -0.2001  1.1861
  177SOPE   C2520138   0.941   3.224  10.090 -0.0637 -0.8750  0.2665
  177SOPE   H5R20139   0.991   3.136  10.137  0.0320 -0.7729  0.3572
  177SOPE   H5S20140   0.866   3.190  10.015 -2.0505  1.9735  0.8714
  177SOPE   C2620141   1.046   3.304  10.012  0.4354  0.2985 -0.4346
  177SOPE   H6R20142   0.991   3.398   9.990 -2.0227 -0.0405  3.7742
  177SOPE   H6S20143   1.139   3.328  10.067 -0.3456  2.1489  0.1131
  177SOPE   C2720144   1.088   3.222   9.886  0.5346  0.0664 -0.5202
  177SOPE   H7R20145   1.116   3.119   9.915 -1.4731 -0.0450  1.1387
  177SOPE   H7S20146   1.009   3.230   9.808 -1.5395  3.4232  1.7919
  177SOPE   C2820147   1.211   3.278   9.809 -0.9795 -0.6489 -0.3308
  177SOPE   H8R20148   1.291   3.294   9.885 -1.1029 -0.8445 -0.1590
  177SOPE   H8S20149   1.246   3.203   9.735 -1.0397 -0.4261 -0.5837
  177SOPE   C2920150   1.189   3.407   9.741 -0.5452  0.8058  0.0436
  177SOPE   H9120151   1.191   3.495   9.806 -0.0934  0.2414  0.7919
  177SOPE  C21020152   1.164   3.427   9.614 -0.9670  0.5457  0.0015
  177SOPE  H10120153   1.150   3.534   9.589 -1.6272  0.7881  1.3556
  177SOPE  C21120154   1.147   3.321   9.511 -0.1897 -0.0055  0.4154
  177SOPE  H11R20155   1.076   3.356   9.433 -0.8307  2.9133  2.2307
  177SOPE  H11S20156   1.098   3.232   9.558  0.4138 -0.1146  0.8480
  177SOPE  C21220157   1.283   3.281   9.441  0.2803  0.1978  0.6167
  177SOPE  H12R20158   1.264   3.181   9.396  2.8475  0.6867 -1.6765
  177SOPE  H12S20159   1.367   3.255   9.508  0.5106 -0.8677 -0.0836
  177SOPE  C21320160   1.329   3.395   9.343  0.3452 -0.3796  0.1392
  177SOPE  H13R20161   1.338   3.494   9.394  1.9955 -0.6163  0.3139
  177SOPE  H13S20162   1.249   3.422   9.271  0.7631 -0.9613 -0.5419
  177SOPE  C21420163   1.449   3.358   9.267 -0.0551 -0.3883 -0.5780
  177SOPE  H14R20164   1.540   3.356   9.331 -0.4507  1.1548  0.0406
  177SOPE  H14S20165   1.469   3.439   9.193 -0.4652  0.6729  0.4646
  177SOPE  C21520166   1.443   3.224   9.195 -0.6768  0.1752  0.2660
  177SOPE  H15R20167   1.428   3.146   9.272 -1.2873 -0.1395 -0.1626
  177SOPE  H15S20168   1.532   3.214   9.129 -2.5362  1.0537 -2.5066
  177SOPE  C21620169   1.323   3.214   9.093  0.2963 -0.3354 -0.4110
  177SOPE  H16R20170   1.311   3.310   9.039 -2.0722  0.1439  0.9036
  177SOPE  H16S20171   1.232   3.203   9.156  1.4671 -0.1088  1.3377
  177SOPE  C21720172   1.341   3.094   8.998 -0.1089  0.1803  0.5174
  177SOPE  H17R20173   1.248   3.058   8.948  0.7572 -0.9549 -0.3108
  177SOPE  H17S20174   1.385   3.007   9.050  0.3986 -0.4171 -0.8848
  177SOPE  C21820175   1.441   3.118   8.883 -0.1842  0.5176  0.9563
  177SOPE  H18R20176   1.425   3.214   8.830  0.3193  1.3362  2.2622
  177SOPE  H18S20177   1.419   3.045   8.802 -0.0879  0.1595  1.2504
  177SOPE  H18T20178   1.546   3.117   8.917 -0.0504 -1.1742  0.5410
  177SOPE   C3320179   0.625   2.645  10.256 -0.7276 -0.2527  0.6303
  177SOPE   H3X20180   0.545   2.614  10.326 -0.0823 -3.5283 -0.0253
  177SOPE   H3Y20181   0.716   2.592  10.291 -0.6343 -2.4426 -2.6486
  177SOPE   C3420182   0.571   2.598  10.121 -0.0131  0.3564  0.2318
  177SOPE   H4X20183   0.468   2.634  10.101  0.0419  0.8572  0.8284
  177SOPE   H4Y20184   0.567   2.487  10.123 -1.9652  0.3857 -1.1990
  177SOPE   C3520185   0.658   2.633  10.006  0.1647 -0.1781 -0.0898
  177SOPE   H5X20186   0.762   2.592  10.006  1.2853  2.5246  0.3563
  177SOPE   H5Y20187   0.654   2.744   9.995  3.0730 -0.0536 -0.3257
  177SOPE   C3620188   0.594   2.583   9.876 -0.0549 -0.6162 -0.4711
  177SOPE   H6X20189   0.504   2.645   9.858 -1.5212 -2.7462 -0.6405
  177SOPE   H6Y20190   0.559   2.478   9.892 -0.0438 -0.6211 -0.4794
  177SOPE   C3720191   0.687   2.597   9.754  0.4111 -0.2433  0.0403
  177SOPE   H7X20192   0.786   2.551   9.774  0.6545 -0.1556 -0.9406
  177SOPE   H7Y20193   0.701   2.707   9.745  0.4086 -0.4359 -2.7925
  177SOPE   C3820194   0.635   2.550   9.624 -0.2404 -0.2265  0.6317
  177SOPE   H8X20195   0.544   2.603   9.589  0.2607  1.0481  1.2417
  177SOPE   H8Y20196   0.627   2.440   9.611  2.7703 -0.4664  0.5129
  177SOPE   C3920197   0.730   2.599   9.513 -0.3270  0.6659  0.0927
  177SOPE   H9X20198   0.830   2.551   9.520 -1.6143 -2.1101 -0.2744
  177SOPE   H9Y20199   0.746   2.709   9.513 -0.0624  0.6350  0.8232
  177SOPE  C31020200   0.676   2.557   9.378 -1.0873  0.5308 -0.3167
  177SOPE  H10X20201   0.574   2.601   9.366 -2.0121 -0.0145  4.4943
  177SOPE  H10Y20202   0.667   2.447   9.364  2.4973  0.1740 -0.2181
  177SOPE  C31120203   0.774   2.592   9.257 -0.8684 -0.0263 -0.5585
  177SOPE  H11X20204   0.868   2.533   9.252 -0.1749  0.8983  1.2100
  177SOPE  H11Y20205   0.798   2.700   9.265  0.4896 -0.3381 -0.3006
  177SOPE  C31220206   0.716   2.575   9.117 -0.2025 -0.9714 -0.2052
  177SOPE  H12X20207   0.639   2.652   9.094 -0.0235 -0.6429  0.2760
  177SOPE  H12Y20208   0.674   2.473   9.108  0.3515 -1.1128 -1.1230
  177SOPE  C31320209   0.820   2.579   9.005  0.4877 -0.1797  0.2144
  177SOPE  H13X20210   0.889   2.495   9.029 -0.0526 -0.5618  0.4269
  177SOPE  H13Y20211   0.882   2.671   9.003 -1.0731  0.9444  1.6496
  177SOPE  C31420212   0.768   2.556   8.866  0.6567  0.1040 -0.3335
  177SOPE  H14X20213   0.728   2.649   8.821 -2.3204  0.0860  2.1850
  177SOPE  H14Y20214   0.694   2.474   8.869  2.2486 -1.4266 -1.6457
  177SOPE  C31520215   0.882   2.508   8.775  0.6633 -0.0712  0.3100
  177SOPE  H15X20216   0.977   2.566   8.779  0.6535 -0.0024 -0.3489
  177SOPE  H15Y20217   0.843   2.525   8.673  1.1404 -0.9095 -0.0256
  177SOPE  C31620218   0.918   2.360   8.780 -0.1725 -0.8844 -0.5408
  177SOPE  H16X20219   0.838   2.283   8.785  1.4142 -2.4752  0.9155
  177SOPE  H16Y20220   0.968   2.353   8.879  0.3560 -1.0245 -0.8174
  177SOPE  C31720221   1.034   2.325   8.690  0.6720  0.1067  0.3822
  177SOPE  H17X20222   1.083   2.241   8.744 -0.6188 -0.4638  0.6761
  177SOPE  H17Y20223   1.106   2.408   8.670  1.3708 -0.8806 -1.2299
  177SOPE  C31820224   0.978   2.283   8.559 -0.4070  0.2806 -0.0705
  177SOPE  H18X20225   1.055   2.272   8.480 -0.0361  2.4998 -0.0487
  177SOPE  H18Y20226   0.885   2.332   8.524 -0.2015  0.9309  0.3005
  177SOPE  H18Z20227   0.933   2.184   8.584  1.8929 -0.1296  2.6984
  178SOPE     N20228   4.975   2.178  10.645  0.0893  0.1321  0.1859
  178SOPE   HN120229   4.966   2.140  10.549 -2.7146  2.7578 -0.6888
  178SOPE   HN220230   4.945   2.105  10.712 -0.9333 -0.2697 -0.6900
  178SOPE   HN320231   4.916   2.261  10.665  0.4483  0.6889 -0.9948
  178SOPE   C1220232   5.118   2.187  10.688  0.2219 -0.2718  0.1617
  178SOPE  H12A20233   5.130   2.232  10.789 -0.3344  1.5348 -0.5665
  178SOPE  H12B20234   5.162   2.263  10.621  1.6901 -0.8566  0.4453
  178SOPE   C1120235   5.176   2.045  10.682 -0.2862  0.7896  0.2972
  178SOPE  H11A20236   5.285   2.051  10.702  0.1574  1.0725 -2.1294
  178SOPE  H11B20237   5.181   2.011  10.577  0.0494 -1.5341  1.0348
  178SOPE     P20238   5.019   1.848  10.746  0.3059 -0.1336 -0.2851
  178SOPE   O1320239   4.889   1.905  10.711  0.1077  0.0941 -0.5764
  178SOPE   O1420240   5.017   1.749  10.860  0.0255  0.7557 -0.4275
  178SOPE   O1220241   5.117   1.964  10.781 -0.3309 -1.0382  0.3695
  178SOPE   O1120242   5.089   1.777  10.623  0.6077 -0.1680 -0.4354
  178SOPE    C120243   5.020   1.671  10.549 -0.0306  0.1968 -0.6179
  178SOPE    HA20244   4.972   1.605  10.624  0.4576  0.6344  0.0870
  178SOPE    HB20245   5.086   1.599  10.496 -0.0242 -0.0657 -0.2595
  178SOPE    C220246   4.928   1.731  10.437 -0.4159 -0.7258 -0.1229
  178SOPE    HS20247   4.859   1.801  10.490 -1.5549 -1.3299 -0.8000
  178SOPE   O2120248   4.868   1.624  10.380 -0.0414  0.6558 -0.0913
  178SOPE   C2120249   4.747   1.645  10.334  0.2793 -0.2405 -0.0571
  178SOPE   O2220250   4.688   1.747  10.346  0.1462 -0.4439  0.1892
  178SOPE   C2220251   4.686   1.518  10.279  0.2499 -0.5399  0.3597
  178SOPE   H2R20252   4.608   1.489  10.352  0.7809  1.6339  1.8492
  178SOPE   H2S20253   4.757   1.433  10.267 -1.6845 -1.9940 -1.1833
  178SOPE    C320254   5.007   1.801  10.332 -0.2934 -0.3840 -0.1466
  178SOPE    HX20255   5.053   1.725  10.267 -1.4557  1.0648 -2.7587
  178SOPE    HY20256   5.091   1.860  10.374 -0.4565 -0.1985 -0.0786
  178SOPE   O3120257   4.926   1.881  10.247  0.0169  0.6288 -0.2919
  178SOPE   C3120258   4.893   1.996  10.305  0.5710 -0.6100  0.5511
  178SOPE   O3220259   4.920   2.033  10.419 -0.1466  0.5848  0.7616
  178SOPE   C3220260   4.799   2.068  10.211  0.1593  0.2910 -0.0718
  178SOPE   H2X20261   4.801   2.178  10.227 -0.7964  0.4973 -1.3180
  178SOPE   H2Y20262   4.695   2.033  10.229  0.0152 -0.3793 -2.0843
  178SOPE   C2320263   4.615   1.553  10.148  0.4330 -0.4080  0.2386
  178SOPE   H3R20264   4.541   1.631  10.174  1.0588  0.0117  0.7551
  178SOPE   H3S20265   4.549   1.468  10.118  0.8941 -0.2207 -1.3456
  178SOPE   C2420266   4.703   1.595  10.037 -0.2726 -0.3359 -0.4808
  178SOPE   H4R20267   4.785   1.660  10.075  1.3658 -0.8560 -2.9891
  178SOPE   H4S20268   4.752   1.503   9.999  1.2078  0.1758  0.1396
  178SOPE   C2520269   4.621   1.659   9.925  0.5867 -0.3039  0.3327
  178SOPE   H5R20270   4.532   1.596   9.907  1.1748 -1.2717  0.7602
  178SOPE   H5S20271   4.578   1.756   9.958  0.4972  0.5301 -2.1432
  178SOPE   C2620272   4.717   1.666   9.800 -0.6268  0.4104 -0.3105
  178SOPE   H6R20273   4.816   1.714   9.814 -1.4365  1.7195  1.0824
  178SOPE   H6S20274   4.729   1.562   9.761  1.6687  0.4521  0.2278
  178SOPE   C2720275   4.648   1.744   9.693 -0.5548  0.1913 -0.2028
  178SOPE   H7R20276   4.544   1.707   9.682 -0.7992  1.4005 -2.2621
  178SOPE   H7S20277   4.619   1.848   9.717  0.6252  0.2600  0.9756
  178SOPE   C2820278   4.709   1.739   9.548 -0.5773  0.0455  0.3422
  178SOPE   H8R20279   4.707   1.630   9.526 -0.8988  0.3759 -1.3549
  178SOPE   H8S20280   4.634   1.783   9.480 -1.2071  3.4765  3.1057
  178SOPE   C2920281   4.845   1.808   9.540  0.1569  0.0015  0.1967
  178SOPE   H9120282   4.870   1.865   9.631  0.2074 -0.1854  0.2984
  178SOPE  C21020283   4.944   1.791   9.450 -0.1120  0.0814 -0.1161
  178SOPE  H10120284   5.037   1.833   9.490 -1.0010 -0.7853  2.9865
  178SOPE  C21120285   4.939   1.695   9.334 -0.3538 -0.6320 -0.7047
  178SOPE  H11R20286   4.838   1.691   9.289  0.2077 -3.1720 -1.8655
  178SOPE  H11S20287   4.958   1.589   9.361 -1.9995 -0.5892  0.7453
  178SOPE  C21220288   5.035   1.730   9.223 -0.3337 -0.0195  0.2328
  178SOPE  H12R20289   5.143   1.714   9.245  0.3729  2.7435 -0.9757
  178SOPE  H12S20290   5.020   1.838   9.199  0.9689  0.0088 -0.4853
  178SOPE  C21320291   5.019   1.640   9.101 -0.3933 -0.0976 -0.3642
  178SOPE  H13R20292   4.910   1.641   9.078 -0.8074  1.4600  1.4427
  178SOPE  H13S20293   5.059   1.540   9.127  3.3324  1.1226 -1.0991
  178SOPE  C21420294   5.101   1.688   8.979 -0.0624 -0.5031  0.1666
  178SOPE  H14R20295   5.208   1.706   8.998  0.1185  0.8266 -1.9406
  178SOPE  H14S20296   5.075   1.792   8.949 -1.3330 -0.7160  0.4975
  178SOPE  C21520297   5.079   1.604   8.852  0.0491  0.6565  0.1881
  178SOPE  H15R20298   4.970   1.596   8.836  0.0216  0.2866  0.5475
  178SOPE  H15S20299   5.124   1.503   8.863 -0.3447  0.5273  0.6161
  178SOPE  C21620300   5.145   1.681   8.735 -0.2094  0.0061 -0.3935
  178SOPE  H16R20301   5.254   1.667   8.746 -0.5171 -1.1101  1.6487
  178SOPE  H16S20302   5.127   1.790   8.747 -0.7514 -0.4724  4.1543
  178SOPE  C21720303   5.105   1.633   8.590  0.7818  0.2509 -0.0072
  178SOPE  H17R20304   4.996   1.615   8.576  1.0850 -0.0447 -1.9793
  178SOPE  H17S20305   5.154   1.534   8.580  0.3192  0.2115 -1.9660
  178SOPE  C21820306   5.145   1.726   8.486  0.0287  0.6118  0.1069
  178SOPE  H18R20307   5.113   1.699   8.383  0.7017 -0.4318  0.1656
  178SOPE  H18S20308   5.256   1.735   8.478 -0.0340  0.9748 -0.4163
  178SOPE  H18T20309   5.100   1.825   8.508 -1.4789  0.1262 -0.7334
  178SOPE   C3320310   4.827   2.037  10.062  0.6331  0.5339 -0.2158
  178SOPE   H3X20311   4.743   2.086  10.008  0.9824  0.3632 -0.9171
  178SOPE   H3Y20312   4.815   1.929  10.037 -0.6307  0.9472 -1.4327
  178SOPE   C3420313   4.968   2.078  10.016  0.7825 -0.4257  1.0543
  178SOPE   H4X20314   5.036   2.006  10.066  1.0099  0.8898  2.6708
  178SOPE   H4Y20315   4.984   2.186  10.038  0.7686  0.2312 -1.8836
  178SOPE   C3520316   4.993   2.058   9.858  0.0361 -0.4011 -0.3155
  178SOPE   H5X20317   4.915   2.105   9.795 -0.2100  2.3218  1.9196
  178SOPE   H5Y20318   4.994   1.949   9.840 -4.1534 -1.1982  3.5222
  178SOPE   C3620319   5.126   2.128   9.823 -0.6632 -0.6246  0.2302
  178SOPE   H6X20320   5.204   2.076   9.884 -1.0503  1.4673  2.5451
  178SOPE   H6Y20321   5.117   2.231   9.863  0.5572 -0.2475 -0.4178
  178SOPE   C3720322   5.178   2.117   9.676 -1.2313 -0.2905 -0.8482
  178SOPE   H7X20323   5.186   2.008   9.653 -1.3545 -0.9516  2.0959
  178SOPE   H7Y20324   5.276   2.169   9.672 -1.0358 -0.4775  0.9460
  178SOPE   C3820325   5.078   2.181   9.581 -0.3196 -0.0603  0.6343
  178SOPE   H8X20326   5.044   2.277   9.625 -0.5366 -0.0625  0.4677
  178SOPE   H8Y20327   4.987   2.119   9.569  0.0870 -0.7188  0.9024
  178SOPE   C3920328   5.132   2.205   9.440  0.2238  0.2951 -0.5252
  178SOPE   H9X20329   5.233   2.247   9.456  0.1607 -0.4582  1.9423
  178SOPE   H9Y20330   5.065   2.283   9.398 -0.1553  0.8019  1.0223
  178SOPE  C31020331   5.143   2.082   9.350 -1.0152 -0.0184 -0.2020
  178SOPE  H10X20332   5.044   2.037   9.328 -0.8453 -0.4768 -0.0230
  178SOPE  H10Y20333   5.217   2.009   9.389  0.4967  0.9142 -1.2813
  178SOPE  C31120334   5.181   2.126   9.205 -0.8006  0.1872 -0.2317
  178SOPE  H11X20335   5.265   2.197   9.219 -1.3274  0.8261 -0.3026
  178SOPE  H11Y20336   5.092   2.178   9.164 -1.0008 -0.9214 -1.2281
  178SOPE  C31220337   5.241   2.011   9.127 -0.1381 -0.1934  0.7503
  178SOPE  H12X20338   5.152   1.953   9.093 -0.7359  0.5752  0.9899
  178SOPE  H12Y20339   5.303   1.942   9.189  0.6326 -0.7462 -0.6193
  178SOPE  C31320340   5.326   2.059   9.009  0.5962 -0.3209 -0.1818
  178SOPE  H13X20341   5.420   2.105   9.047 -0.8252  2.0372  0.5132
  178SOPE  H13Y20342   5.270   2.138   8.955 -0.1336  1.0929  2.5953
  178SOPE  C31420343   5.363   1.938   8.918 -0.2543  0.5114 -0.0828
  178SOPE  H14X20344   5.273   1.893   8.870  1.1504  0.2794 -2.5542
  178SOPE  H14Y20345   5.423   1.863   8.974  0.4393  0.2988 -1.0881
  178SOPE  C31520346   5.451   1.996   8.806  0.0324 -0.2795  0.5895
  178SOPE  H15X20347   5.550   2.032   8.840 -0.4046  2.4624 -0.9193
  178SOPE  H15Y20348   5.400   2.086   8.765  3.2483  1.7752  0.9375
  178SOPE  C31620349   5.484   1.899   8.695  0.8290 -0.1064 -0.9324
  178SOPE  H16X20350   5.386   1.893   8.642  0.3396  0.6886 -0.1301
  178SOPE  H16Y20351   5.524   1.800   8.725  1.1193  0.5381  0.8393
  178SOPE  C31720352   5.600   1.949   8.603 -0.1461 -0.5084  1.0907
  178SOPE  H17X20353   5.692   1.967   8.661 -0.1553  0.0383  0.9324
  178SOPE  H17Y20354   5.566   2.040   8.549 -0.0263  0.8552  3.2885
  178SOPE  C31820355   5.629   1.855   8.482 -0.0878  0.0791 -0.6495
  178SOPE  H18X20356   5.698   1.769   8.500 -1.7450 -1.2133 -0.4113
  178SOPE  H18Y20357   5.658   1.901   8.385 -1.7971 -1.2662 -1.8160
  178SOPE  H18Z20358   5.534   1.801   8.463 -1.5335  2.4947 -0.4338
  179SOPE     N20359   3.814   4.206   6.235 -0.8003  0.4646 -0.0998
  179SOPE   HN120360   3.745   4.153   6.178  0.7129 -1.8070  0.1461
  179SOPE   HN220361   3.776   4.298   6.267 -0.2363  0.6865 -0.0730
  179SOPE   HN320362   3.900   4.216   6.179 -1.8001 -0.8863 -1.9015
  179SOPE   C1220363   3.852   4.135   6.358 -0.1487  0.6732  0.7951
  179SOPE  H12A20364   3.949   4.175   6.394  0.4166  0.6942 -0.7530
  179SOPE  H12B20365   3.857   4.026   6.343  0.1767  0.8349 -0.2616
  179SOPE   C1120366   3.754   4.169   6.470 -0.3016  0.0937 -0.2683
  179SOPE  H11A20367   3.755   4.278   6.488 -0.4472  0.7936 -4.2293
  179SOPE  H11B20368   3.785   4.109   6.559  1.2575 -0.9752 -1.4832
  179SOPE     P20369   3.561   3.976   6.428  0.3585 -0.0016  0.3277
  179SOPE   O1320370   3.645   3.909   6.331 -0.9341 -0.0275 -0.1129
  179SOPE   O1420371   3.416   3.978   6.393 -0.0400  0.0563 -0.2375
  179SOPE   O1220372   3.618   4.126   6.442 -0.3836 -0.0377  0.7147
  179SOPE   O1120373   3.586   3.916   6.569 -0.2460 -0.2133  0.2498
  179SOPE    C120374   3.532   3.985   6.688 -0.6212  0.2541  0.4060
  179SOPE    HA20375   3.449   4.054   6.663  1.0602  3.0849  2.3506
  179SOPE    HB20376   3.612   4.050   6.729 -0.4301 -0.6342  1.4772
  179SOPE    C220377   3.487   3.886   6.802 -0.4163 -0.0196 -0.4808
  179SOPE    HS20378   3.437   3.942   6.883  1.0704  1.3616 -0.4938
  179SOPE   O2120379   3.604   3.812   6.849 -0.0750  0.1584 -0.5145
  179SOPE   C2120380   3.608   3.781   6.976 -0.3142  0.2154  0.1731
  179SOPE   O2220381   3.543   3.834   7.064  0.1215  0.3770  0.0741
  179SOPE   C2220382   3.713   3.674   7.004  0.5216 -0.5064 -0.4301
  179SOPE   H2R20383   3.805   3.723   6.967  0.7625  2.2583  3.5908
  179SOPE   H2S20384   3.701   3.577   6.950 -1.6828  0.3497 -1.5479
  179SOPE    C320385   3.376   3.784   6.754 -0.4103  0.6386 -0.1160
  179SOPE    HX20386   3.416   3.724   6.670 -1.8635 -1.3544  0.5943
  179SOPE    HY20387   3.299   3.848   6.706 -2.6614 -0.9929  1.2429
  179SOPE   O3120388   3.316   3.701   6.853  0.1560 -0.2223 -0.4009
  179SOPE   C3120389   3.231   3.756   6.934  0.1868  0.1919  0.6638
  179SOPE   O3220390   3.198   3.874   6.926  0.6020  0.0405 -0.4283
  179SOPE   C3220391   3.170   3.659   7.033 -0.1430 -0.1761 -0.5630
  179SOPE   H2X20392   3.236   3.570   7.042  0.3807  0.0733 -1.7584
  179SOPE   H2Y20393   3.075   3.621   6.990  0.3192 -0.8032 -1.0384
  179SOPE   C2320394   3.729   3.649   7.160  0.0538  0.4310 -0.1024
  179SOPE   H3R20395   3.748   3.747   7.207  1.4682  0.3315 -0.4421
  179SOPE   H3S20396   3.826   3.596   7.171 -1.0369 -1.3763  1.1661
  179SOPE   C2420397   3.605   3.581   7.216  0.0737 -0.2791 -0.1172
  179SOPE   H4R20398   3.517   3.635   7.175  1.4598  0.7691 -1.7765
  179SOPE   H4S20399   3.600   3.476   7.179  2.6898 -0.7156  0.6606
  179SOPE   C2520400   3.593   3.595   7.375 -0.4637  0.1357  0.4681
  179SOPE   H5R20401   3.620   3.499   7.424  2.6534  0.7844  0.1018
  179SOPE   H5S20402   3.667   3.671   7.406 -0.7246 -0.5747  2.9163
  179SOPE   C2620403   3.457   3.655   7.415  0.0362  0.2678  0.3453
  179SOPE   H6R20404   3.446   3.752   7.363  1.7975  0.2816 -0.0226
  179SOPE   H6S20405   3.371   3.595   7.377 -0.1491  2.1983 -2.4347
  179SOPE   C2720406   3.445   3.700   7.569  0.3418  0.4121  0.4530
  179SOPE   H7R20407   3.484   3.804   7.566  1.7159 -0.1281 -1.2154
  179SOPE   H7S20408   3.339   3.700   7.601 -0.0016 -1.6652 -0.6295
  179SOPE   C2820409   3.522   3.615   7.672 -0.0597  0.4135  0.7292
  179SOPE   H8R20410   3.625   3.600   7.631 -0.8204 -0.7937 -0.8206
  179SOPE   H8S20411   3.539   3.675   7.764 -0.3070 -0.3818  1.3002
  179SOPE   C2920412   3.454   3.486   7.710  0.1386 -0.0230 -0.1193
  179SOPE   H9120413   3.474   3.408   7.635  1.8082 -1.4598  1.7667
  179SOPE  C21020414   3.402   3.454   7.829 -0.1849 -0.6401  0.5221
  179SOPE  H10120415   3.352   3.357   7.843 -0.5902 -0.7406 -1.5141
  179SOPE  C21120416   3.400   3.546   7.944 -0.0478  0.7878  0.4227
  179SOPE  H11R20417   3.302   3.598   7.940 -0.9118 -0.9171 -3.3692
  179SOPE  H11S20418   3.482   3.622   7.943 -1.4473  2.3149  0.1557
  179SOPE  C21220419   3.424   3.473   8.073  0.5188  0.0739  0.3827
  179SOPE  H12R20420   3.451   3.547   8.151 -2.4645  1.6584 -0.0416
  179SOPE  H12S20421   3.511   3.406   8.055  0.1099 -0.2567 -0.3711
  179SOPE  C21320422   3.295   3.405   8.127  0.3588  0.0713  0.0091
  179SOPE  H13R20423   3.256   3.330   8.054 -1.8606 -0.2058  1.4424
  179SOPE  H13S20424   3.226   3.490   8.147  1.2258  0.8813 -0.3724
  179SOPE  C21420425   3.337   3.337   8.258 -0.2547  0.6167  0.3761
  179SOPE  H14R20426   3.403   3.408   8.313  1.3432 -3.2255  3.6106
  179SOPE  H14S20427   3.389   3.241   8.239 -1.2781  0.5430 -2.3115
  179SOPE  C21520428   3.222   3.315   8.355  0.1140 -0.7357  0.7041
  179SOPE  H15R20429   3.134   3.293   8.291  0.3621  0.0237  0.1013
  179SOPE  H15S20430   3.208   3.408   8.415  1.8911 -0.8654  1.3543
  179SOPE  C21620431   3.253   3.209   8.465 -0.0129 -0.0616  0.4133
  179SOPE  H16R20432   3.350   3.245   8.506  0.0275  0.6819 -0.3144
  179SOPE  H16S20433   3.260   3.108   8.419  0.0926  0.0997  0.0747
  179SOPE  C21720434   3.139   3.192   8.564 -0.4646  0.3943  0.4279
  179SOPE  H17R20435   3.053   3.147   8.510 -1.4974  2.5270  0.2486
  179SOPE  H17S20436   3.134   3.294   8.609  1.0437  1.9292 -2.6587
  179SOPE  C21820437   3.182   3.096   8.670 -0.1510  0.1914 -0.6775
  179SOPE  H18R20438   3.101   3.099   8.746 -0.1590 -0.3061 -0.6630
  179SOPE  H18S20439   3.267   3.123   8.736 -1.0639  1.8261 -0.1443
  179SOPE  H18T20440   3.192   3.005   8.608  1.6978  0.5704 -0.9618
  179SOPE   C3320441   3.134   3.730   7.170 -0.6863 -0.3437  1.1563
  179SOPE   H3X20442   3.064   3.812   7.143  0.1121 -0.6410 -2.0530
  179SOPE   H3Y20443   3.217   3.787   7.217 -0.9274  1.1653 -0.1871
  179SOPE   C3420444   3.076   3.635   7.266  0.6431  0.1517 -0.5954
  179SOPE   H4X20445   3.149   3.552   7.271 -0.1426 -0.4025  2.6340
  179SOPE   H4Y20446   2.982   3.590   7.227  1.6938 -3.0673  0.4851
  179SOPE   C3520447   3.048   3.680   7.414 -0.2048  0.1529  0.0868
  179SOPE   H5X20448   3.001   3.781   7.413  3.6021  1.9964 -0.4951
  179SOPE   H5Y20449   3.140   3.704   7.471 -0.1875 -1.1924  0.6477
  179SOPE   C3620450   2.959   3.586   7.498 -0.1677 -0.3116 -1.4939
  179SOPE   H6X20451   3.005   3.486   7.508  0.7676  0.0054 -2.5172
  179SOPE   H6Y20452   2.857   3.573   7.457 -1.3511  1.3228  0.7837
  179SOPE   C3720453   2.945   3.644   7.643  0.1996 -0.9471  0.2667
  179SOPE   H7X20454   2.870   3.725   7.635 -2.0051 -2.6359  2.8497
  179SOPE   H7Y20455   3.040   3.694   7.671 -0.9722  1.9949 -0.8144
  179SOPE   C3820456   2.902   3.546   7.755 -0.2982  0.1668  0.4745
  179SOPE   H8X20457   2.985   3.475   7.774 -0.0138  0.6145  0.9165
  179SOPE   H8Y20458   2.818   3.483   7.719 -0.3357 -0.2544  1.2874
  179SOPE   C3920459   2.872   3.608   7.894 -0.5517 -0.0783 -0.2890
  179SOPE   H9X20460   2.829   3.535   7.966 -2.0893  0.5844 -0.5150
  179SOPE   H9Y20461   2.811   3.700   7.885  1.7366  1.5026 -0.0368
  179SOPE  C31020462   3.001   3.665   7.958  0.5839 -0.6880 -0.3295
  179SOPE  H10X20463   3.035   3.754   7.901 -1.4903  0.3116 -0.0577
  179SOPE  H10Y20464   3.083   3.589   7.955  0.6025 -0.7563  1.4274
  179SOPE  C31120465   2.997   3.710   8.105  0.1277 -0.7082  0.0681
  179SOPE  H11X20466   2.981   3.614   8.160 -0.4539 -0.0298  1.0956
  179SOPE  H11Y20467   2.900   3.761   8.118 -1.1128 -2.1751 -2.9497
  179SOPE  C31220468   3.117   3.790   8.153  0.4527 -0.7754 -0.3758
  179SOPE  H12X20469   3.137   3.875   8.084  1.8586  1.0018  2.1200
  179SOPE  H12Y20470   3.204   3.723   8.172 -0.4554 -2.2385 -1.3133
  179SOPE  C31320471   3.101   3.849   8.295  0.2663  0.1639 -0.2996
  179SOPE  H13X20472   3.013   3.911   8.272  0.7295  1.4214  1.2627
  179SOPE  H13Y20473   3.184   3.921   8.310  1.3050 -0.9903 -0.3692
  179SOPE  C31420474   3.083   3.747   8.411  0.0190 -0.0813  0.7534
  179SOPE  H14X20475   3.173   3.688   8.437 -0.1299 -0.2324  0.9203
  179SOPE  H14Y20476   2.997   3.680   8.389 -0.3656  0.3463  0.9449
  179SOPE  C31520477   3.053   3.820   8.538 -0.4279  0.4509 -0.2445
  179SOPE  H15X20478   2.952   3.866   8.531 -1.2573 -0.8279  2.6974
  179SOPE  H15Y20479   3.129   3.899   8.553 -0.9075  0.8645  0.0309
  179SOPE  C31620480   3.061   3.722   8.656  0.0393  0.0310 -0.0528
  179SOPE  H16X20481   3.148   3.653   8.657 -0.0478 -0.0795 -0.1276
  179SOPE  H16Y20482   2.963   3.668   8.650  0.0505  0.0501 -0.4169
  179SOPE  C31720483   3.038   3.784   8.786 -0.0479  0.1707  0.4824
  179SOPE  H17X20484   2.981   3.879   8.775 -0.9661 -0.4567 -0.1525
  179SOPE  H17Y20485   3.139   3.814   8.822  0.2032  0.9763 -0.8574
  179SOPE  C31820486   2.976   3.695   8.889  0.3908 -0.5947 -0.0135
  179SOPE  H18X20487   2.973   3.740   8.991 -1.0671 -0.3250 -0.1692
  179SOPE  H18Y20488   3.048   3.611   8.900  1.2720  0.1276 -0.1829
  179SOPE  H18Z20489   2.875   3.668   8.851 -0.3556  1.3586  0.5413
  180SOPE     N20490   2.972   2.683   5.810 -1.0194  0.1030 -0.0408
  180SOPE   HN120491   3.005   2.593   5.770 -0.8192 -0.3959  1.2245
  180SOPE   HN220492   2.953   2.750   5.733  2.6490  0.5173 -0.7008
  180SOPE   HN320493   3.041   2.720   5.878 -1.2990 -0.0076  0.3044
  180SOPE   C1220494   2.847   2.634   5.879  0.3207  0.1038  0.3138
  180SOPE  H12A20495   2.878   2.579   5.970  2.2804  2.6004  1.2303
  180SOPE  H12B20496   2.780   2.585   5.805  0.2403 -1.4129  1.3637
  180SOPE   C1120497   2.763   2.744   5.944  0.6788 -0.6784 -0.6267
  180SOPE  H11A20498   2.696   2.682   6.007  1.3264 -0.3221  0.4246
  180SOPE  H11B20499   2.697   2.805   5.878 -0.0022 -0.7840 -0.0574
  180SOPE     P20500   2.864   2.817   6.178  0.0349 -0.3149  0.1889
  180SOPE   O1320501   2.958   2.925   6.215  0.4461 -0.4584  0.0282
  180SOPE   O1420502   2.897   2.674   6.207 -0.2206 -0.1199 -0.0171
  180SOPE   O1220503   2.841   2.828   6.028 -0.2344 -0.6282 -0.0212
  180SOPE   O1120504   2.723   2.839   6.240 -0.3451 -0.3089  0.1246
  180SOPE    C120505   2.660   2.964   6.233  0.1803  0.2930 -0.4497
  180SOPE    HA20506   2.566   2.960   6.174 -0.0770  1.1545 -0.0993
  180SOPE    HB20507   2.734   3.040   6.198  2.0547 -1.1286  0.3219
  180SOPE    C220508   2.627   3.015   6.377 -0.6886  0.7468  0.4085
  180SOPE    HS20509   2.637   3.126   6.385  0.6983  0.5637  1.5037
  180SOPE   O2120510   2.721   2.943   6.462  0.0381 -0.0584  0.2329
  180SOPE   C2120511   2.775   3.002   6.568 -0.1780 -0.0317  0.4431
  180SOPE   O2220512   2.752   3.115   6.609 -0.3776 -0.7289 -0.4056
  180SOPE   C2220513   2.863   2.906   6.652 -0.6940  0.0319 -0.2753
  180SOPE   H2R20514   2.924   2.964   6.724  1.0625 -1.9160 -0.1475
  180SOPE   H2S20515   2.934   2.857   6.582  1.1472  1.8290  0.2798
  180SOPE    C320516   2.481   2.989   6.417 -0.6103  0.1753 -0.1202
  180SOPE    HX20517   2.469   2.878   6.408  0.6775 -0.1401  1.8132
  180SOPE    HY20518   2.408   3.033   6.345 -1.1019  0.2731  0.4298
  180SOPE   O3120519   2.468   3.024   6.554  0.0819  1.4090  0.1018
  180SOPE   C3120520   2.437   3.147   6.567 -0.0402  0.4485  0.1398
  180SOPE   O3220521   2.409   3.230   6.478  0.2183 -0.0474 -0.3760
  180SOPE   C3220522   2.445   3.169   6.716 -0.0120 -0.4183  1.0205
  180SOPE   H2X20523   2.551   3.158   6.747  0.3031  0.9911  0.5083
  180SOPE   H2Y20524   2.387   3.089   6.767  2.7657 -1.6451  2.3495
  180SOPE   C2320525   2.777   2.805   6.729 -1.3431  0.3089  0.1059
  180SOPE   H3R20526   2.684   2.854   6.764  0.5505  3.4268  1.0430
  180SOPE   H3S20527   2.818   2.769   6.826  0.3332 -0.8861 -1.0175
  180SOPE   C2420528   2.757   2.674   6.639 -0.0951 -0.4011  0.4877
  180SOPE   H4R20529   2.709   2.686   6.540 -0.4039  0.3426  0.7243
  180SOPE   H4S20530   2.858   2.627   6.637 -0.3113 -0.8610  0.3500
  180SOPE   C2520531   2.659   2.579   6.708 -0.0525 -0.1913 -0.6130
  180SOPE   H5R20532   2.559   2.624   6.689 -1.0172 -2.3927 -0.8741
  180SOPE   H5S20533   2.672   2.486   6.650 -1.4727 -0.6663 -0.1895
  180SOPE   C2620534   2.687   2.549   6.860 -0.6653  0.3858  0.7255
  180SOPE   H6R20535   2.658   2.636   6.922 -1.1222 -0.4453  1.6802
  180SOPE   H6S20536   2.625   2.470   6.907 -1.0261  0.5173  0.4761
  180SOPE   C2720537   2.835   2.514   6.890 -0.2318  0.4370  0.9777
  180SOPE   H7R20538   2.870   2.424   6.835  0.9726  1.4201  0.0947
  180SOPE   H7S20539   2.898   2.600   6.859  1.2053 -0.8213  0.3383
  180SOPE   C2820540   2.866   2.482   7.033 -0.3569  0.1789  0.0682
  180SOPE   H8R20541   2.797   2.404   7.072 -0.9351  0.9384  0.5796
  180SOPE   H8S20542   2.969   2.443   7.048 -0.2645  0.7681  1.0410
  180SOPE   C2920543   2.850   2.605   7.116  0.5660  0.0650 -0.7021
  180SOPE   H9120544   2.923   2.682   7.085  1.8935 -1.4659 -1.4418
  180SOPE  C21020545   2.766   2.637   7.215  1.2666  0.3777  0.0325
  180SOPE  H10120546   2.777   2.731   7.271 -0.3532  0.9419 -0.5558
  180SOPE  C21120547   2.660   2.546   7.275  0.5867 -0.1933 -0.5484
  180SOPE  H11R20548   2.679   2.438   7.255 -3.3418 -0.5906 -2.6296
  180SOPE  H11S20549   2.562   2.575   7.231  0.2303  0.1072  0.4420
  180SOPE  C21220550   2.655   2.572   7.429 -1.1823  0.7574 -0.4722
  180SOPE  H12R20551   2.560   2.523   7.459 -1.7107  1.8768 -0.3185
  180SOPE  H12S20552   2.646   2.678   7.461  0.0200  0.9669 -0.7959
  180SOPE  C21320553   2.762   2.503   7.511 -0.5400 -0.3191 -0.3526
  180SOPE  H13R20554   2.860   2.537   7.471  0.7369 -0.5572  2.4037
  180SOPE  H13S20555   2.761   2.393   7.497  2.6721 -0.5038  0.4851
  180SOPE  C21420556   2.753   2.538   7.664  1.0643  0.2664 -0.0965
  180SOPE  H14R20557   2.642   2.543   7.675  1.0896  2.1487 -0.6294
  180SOPE  H14S20558   2.800   2.633   7.696  0.5296  0.1654  1.0179
  180SOPE  C21520559   2.805   2.425   7.760 -0.6865  0.2440 -0.0855
  180SOPE  H15R20560   2.913   2.409   7.738 -0.2699  1.5921  0.9002
  180SOPE  H15S20561   2.760   2.327   7.732 -2.6335  1.2621 -0.6243
  180SOPE  C21620562   2.782   2.454   7.909  0.3209 -0.1337 -0.0592
  180SOPE  H16R20563   2.813   2.557   7.937 -0.0152  0.0353 -0.2965
  180SOPE  H16S20564   2.840   2.383   7.972  2.8207  0.4156 -1.7002
  180SOPE  C21720565   2.639   2.420   7.943  0.5779 -0.0806  0.1231
  180SOPE  H17R20566   2.602   2.318   7.917 -3.3746  1.4094 -0.4604
  180SOPE  H17S20567   2.578   2.490   7.882 -0.4893 -1.7749 -0.7990
  180SOPE  C21820568   2.602   2.448   8.089  0.0783  0.0299 -0.2922
  180SOPE  H18R20569   2.639   2.357   8.141  0.8482 -0.8980 -2.3876
  180SOPE  H18S20570   2.494   2.439   8.110  0.1940  0.8883  0.6685
  180SOPE  H18T20571   2.649   2.539   8.132 -3.1151  1.8739 -0.5567
  180SOPE   C3320572   2.404   3.321   6.737 -0.2129 -0.2458 -1.0012
  180SOPE   H3X20573   2.299   3.330   6.702  0.2029  1.0073 -1.9664
  180SOPE   H3Y20574   2.472   3.379   6.671 -0.4766 -1.1488 -2.0606
  180SOPE   C3420575   2.440   3.373   6.874 -0.1327  0.5597  0.0536
  180SOPE   H4X20576   2.449   3.484   6.871 -1.6630  0.8064  3.1566
  180SOPE   H4Y20577   2.542   3.334   6.894 -0.3795  0.5525  1.3584
  180SOPE   C3520578   2.355   3.315   6.985 -0.0293 -0.4186  0.4467
  180SOPE   H5X20579   2.377   3.207   6.995  1.4002 -0.5021 -2.6943
  180SOPE   H5Y20580   2.251   3.326   6.949  0.4239  1.5704 -0.3539
  180SOPE   C3620581   2.372   3.385   7.122 -0.3219  0.8743 -1.0630
  180SOPE   H6X20582   2.315   3.480   7.119  0.0349  1.0614 -1.9074
  180SOPE   H6Y20583   2.476   3.421   7.134 -0.1730 -0.3141  1.5997
  180SOPE   C3720584   2.321   3.300   7.242  0.3965  0.3317  0.3253
  180SOPE   H7X20585   2.406   3.239   7.280 -0.7474 -1.6310 -0.2364
  180SOPE   H7Y20586   2.244   3.229   7.206  2.9525 -1.1721 -2.3532
  180SOPE   C3820587   2.260   3.387   7.354 -0.2843  0.0576  0.8227
  180SOPE   H8X20588   2.161   3.417   7.314 -0.6278 -1.4631  0.5187
  180SOPE   H8Y20589   2.316   3.478   7.385 -2.5174  1.9807 -0.5745
  180SOPE   C3920590   2.254   3.304   7.483 -0.0795  0.0079  0.2718
  180SOPE   H9X20591   2.358   3.287   7.520 -1.0598 -2.1525  2.1937
  180SOPE   H9Y20592   2.196   3.213   7.456 -0.8989  0.3807  0.7616
  180SOPE  C31020593   2.183   3.386   7.593  0.3590 -0.1596 -0.5946
  180SOPE  H10X20594   2.077   3.388   7.559  0.4635 -0.4564 -0.9415
  180SOPE  H10Y20595   2.220   3.491   7.591 -2.2522  0.8182 -0.1488
  180SOPE  C31120596   2.185   3.318   7.735  0.3356  0.4574 -1.3079
  180SOPE  H11X20597   2.290   3.284   7.747  0.5296  1.5588  0.2521
  180SOPE  H11Y20598   2.132   3.222   7.748  0.7803  0.1383 -1.8385
  180SOPE  C31220599   2.135   3.410   7.843  0.3621 -0.6661  0.1242
  180SOPE  H12X20600   2.035   3.447   7.811 -0.5380  1.0443  4.4951
  180SOPE  H12Y20601   2.198   3.501   7.856 -1.7249  1.2644 -2.5615
  180SOPE  C31320602   2.109   3.336   7.971  0.2833  0.3085 -0.1393
  180SOPE  H13X20603   2.192   3.262   7.977  0.5372  0.7937  3.4677
  180SOPE  H13Y20604   2.022   3.266   7.969 -0.0402  0.6095  1.8276
  180SOPE  C31420605   2.091   3.431   8.092 -0.1609  0.0290 -0.3026
  180SOPE  H14X20606   1.993   3.482   8.087 -0.2664 -0.0891  0.5144
  180SOPE  H14Y20607   2.164   3.514   8.083 -1.9480  1.7582  0.7446
  180SOPE  C31520608   2.103   3.362   8.230 -0.1882 -0.2579 -0.1473
  180SOPE  H15X20609   2.201   3.310   8.231 -1.2462 -2.3276 -0.6689
  180SOPE  H15Y20610   2.032   3.278   8.246  0.2939 -0.4172  1.2357
  180SOPE  C31620611   2.102   3.466   8.335  0.0388 -0.5933  0.1448
  180SOPE  H16X20612   1.999   3.503   8.354  1.2703  2.9869  0.3875
  180SOPE  H16Y20613   2.172   3.544   8.297  0.1390 -1.0816 -0.6903
  180SOPE  C31720614   2.157   3.419   8.473  0.3797 -0.3732 -0.4220
  180SOPE  H17X20615   2.268   3.424   8.483  0.3908  1.0938 -1.1181
  180SOPE  H17Y20616   2.121   3.317   8.497  0.7702 -0.2528  0.7238
  180SOPE  C31820617   2.094   3.497   8.587 -0.8316 -0.0319  0.5163
  180SOPE  H18X20618   2.000   3.443   8.612 -0.8018 -0.2479  0.1676
  180SOPE  H18Y20619   2.079   3.604   8.564  2.2956  0.1704 -0.8348
  180SOPE  H18Z20620   2.163   3.492   8.674 -1.7789  1.9330  1.3962
  181SOPE     N20621   2.133   1.646   5.728  0.2038  0.2277  1.0365
  181SOPE   HN120622   2.141   1.678   5.629 -2.3520 -1.3704  0.2607
  181SOPE   HN220623   2.047   1.588   5.736 -0.4784  1.2101  0.8521
  181SOPE   HN320624   2.123   1.717   5.802  0.7517 -0.6057  1.9195
  181SOPE   C1220625   2.252   1.554   5.771 -0.6263  0.1212  0.9141
  181SOPE  H12A20626   2.345   1.614   5.764 -1.0193  0.6159 -0.1587
  181SOPE  H12B20627   2.254   1.468   5.701  1.3680 -0.2525  1.3714
  181SOPE   C1120628   2.230   1.512   5.914 -0.2729  0.1812  0.2460
  181SOPE  H11A20629   2.326   1.470   5.948 -0.7048 -0.1618  1.0681
  181SOPE  H11B20630   2.165   1.423   5.925  0.4314 -0.5696 -1.5806
  181SOPE     P20631   2.065   1.646   6.078  0.5563 -0.0968  0.5803
  181SOPE   O1320632   1.946   1.633   5.997  0.3436 -0.5644 -1.0237
  181SOPE   O1420633   2.088   1.776   6.140  0.5984  0.2244  0.0258
  181SOPE   O1220634   2.189   1.626   5.988  0.3690 -0.1079 -0.1897
  181SOPE   O1120635   2.072   1.530   6.182 -0.0800  0.1281  0.8831
  181SOPE    C120636   2.190   1.524   6.263  0.0900  0.1912 -0.0378
  181SOPE    HA20637   2.269   1.593   6.228  1.4179 -0.9313  0.6911
  181SOPE    HB20638   2.222   1.417   6.256 -0.8594 -0.0684 -0.5284
  181SOPE    C220639   2.163   1.543   6.422 -0.1224 -0.1764 -0.2549
  181SOPE    HS20640   2.079   1.474   6.448  0.8956 -0.8531  1.2934
  181SOPE   O2120641   2.129   1.674   6.449  1.0388 -0.5125  0.0954
  181SOPE   C2120642   2.001   1.718   6.444  0.4487 -0.0549  0.2734
  181SOPE   O2220643   1.903   1.654   6.410 -0.2299 -0.0860 -0.4351
  181SOPE   C2220644   1.997   1.866   6.471  0.0114  0.7287 -0.4664
  181SOPE   H2R20645   1.962   1.910   6.375  0.8505 -0.6705 -1.4235
  181SOPE   H2S20646   2.099   1.906   6.488  0.7465 -1.0343 -0.6006
  181SOPE    C320647   2.285   1.519   6.504 -0.7888 -0.1486  0.3543
  181SOPE    HX20648   2.273   1.543   6.611 -0.9354 -0.7051  0.4637
  181SOPE    HY20649   2.355   1.601   6.476 -1.0621  0.2978  0.9866
  181SOPE   O3120650   2.342   1.386   6.477 -0.3169 -0.4810 -0.0980
  181SOPE   C3120651   2.292   1.294   6.561 -0.0903 -0.7226 -0.5038
  181SOPE   O3220652   2.189   1.304   6.621  0.2382 -0.3559  0.3460
  181SOPE   C3220653   2.372   1.164   6.535  0.3458 -0.1083  0.4270
  181SOPE   H2X20654   2.461   1.180   6.470 -0.8828 -2.3341 -1.8741
  181SOPE   H2Y20655   2.304   1.095   6.481  1.2610  0.3524 -1.3902
  181SOPE   C2320656   1.898   1.897   6.594 -0.1173  0.1216 -0.0746
  181SOPE   H3R20657   1.795   1.860   6.578 -0.1757  0.8735 -1.5335
  181SOPE   H3S20658   1.898   2.007   6.612  0.3131  0.2259 -0.6803
  181SOPE   C2420659   1.955   1.836   6.717 -0.3260 -0.0914 -0.1740
  181SOPE   H4R20660   1.884   1.868   6.797  0.5553  0.8310  0.2500
  181SOPE   H4S20661   1.957   1.726   6.703 -2.5847 -0.0445 -0.9885
  181SOPE   C2520662   2.096   1.872   6.744 -0.1469 -0.3767  0.3332
  181SOPE   H5R20663   2.161   1.843   6.658  1.1847  2.1589  0.4240
  181SOPE   H5S20664   2.105   1.982   6.752  1.0172 -0.2865 -1.7077
  181SOPE   C2620665   2.158   1.813   6.877 -0.2362  0.1657 -0.3878
  181SOPE   H6R20666   2.161   1.703   6.862 -2.2677  0.2239 -1.3742
  181SOPE   H6S20667   2.264   1.847   6.874 -0.4531  0.9692  0.7248
  181SOPE   C2720668   2.087   1.851   7.003 -0.0048 -0.4029 -0.6670
  181SOPE   H7R20669   2.067   1.960   6.994  1.2503 -0.0582  0.6241
  181SOPE   H7S20670   1.984   1.810   7.011  0.2743 -0.7906  1.2830
  181SOPE   C2820671   2.176   1.815   7.129  0.8388  0.0781 -0.2088
  181SOPE   H8R20672   2.175   1.704   7.124  1.7932 -0.0365  1.6954
  181SOPE   H8S20673   2.278   1.847   7.099  0.7622 -0.9825 -1.6205
  181SOPE   C2920674   2.136   1.863   7.265  0.0455 -0.5309  0.0476
  181SOPE   H9120675   2.056   1.937   7.251 -1.4178 -2.1100 -0.1512
  181SOPE  C21020676   2.194   1.838   7.382  0.8206 -0.4236 -0.7016
  181SOPE  H10120677   2.155   1.873   7.479  2.5897 -0.2357 -0.0305
  181SOPE  C21120678   2.317   1.758   7.387 -0.1302  0.9368  0.0765
  181SOPE  H11R20679   2.391   1.797   7.314 -0.7293 -2.6936 -2.5993
  181SOPE  H11S20680   2.295   1.655   7.352  2.2387 -0.4092  2.2577
  181SOPE  C21220681   2.393   1.727   7.521 -0.1286  0.2377  0.5764
  181SOPE  H12R20682   2.439   1.817   7.567  1.9730 -0.7173  0.3947
  181SOPE  H12S20683   2.485   1.670   7.493  0.5587  1.0050  1.2371
  181SOPE  C21320684   2.319   1.636   7.609  0.1145 -0.1988  0.3067
  181SOPE  H13R20685   2.288   1.542   7.558 -1.8472  1.5258 -1.8200
  181SOPE  H13S20686   2.221   1.669   7.650 -0.2937 -0.0472 -0.7565
  181SOPE  C21420687   2.404   1.594   7.729  0.5096  0.2169  0.0625
  181SOPE  H14R20688   2.505   1.568   7.691  0.2157  0.6565 -1.0587
  181SOPE  H14S20689   2.362   1.505   7.781  2.5870 -2.1241 -2.1329
  181SOPE  C21520690   2.407   1.692   7.843  0.1661 -0.5016  0.4237
  181SOPE  H15R20691   2.309   1.742   7.855  0.9567  1.2767 -0.3753
  181SOPE  H15S20692   2.483   1.772   7.829 -1.5791  0.7883 -2.0356
  181SOPE  C21620693   2.435   1.617   7.973  0.1618 -0.2341 -0.0700
  181SOPE  H16R20694   2.505   1.531   7.964 -0.0010 -0.2876 -0.8519
  181SOPE  H16S20695   2.338   1.572   8.004 -0.3801  0.8491 -0.1522
  181SOPE  C21720696   2.494   1.708   8.086  0.2183  0.0522 -0.6186
  181SOPE  H17R20697   2.436   1.803   8.085 -1.3597 -0.7978  2.5764
  181SOPE  H17S20698   2.599   1.737   8.064  0.4212 -0.1185  0.0917
  181SOPE  C21820699   2.492   1.639   8.218  0.2199 -0.3127 -0.4044
  181SOPE  H18R20700   2.561   1.553   8.208  0.9450  0.3351 -1.0563
  181SOPE  H18S20701   2.391   1.607   8.252  0.9961 -1.6957  0.6599
  181SOPE  H18T20702   2.525   1.716   8.291  0.3204  0.5713 -1.3744
  181SOPE   C3320703   2.412   1.103   6.674 -0.4917  0.0503  0.4948
  181SOPE   H3X20704   2.319   1.105   6.735 -1.0539  3.1472 -0.3815
  181SOPE   H3Y20705   2.482   1.182   6.709 -0.1818  1.2302 -2.5967
  181SOPE   C3420706   2.477   0.970   6.654 -0.0731  0.5158  0.1780
  181SOPE   H4X20707   2.408   0.900   6.602  1.7901 -0.2686 -1.3003
  181SOPE   H4Y20708   2.505   0.921   6.750  1.0315  0.7229 -0.0333
  181SOPE   C3520709   2.612   0.963   6.590 -0.7094 -0.5530 -0.0939
  181SOPE   H5X20710   2.689   1.017   6.648  0.5772 -0.7925 -1.5645
  181SOPE   H5Y20711   2.609   1.007   6.488  2.0892 -1.3453 -0.5470
  181SOPE   C3620712   2.664   0.814   6.565 -0.2723 -0.3388  0.4940
  181SOPE   H6X20713   2.763   0.819   6.514 -0.5063 -3.3789 -0.3479
  181SOPE   H6Y20714   2.593   0.755   6.503 -0.5745 -0.2529  0.7611
  181SOPE   C3720715   2.690   0.731   6.690 -0.5313  0.6714 -0.1489
  181SOPE   H7X20716   2.735   0.632   6.667 -2.3759 -0.1557 -0.3556
  181SOPE   H7Y20717   2.587   0.715   6.730 -0.4966 -1.5785 -0.8639
  181SOPE   C3820718   2.795   0.790   6.784 -0.1619 -0.2203  0.8109
  181SOPE   H8X20719   2.760   0.893   6.808  0.4619  0.0277  0.6478
  181SOPE   H8Y20720   2.898   0.791   6.744  0.3558  1.2311  2.1307
  181SOPE   C3920721   2.802   0.717   6.909 -1.0189  0.8315  0.7114
  181SOPE   H9X20722   2.715   0.719   6.979 -0.5761 -0.8038  1.3359
  181SOPE   H9Y20723   2.888   0.766   6.960  0.0874  0.2604 -0.5833
  181SOPE  C31020724   2.838   0.571   6.892  0.6071  0.3457 -0.0150
  181SOPE  H10X20725   2.914   0.543   6.816 -1.5419 -0.6144 -1.8552
  181SOPE  H10Y20726   2.747   0.511   6.871  0.7095 -0.1276  0.8708
  181SOPE  C31120727   2.912   0.513   7.018  0.4668  0.1899  0.1543
  181SOPE  H11X20728   3.012   0.562   7.024  0.2149  0.6474  0.6510
  181SOPE  H11Y20729   2.937   0.405   7.008  0.0713  0.0736  0.3978
  181SOPE  C31220730   2.849   0.537   7.151 -0.2575  0.0617  0.3251
  181SOPE  H12X20731   2.740   0.525   7.139 -0.2798  0.3055  0.2820
  181SOPE  H12Y20732   2.865   0.641   7.184 -1.0569  0.4441 -0.4816
  181SOPE  C31320733   2.921   0.458   7.268  0.6986 -0.3294 -0.1442
  181SOPE  H13X20734   2.889   0.492   7.369  1.3860  1.5757 -0.5444
  181SOPE  H13Y20735   3.030   0.478   7.254  1.0392 -2.6002 -0.9832
  181SOPE  C31420736   2.913   0.301   7.255  0.0983 -0.0476  0.5531
  181SOPE  H14X20737   2.970   0.275   7.163  0.2765  0.7953  0.4238
  181SOPE  H14Y20738   2.811   0.263   7.231  0.2443 -0.5817  0.7823
  181SOPE  C31520739   2.983   0.224   7.365 -0.1490  0.2016 -0.0032
  181SOPE  H15X20740   3.029   0.292   7.439 -0.9789  1.0994 -0.3049
  181SOPE  H15Y20741   3.068   0.163   7.327 -0.7060 -1.2854  1.0606
  181SOPE  C31620742   2.907   0.122   7.442 -0.0772  0.2854  0.3318
  181SOPE  H16X20743   2.820   0.168   7.494 -1.5400 -1.1134 -0.7987
  181SOPE  H16Y20744   2.976   0.078   7.517  0.5285  0.0607 -0.3515
  181SOPE  C31720745   2.823   0.011   7.366  0.6929 -0.0420 -0.2784
  181SOPE  H17X20746   2.742   0.060   7.308  0.6875  2.0266  1.4106
  181SOPE  H17Y20747   2.775  -0.045   7.450 -1.2959  1.9612 -0.0349
  181SOPE  C31820748   2.906  -0.082   7.284 -0.3645 -0.1832 -0.2711
  181SOPE  H18X20749   2.976  -0.025   7.219  0.8879  2.3658  3.1964
  181SOPE  H18Y20750   2.840  -0.142   7.217  0.4306  0.0740 -1.2977
  181SOPE  H18Z20751   2.962  -0.150   7.352 -0.5258 -0.6838 -0.6351
  182SOPE     N20752   3.463   2.960   6.385 -0.2793  0.1734 -0.2875
  182SOPE   HN120753   3.409   3.047   6.365  1.2776  0.7240 -2.2127
  182SOPE   HN220754   3.416   2.887   6.329  3.3536 -1.2690 -1.6210
  182SOPE   HN320755   3.472   2.918   6.480 -0.2355 -0.0121 -0.3752
  182SOPE   C1220756   3.591   2.958   6.307 -0.3222 -0.7808  0.4375
  182SOPE  H12A20757   3.663   3.032   6.349  0.0788 -2.1543  2.2449
  182SOPE  H12B20758   3.567   2.996   6.206  0.3334  1.2975  1.0425
  182SOPE   C1120759   3.640   2.815   6.294  0.0988 -0.5579  0.2056
  182SOPE  H11A20760   3.663   2.772   6.394 -0.1227 -1.4128 -0.1065
  182SOPE  H11B20761   3.734   2.822   6.236  0.9900 -0.9723  1.5790
  182SOPE     P20762   3.542   2.607   6.151 -0.2711 -0.2236  0.0160
  182SOPE   O1320763   3.680   2.576   6.110 -0.1458 -0.0323  0.5248
  182SOPE   O1420764   3.453   2.622   6.035  0.2830 -0.4967  0.4013
  182SOPE   O1220765   3.536   2.741   6.233 -0.0075  0.2841  0.3999
  182SOPE   O1120766   3.483   2.498   6.257 -0.1086 -0.0454  0.1217
  182SOPE    C120767   3.555   2.447   6.372 -0.3490  0.0844  0.3074
  182SOPE    HA20768   3.663   2.476   6.374  0.3034 -2.2705  0.1392
  182SOPE    HB20769   3.544   2.337   6.380 -0.3566  0.0711  0.1019
  182SOPE    C220770   3.494   2.511   6.503 -0.6623  0.6439 -0.3596
  182SOPE    HS20771   3.521   2.619   6.513 -0.0469  0.6713 -2.2301
  182SOPE   O2120772   3.531   2.426   6.617 -0.1332 -0.6490  0.0803
  182SOPE   C2120773   3.654   2.460   6.656 -0.1302  0.2482 -0.5501
  182SOPE   O2220774   3.721   2.550   6.608  0.5558  0.2129  0.0598
  182SOPE   C2220775   3.697   2.389   6.785  0.2530  0.3490 -0.0925
  182SOPE   H2R20776   3.805   2.407   6.803  0.1726  1.2902 -0.5200
  182SOPE   H2S20777   3.691   2.279   6.771 -1.2397  0.4398 -0.2306
  182SOPE    C320778   3.342   2.513   6.489  0.2017  0.0834  0.0644
  182SOPE    HX20779   3.306   2.414   6.455 -2.9782  0.8037  1.1773
  182SOPE    HY20780   3.314   2.587   6.411 -0.5989  0.0746  0.3299
  182SOPE   O3120781   3.273   2.534   6.618  0.5587 -0.0161 -0.0438
  182SOPE   C3120782   3.280   2.668   6.656 -0.4516 -0.4156  0.2765
  182SOPE   O3220783   3.335   2.750   6.591  0.4174 -0.1519  0.0831
  182SOPE   C3220784   3.195   2.689   6.777  0.2028  0.6257 -0.5301
  182SOPE   H2X20785   3.181   2.594   6.833  0.2135  0.9633  0.0530
  182SOPE   H2Y20786   3.102   2.734   6.734  0.0025 -0.0662 -0.8259
  182SOPE   C2320787   3.616   2.425   6.913  0.6036 -0.4396  0.2564
  182SOPE   H3R20788   3.507   2.412   6.901  0.2021  0.8408  2.2468
  182SOPE   H3S20789   3.637   2.532   6.934  2.5511 -0.4556 -1.4304
  182SOPE   C2420790   3.665   2.333   7.023 -0.1980  0.4566  0.3731
  182SOPE   H4R20791   3.636   2.226   7.019 -0.3507  0.5334 -1.0649
  182SOPE   H4S20792   3.776   2.335   7.011 -0.4319 -1.0940 -2.5381
  182SOPE   C2520793   3.617   2.390   7.153 -0.3198 -0.0442  0.1499
  182SOPE   H5R20794   3.655   2.493   7.168  0.1273 -0.3407  1.0602
  182SOPE   H5S20795   3.507   2.404   7.145 -0.2073  0.3200 -0.8396
  182SOPE   C2620796   3.652   2.297   7.271 -0.8986 -0.7435 -0.2985
  182SOPE   H6R20797   3.641   2.189   7.245  2.7045 -1.1186 -0.5187
  182SOPE   H6S20798   3.759   2.320   7.288 -1.2760  1.1303 -0.4201
  182SOPE   C2720799   3.589   2.324   7.406 -0.6307  0.4445 -0.5844
  182SOPE   H7R20800   3.619   2.417   7.459 -1.4049 -0.4186  1.4191
  182SOPE   H7S20801   3.485   2.346   7.372 -0.5269  1.3052 -0.3592
  182SOPE   C2820802   3.600   2.202   7.506  0.2558  0.3765  0.2744
  182SOPE   H8R20803   3.579   2.111   7.445  0.4830  0.0090  0.7350
  182SOPE   H8S20804   3.709   2.196   7.525 -0.1205 -0.1177  2.4675
  182SOPE   C2920805   3.510   2.214   7.625  0.5134 -0.0495 -0.6615
  182SOPE   H9120806   3.402   2.206   7.605  0.8043 -0.4087 -2.1298
  182SOPE  C21020807   3.560   2.227   7.752 -0.5413  0.0966 -0.3293
  182SOPE  H10120808   3.491   2.206   7.836 -1.0623 -2.8469 -1.4654
  182SOPE  C21120809   3.704   2.233   7.808  0.3128  0.5532  0.4160
  182SOPE  H11R20810   3.708   2.326   7.869 -2.1559  2.4960 -2.2348
  182SOPE  H11S20811   3.777   2.244   7.725  1.1781  2.1751  1.3484
  182SOPE  C21220812   3.742   2.110   7.889  0.3125 -0.1652  0.0098
  182SOPE  H12R20813   3.694   2.115   7.989  1.0911  0.9216  0.3312
  182SOPE  H12S20814   3.853   2.108   7.903  0.2119 -1.0913  0.7676
  182SOPE  C21320815   3.709   1.977   7.816 -0.2172  1.3831  0.1487
  182SOPE  H13R20816   3.750   1.983   7.712 -0.8357 -0.6454 -0.2503
  182SOPE  H13S20817   3.599   1.979   7.802 -0.1360  0.6815 -0.7130
  182SOPE  C21420818   3.762   1.850   7.877  0.6953  0.1561 -0.3579
  182SOPE  H14R20819   3.745   1.760   7.814 -0.2820  0.0315  0.0754
  182SOPE  H14S20820   3.713   1.834   7.975  0.3455  2.9702 -0.0264
  182SOPE  C21520821   3.916   1.844   7.881  0.4882 -0.1964  0.2780
  182SOPE  H15R20822   3.971   1.926   7.931 -0.4570 -0.4241  1.7161
  182SOPE  H15S20823   3.954   1.824   7.778 -0.7889  0.9034 -0.4147
  182SOPE  C21620824   3.971   1.707   7.935  0.5679  0.8736 -0.1015
  182SOPE  H16R20825   4.080   1.695   7.919  0.9261  1.9995  1.3716
  182SOPE  H16S20826   3.929   1.624   7.874  0.9210 -0.0806  0.9346
  182SOPE  C21720827   3.948   1.688   8.084  0.7043 -0.2384  0.1297
  182SOPE  H17R20828   3.841   1.671   8.109  1.2418 -0.2438  2.6213
  182SOPE  H17S20829   3.990   1.780   8.130 -0.2235  0.4249 -0.3353
  182SOPE  C21820830   4.031   1.568   8.148  0.4383 -0.0000  0.8261
  182SOPE  H18R20831   4.137   1.596   8.166  0.3445  0.1493  1.1559
  182SOPE  H18S20832   4.040   1.482   8.078  0.9711  2.4483 -2.2082
  182SOPE  H18T20833   3.988   1.547   8.248 -0.1003  0.3896  0.6778
  182SOPE   C3320834   3.265   2.802   6.862 -0.2863 -0.5619  0.5872
  182SOPE   H3X20835   3.199   2.837   6.945  0.0820  2.0446 -0.1853
  182SOPE   H3Y20836   3.298   2.889   6.803 -1.6802 -0.4408 -0.0341
  182SOPE   C3420837   3.383   2.742   6.940 -1.2394 -0.3909  0.0400
  182SOPE   H4X20838   3.441   2.832   6.972  1.0506 -1.6296 -0.4861
  182SOPE   H4Y20839   3.440   2.672   6.875 -0.0988  0.2549  0.3309
  182SOPE   C3520840   3.337   2.675   7.067  1.0195  0.6319 -0.4093
  182SOPE   H5X20841   3.418   2.621   7.121  1.9418  2.2869 -0.0937
  182SOPE   H5Y20842   3.261   2.602   7.032  2.6775 -1.3827  0.1420
  182SOPE   C3620843   3.279   2.760   7.182 -0.1946  0.1880  0.3667
  182SOPE   H6X20844   3.188   2.817   7.155 -0.5303 -0.9899 -1.0457
  182SOPE   H6Y20845   3.355   2.830   7.224  0.0186 -0.7814  1.6282
  182SOPE   C3720846   3.243   2.671   7.306  0.2388 -0.2641 -0.1976
  182SOPE   H7X20847   3.332   2.611   7.331  1.0722  0.0144 -2.3444
  182SOPE   H7Y20848   3.162   2.600   7.279  0.5180 -1.1193  1.1888
  182SOPE   C3820849   3.190   2.759   7.414 -0.7526  0.1412  0.0004
  182SOPE   H8X20850   3.104   2.816   7.373 -0.3554 -0.7740 -2.1830
  182SOPE   H8Y20851   3.247   2.845   7.455 -1.4659  1.1004 -0.9999
  182SOPE   C3920852   3.127   2.673   7.521  0.2787  0.0534 -0.0021
  182SOPE   H9X20853   3.079   2.582   7.478  0.2833  0.5972 -1.1582
  182SOPE   H9Y20854   3.049   2.732   7.574 -0.4103 -0.4500 -0.4404
  182SOPE  C31020855   3.228   2.631   7.630 -0.0351 -0.1786 -0.3489
  182SOPE  H10X20856   3.274   2.713   7.690 -0.1412 -1.2653  1.2500
  182SOPE  H10Y20857   3.320   2.587   7.587  0.4271 -0.9168  1.3709
  182SOPE  C31120858   3.170   2.537   7.736 -0.4213 -0.2254  0.4557
  182SOPE  H11X20859   3.153   2.441   7.683  0.5466  0.4626 -1.1444
  182SOPE  H11Y20860   3.076   2.577   7.779 -0.0516  1.3240 -0.1370
  182SOPE  C31220861   3.264   2.498   7.845  1.4237  0.2191 -0.1280
  182SOPE  H12X20862   3.295   2.588   7.902 -1.6339 -0.2250  2.3850
  182SOPE  H12Y20863   3.352   2.442   7.806 -0.8074 -3.2092 -0.4532
  182SOPE  C31320864   3.188   2.406   7.941  0.1886 -0.0966  0.3508
  182SOPE  H13X20865   3.199   2.299   7.913 -2.6369 -0.9227  2.1839
  182SOPE  H13Y20866   3.079   2.426   7.941 -0.2712 -2.3277  1.8847
  182SOPE  C31420867   3.247   2.419   8.078 -0.2039 -0.2284  0.2707
  182SOPE  H14X20868   3.229   2.523   8.111  1.2556 -0.6115  2.3398
  182SOPE  H14Y20869   3.356   2.402   8.087 -0.2040  0.0180  0.7348
  182SOPE  C31520870   3.181   2.320   8.182 -0.2549 -0.8148 -0.7060
  182SOPE  H15X20871   3.251   2.280   8.258 -0.1187  0.5789 -0.0847
  182SOPE  H15Y20872   3.144   2.236   8.119  0.3353 -1.3628 -0.3258
  182SOPE  C31620873   3.057   2.379   8.265  0.2517 -0.9723  0.0213
  182SOPE  H16X20874   2.972   2.399   8.197 -0.3392 -1.8022  0.5066
  182SOPE  H16Y20875   3.090   2.471   8.318 -1.0754  0.1500 -1.0706
  182SOPE  C31720876   3.006   2.281   8.378  0.7562  0.4241 -0.6635
  182SOPE  H17X20877   2.966   2.187   8.333 -0.9095  1.3939 -1.2534
  182SOPE  H17Y20878   2.920   2.330   8.427 -1.5907 -2.8819 -1.2717
  182SOPE  C31820879   3.114   2.249   8.482  0.1654  0.3388 -0.3185
  182SOPE  H18X20880   3.180   2.169   8.440  1.4279 -0.6274  3.2951
  182SOPE  H18Y20881   3.055   2.205   8.566 -0.5366  0.2583 -0.8536
  182SOPE  H18Z20882   3.168   2.340   8.517  0.5671 -0.6866  1.8526
  183SOPE     N20883   5.884   0.572   6.222 -0.1322 -0.3099 -0.6624
  183SOPE   HN120884   5.881   0.675   6.204 -0.3302 -0.0505  0.7871
  183SOPE   HN220885   5.879   0.545   6.322 -0.8692  0.8608 -0.3719
  183SOPE   HN320886   5.975   0.534   6.188 -0.6297 -0.7869 -1.4783
  183SOPE   C1220887   5.767   0.495   6.155  0.3651  0.4648 -1.0346
  183SOPE  H12A20888   5.795   0.388   6.157 -1.5900 -0.0495  0.1513
  183SOPE  H12B20889   5.760   0.525   6.048  1.4135 -0.9911 -1.5135
  183SOPE   C1120890   5.637   0.512   6.239 -0.5809  0.1051 -0.3701
  183SOPE  H11A20891   5.541   0.492   6.187 -0.2362  0.5840 -1.1961
  183SOPE  H11B20892   5.614   0.611   6.286 -3.5197 -0.2027 -1.0596
  183SOPE     P20893   5.553   0.300   6.390 -0.0689  0.1185  0.0736
  183SOPE   O1320894   5.632   0.205   6.467 -0.6672 -0.1251 -0.0522
  183SOPE   O1420895   5.479   0.255   6.269 -0.1300 -0.3693  0.5000
  183SOPE   O1220896   5.654   0.422   6.350 -0.2330 -0.2516  0.9919
  183SOPE   O1120897   5.444   0.359   6.485  0.0012 -0.1344 -0.0805
  183SOPE    C120898   5.443   0.487   6.551 -0.0131  0.7789  0.4504
  183SOPE    HA20899   5.355   0.549   6.522 -0.9578 -1.1676 -0.9838
  183SOPE    HB20900   5.531   0.548   6.522  0.3731 -0.8203 -1.9571
  183SOPE    C220901   5.460   0.474   6.702  0.1815  0.3542  0.2750
  183SOPE    HS20902   5.470   0.575   6.746  0.7401  1.2508 -1.8171
  183SOPE   O2120903   5.570   0.394   6.738  0.3235 -0.0490 -0.0888
  183SOPE   C2120904   5.690   0.446   6.726 -0.7660  0.1309 -0.2199
  183SOPE   O2220905   5.724   0.564   6.697 -0.2881  0.6327 -0.2708
  183SOPE   C2220906   5.794   0.333   6.762  0.8467 -0.1580 -0.2181
  183SOPE   H2R20907   5.842   0.312   6.664  1.5561 -1.0331  0.3031
  183SOPE   H2S20908   5.740   0.239   6.785 -2.3583  0.9348 -3.0326
  183SOPE    C320909   5.332   0.403   6.750 -0.1570 -0.6430  0.5430
  183SOPE    HX20910   5.320   0.297   6.720 -1.8558 -0.7393  1.4496
  183SOPE    HY20911   5.238   0.434   6.700  1.6701 -0.3831 -2.8523
  183SOPE   O3120912   5.307   0.420   6.895  0.0124 -0.0262  0.0041
  183SOPE   C3120913   5.336   0.310   6.964 -0.3044 -0.0275  0.4705
  183SOPE   O3220914   5.406   0.216   6.924  0.0874 -0.2288  0.1810
  183SOPE   C3220915   5.278   0.314   7.102 -0.3194 -1.4546  0.1731
  183SOPE   H2X20916   5.295   0.222   7.163 -1.4464 -1.9465 -0.2532
  183SOPE   H2Y20917   5.169   0.329   7.091 -0.0831  0.2637  0.1592
  183SOPE   C2320918   5.905   0.370   6.872 -0.3089 -0.4173  0.6360
  183SOPE   H3R20919   5.941   0.475   6.866  0.2574 -0.7511 -2.3577
  183SOPE   H3S20920   5.985   0.301   6.839  0.6758  2.4083 -3.1142
  183SOPE   C2420921   5.869   0.339   7.010  0.0991  0.8487  0.0658
  183SOPE   H4R20922   5.768   0.379   7.035  0.8901  1.2142  2.9321
  183SOPE   H4S20923   5.861   0.230   7.026  1.5431  0.8987  1.1870
  183SOPE   C2520924   5.966   0.410   7.111  0.3763 -0.7342 -0.2634
  183SOPE   H5R20925   6.065   0.369   7.082  0.2722 -1.9637  1.0488
  183SOPE   H5S20926   5.977   0.520   7.101  1.1224 -0.6562  1.3238
  183SOPE   C2620927   5.933   0.394   7.263  0.3548 -0.2355 -0.4409
  183SOPE   H6R20928   5.939   0.286   7.287 -0.5842  0.0600  1.2560
  183SOPE   H6S20929   6.015   0.443   7.320 -0.4004 -0.6176  1.0091
  183SOPE   C2720930   5.790   0.448   7.299 -0.6867 -0.7117 -0.0932
  183SOPE   H7R20931   5.790   0.556   7.276 -0.8059 -0.7948 -0.5001
  183SOPE   H7S20932   5.716   0.404   7.228 -0.1085 -2.8043  0.5614
  183SOPE   C2820933   5.753   0.417   7.442  0.0559  0.6857  0.5092
  183SOPE   H8R20934   5.645   0.393   7.449  0.4645 -1.0853  1.0413
  183SOPE   H8S20935   5.807   0.324   7.470 -2.4294 -0.9154  0.0823
  183SOPE   C2920936   5.783   0.525   7.541  0.0372 -0.2538 -0.1785
  183SOPE   H9120937   5.838   0.615   7.511 -0.8968  0.0450 -1.0068
  183SOPE  C21020938   5.740   0.508   7.669  0.3751  0.0158  0.6718
  183SOPE  H10120939   5.762   0.583   7.746 -1.0284  0.1154  0.9934
  183SOPE  C21120940   5.656   0.397   7.723 -0.0127 -0.1606 -0.2782
  183SOPE  H11R20941   5.695   0.293   7.711  1.4739  0.6377 -2.7573
  183SOPE  H11S20942   5.556   0.392   7.674  0.2346 -2.3317 -0.6302
  183SOPE  C21220943   5.628   0.434   7.872 -0.2793  0.3636  0.3704
  183SOPE  H12R20944   5.571   0.529   7.868 -3.5649 -1.5752 -0.4160
  183SOPE  H12S20945   5.718   0.445   7.937  0.1662  0.1342 -0.2025
  183SOPE  C21320946   5.543   0.335   7.943  0.4025 -0.2390  0.8737
  183SOPE  H13R20947   5.599   0.241   7.961 -1.2065 -1.1628  1.1816
  183SOPE  H13S20948   5.457   0.313   7.876  0.9013  0.0037  0.1456
  183SOPE  C21420949   5.509   0.378   8.084 -1.0031 -0.5936  0.2779
  183SOPE  H14R20950   5.425   0.306   8.103 -0.3563 -1.6652 -0.8756
  183SOPE  H14S20951   5.475   0.483   8.095 -3.0951 -1.1828 -0.3381
  183SOPE  C21520952   5.606   0.357   8.201 -0.3635 -0.0585  0.4422
  183SOPE  H15R20953   5.661   0.263   8.178 -0.1085  0.4241 -1.0385
  183SOPE  H15S20954   5.547   0.342   8.294  1.8148  1.8562  2.1763
  183SOPE  C21620955   5.705   0.474   8.226 -0.5158 -1.2090  0.7794
  183SOPE  H16R20956   5.732   0.514   8.126 -1.7407  1.8383  1.5883
  183SOPE  H16S20957   5.790   0.437   8.287 -0.2317 -1.6881  0.0921
  183SOPE  C21720958   5.637   0.601   8.296 -0.2710 -0.1256  0.3234
  183SOPE  H17R20959   5.572   0.650   8.219  0.1274  0.3766  0.3056
  183SOPE  H17S20960   5.719   0.671   8.321 -3.4627  3.3512  1.4846
  183SOPE  C21820961   5.550   0.575   8.414 -0.1446 -0.0894  0.1033
  183SOPE  H18R20962   5.533   0.665   8.476  1.6600 -1.8502  3.3007
  183SOPE  H18S20963   5.607   0.495   8.467  0.3642 -0.7953 -1.4819
  183SOPE  H18T20964   5.452   0.535   8.382  0.2420  0.2511 -1.5739
  183SOPE   C3320965   5.323   0.434   7.193  0.2294 -0.1037 -0.4519
  183SOPE   H3X20966   5.301   0.529   7.141  1.0289  0.2447 -0.1577
  183SOPE   H3Y20967   5.433   0.432   7.208 -0.2095 -0.1294  3.3303
  183SOPE   C3420968   5.243   0.439   7.327 -0.2193  0.5817  0.0077
  183SOPE   H4X20969   5.144   0.391   7.306 -0.0037 -0.0930  0.5169
  183SOPE   H4Y20970   5.224   0.545   7.354 -0.1454  0.3739  0.8868
  183SOPE   C3520971   5.300   0.364   7.441  0.4881  0.5868  0.0354
  183SOPE   H5X20972   5.394   0.416   7.469 -0.4557  2.4941 -0.2949
  183SOPE   H5Y20973   5.313   0.256   7.416  0.1102  0.0825  1.8814
  183SOPE   C3620974   5.205   0.365   7.560  0.0414  0.2132 -0.8264
  183SOPE   H6X20975   5.234   0.291   7.638 -0.5883 -0.2866 -1.0631
  183SOPE   H6Y20976   5.103   0.343   7.522 -0.0230 -0.1244 -0.4615
  183SOPE   C3720977   5.179   0.497   7.644  0.7776  0.3127  0.4815
  183SOPE   H7X20978   5.113   0.476   7.731 -0.2490 -0.1202 -0.3979
  183SOPE   H7Y20979   5.106   0.558   7.588 -0.5136 -1.0358  0.6687
  183SOPE   C3820980   5.310   0.570   7.678 -0.2692  0.1209 -0.5098
  183SOPE   H8X20981   5.359   0.588   7.580  1.9992 -2.1514  0.1372
  183SOPE   H8Y20982   5.382   0.503   7.730 -0.8874  1.1867  1.7873
  183SOPE   C3920983   5.291   0.706   7.762  0.3967 -0.6904  0.3598
  183SOPE   H9X20984   5.201   0.752   7.715  0.5940 -0.9158 -0.2443
  183SOPE   H9Y20985   5.386   0.763   7.758  0.9769 -1.6259  0.5147
  183SOPE  C31020986   5.265   0.658   7.908  0.6319 -0.4797  0.4396
  183SOPE  H10X20987   5.350   0.592   7.938  1.4526 -0.0792 -0.9437
  183SOPE  H10Y20988   5.169   0.603   7.911  0.3269  0.1330  2.8173
  183SOPE  C31120989   5.261   0.780   8.009  0.8084  0.4199  0.4397
  183SOPE  H11X20990   5.211   0.743   8.102  1.2924 -2.5303 -0.4247
  183SOPE  H11Y20991   5.195   0.859   7.968  0.8969 -0.2476 -1.0187
  183SOPE  C31220992   5.386   0.853   8.037 -0.2352 -0.5896 -0.5269
  183SOPE  H12X20993   5.429   0.890   7.941 -0.6871  1.9805  0.2149
  183SOPE  H12Y20994   5.465   0.795   8.089  1.4870  0.3308 -2.0531
  183SOPE  C31320995   5.369   0.971   8.132 -0.0875 -0.4295  0.1546
  183SOPE  H13X20996   5.319   0.943   8.228 -2.4582 -0.8529 -1.1698
  183SOPE  H13Y20997   5.303   1.035   8.070 -0.1950 -1.0001 -0.3288
  183SOPE  C31420998   5.492   1.059   8.153 -0.0498 -0.3896 -0.5725
  183SOPE  H14X20999   5.466   1.160   8.190 -1.5966 -0.5167 -1.3077
  183SOPE  H14Y21000   5.539   1.067   8.053 -0.3265  1.0725 -0.5859
  183SOPE  C31521001   5.601   0.994   8.255 -0.1158  0.3694  0.4234
  183SOPE  H15X21002   5.643   0.901   8.211  1.7698  0.7862  1.2852
  183SOPE  H15Y21003   5.540   0.972   8.345  1.0531 -0.1821  1.0860
  183SOPE  C31621004   5.710   1.099   8.290  0.5999  0.6814  0.4142
  183SOPE  H16X21005   5.773   1.079   8.379 -0.5934 -0.0395  1.1107
  183SOPE  H16Y21006   5.649   1.190   8.309 -1.0013 -0.1692 -0.4863
  183SOPE  C31721007   5.802   1.136   8.178 -0.4275 -0.6419  0.2401
  183SOPE  H17X21008   5.748   1.169   8.086  0.7357 -0.4018 -0.3712
  183SOPE  H17Y21009   5.851   1.041   8.147 -1.1832 -1.5394  1.7521
  183SOPE  C31821010   5.906   1.231   8.224 -0.5854 -0.0572  0.0773
  183SOPE  H18X21011   5.862   1.330   8.249  0.0150 -0.3046  2.2236
  183SOPE  H18Y21012   5.985   1.242   8.147 -1.1006  0.5250 -0.3717
  183SOPE  H18Z21013   5.947   1.193   8.320 -2.2042 -0.4043  0.6509
  184SOPE     N21014   4.769   0.223   6.127  0.0511 -0.1111  0.0889
  184SOPE   HN121015   4.808   0.145   6.070  0.8826  0.0980  0.3739
  184SOPE   HN221016   4.691   0.182   6.182  1.2841 -0.5785  1.5018
  184SOPE   HN321017   4.737   0.294   6.058 -1.5468 -2.0005 -1.1927
  184SOPE   C1221018   4.873   0.301   6.207  0.7841  0.3015 -0.0509
  184SOPE  H12A21019   4.939   0.346   6.130  1.5749 -0.5559  0.1201
  184SOPE  H12B21020   4.928   0.229   6.271 -2.3323 -0.5717  1.7699
  184SOPE   C1121021   4.801   0.411   6.294 -0.0240  0.2671  0.7412
  184SOPE  H11A21022   4.880   0.469   6.346 -0.5984  3.4049 -1.7346
  184SOPE  H11B21023   4.734   0.366   6.370 -3.7683  1.7515 -1.5760
  184SOPE     P21024   4.786   0.635   6.153 -0.3465  0.2067  0.5762
  184SOPE   O1321025   4.677   0.731   6.138  0.1587 -0.5068 -0.0758
  184SOPE   O1421026   4.864   0.614   6.027 -0.1395 -0.3095  0.4082
  184SOPE   O1221027   4.733   0.509   6.221  0.2104  0.3115 -0.3392
  184SOPE   O1121028   4.884   0.691   6.258 -0.8620 -0.1187 -0.1970
  184SOPE    C121029   4.844   0.765   6.371 -0.4986 -0.3092 -0.0586
  184SOPE    HA21030   4.742   0.736   6.403 -0.4543  0.5439  0.8640
  184SOPE    HB21031   4.835   0.873   6.345 -0.3776 -0.6336 -1.5130
  184SOPE    C221032   4.938   0.752   6.493 -0.5635 -0.2197  0.3279
  184SOPE    HS21033   5.043   0.727   6.465  0.1387  1.2758  1.5777
  184SOPE   O2121034   4.885   0.651   6.570  0.5166  0.4817  0.0400
  184SOPE   C2121035   4.972   0.617   6.669  1.3365  0.2200  0.3127
  184SOPE   O2221036   5.087   0.657   6.683 -0.8132  0.1977 -0.5050
  184SOPE   C2221037   4.910   0.511   6.759 -0.0256  0.1189 -0.2841
  184SOPE   H2R21038   4.954   0.420   6.713  0.4318 -0.5701  1.5035
  184SOPE   H2S21039   4.800   0.515   6.747 -0.2483 -2.2412  0.8185
  184SOPE    C321040   4.946   0.888   6.570  0.2293  0.5808  0.0589
  184SOPE    HX21041   4.996   0.958   6.499 -0.2634 -0.2504 -1.1296
  184SOPE    HY21042   5.017   0.867   6.652 -0.3316 -1.6560  0.0154
  184SOPE   O3121043   4.819   0.947   6.612 -0.8063 -0.1492 -0.1755
  184SOPE   C3121044   4.830   1.033   6.706  0.2428 -0.3997 -0.0710
  184SOPE   O3221045   4.932   1.082   6.750 -0.2480  0.2574  0.2213
  184SOPE   C3221046   4.685   1.069   6.770 -0.8238  0.3911  0.0470
  184SOPE   H2X21047   4.643   0.980   6.821  0.3761  0.9011  1.9835
  184SOPE   H2Y21048   4.629   1.095   6.677 -0.3718  1.1597 -0.0192
  184SOPE   C2321049   4.955   0.521   6.909 -0.4609  0.3089  0.3011
  184SOPE   H3R21050   5.065   0.525   6.923 -0.4173  0.1841  0.0121
  184SOPE   H3S21051   4.922   0.434   6.969  1.2171 -0.1799  0.5243
  184SOPE   C2421052   4.892   0.642   6.980 -0.7803  0.2606  0.1500
  184SOPE   H4R21053   4.930   0.735   6.932 -0.5887  0.1737  0.1325
  184SOPE   H4S21054   4.783   0.648   6.962 -0.5609 -1.2017 -1.8872
  184SOPE   C2521055   4.929   0.652   7.130 -0.3724  1.2133  0.3918
  184SOPE   H5R21056   4.894   0.564   7.189  0.3076  1.5132  1.2424
  184SOPE   H5S21057   5.039   0.664   7.132  0.0255 -1.1701 -2.5005
  184SOPE   C2621058   4.867   0.769   7.201  0.6256  0.0576 -0.3407
  184SOPE   H6R21059   4.857   0.858   7.136  0.6612 -0.3580 -0.9155
  184SOPE   H6S21060   4.769   0.741   7.245  0.0567 -0.3092 -1.8059
  184SOPE   C2721061   4.951   0.815   7.318 -0.8410  0.0224 -0.4296
  184SOPE   H7R21062   4.953   0.740   7.400  1.3639  0.8659  0.3130
  184SOPE   H7S21063   5.054   0.839   7.286 -0.8826  1.7147  0.6575
  184SOPE   C2821064   4.889   0.937   7.387  0.3824 -0.1904 -0.8600
  184SOPE   H8R21065   4.877   1.020   7.315 -0.2395  1.1686  0.7888
  184SOPE   H8S21066   4.784   0.903   7.402 -0.2247  1.7734 -0.5911
  184SOPE   C2921067   4.972   0.985   7.511  0.2919  0.4038  0.7266
  184SOPE   H9121068   5.074   1.022   7.490 -0.0517  0.4925 -0.8486
  184SOPE  C21021069   4.938   0.980   7.637 -0.8021 -0.0991 -0.1103
  184SOPE  H10121070   5.008   1.028   7.706 -2.7353 -0.2325  2.0348
  184SOPE  C21121071   4.808   0.925   7.702  0.2173  0.2102  0.9070
  184SOPE  H11R21072   4.827   0.828   7.753  0.7003 -1.4437 -2.2826
  184SOPE  H11S21073   4.741   0.907   7.616  0.3799  0.1800  0.7857
  184SOPE  C21221074   4.753   1.020   7.809  0.4092  0.3929  0.8120
  184SOPE  H12R21075   4.665   0.967   7.852  0.0529 -0.4243 -0.8739
  184SOPE  H12S21076   4.716   1.117   7.770  1.5030  0.2447 -0.6444
  184SOPE  C21321077   4.846   1.037   7.934  0.1417 -0.6231 -1.1852
  184SOPE  H13R21078   4.925   1.114   7.922  0.3413 -0.9565 -2.1056
  184SOPE  H13S21079   4.896   0.938   7.942  0.5582 -0.4064 -1.1286
  184SOPE  C21421080   4.777   1.074   8.067 -0.3198 -0.5276 -0.2749
  184SOPE  H14R21081   4.676   1.030   8.082 -0.1332 -1.0622 -0.5618
  184SOPE  H14S21082   4.768   1.184   8.078  1.8456 -0.2148 -1.3761
  184SOPE  C21521083   4.863   1.033   8.189 -0.0939 -0.1111 -0.4749
  184SOPE  H15R21084   4.957   1.092   8.184 -0.5772  0.8496  1.2709
  184SOPE  H15S21085   4.877   0.924   8.172 -2.0294 -0.2445 -1.3754
  184SOPE  C21621086   4.797   1.058   8.330  0.7246  0.1613  0.1307
  184SOPE  H16R21087   4.691   1.023   8.331  1.4244 -2.0852  1.2215
  184SOPE  H16S21088   4.793   1.166   8.353 -1.6549  0.0858  0.1950
  184SOPE  C21721089   4.870   0.993   8.450 -0.4233 -0.7003  0.7422
  184SOPE  H17R21090   4.882   0.887   8.416 -2.1828  0.1261 -2.7396
  184SOPE  H17S21091   4.809   0.999   8.542  2.4390  0.0175  2.6442
  184SOPE  C21821092   5.006   1.053   8.481 -0.4334 -0.9183 -0.0305
  184SOPE  H18R21093   5.065   1.054   8.386  1.7788 -1.6849  1.3057
  184SOPE  H18S21094   5.056   0.986   8.554 -1.9490 -2.3169 -0.2352
  184SOPE  H18T21095   5.005   1.152   8.531  1.2213 -1.6990  1.6001
  184SOPE   C3321096   4.684   1.187   6.868  0.5562 -0.2887  0.0259
  184SOPE   H3X21097   4.578   1.206   6.893  1.1473  0.8385  1.7832
  184SOPE   H3Y21098   4.735   1.279   6.833 -1.4189  0.8015 -0.0285
  184SOPE   C3421099   4.742   1.163   7.009  0.4139  0.2332  0.7688
  184SOPE   H4X21100   4.852   1.155   6.999  0.7712  4.9421 -0.5669
  184SOPE   H4Y21101   4.698   1.064   7.033  0.9275 -0.1347  0.2042
  184SOPE   C3521102   4.694   1.276   7.106 -0.0925 -0.4633  0.3366
  184SOPE   H5X21103   4.583   1.275   7.105 -0.0913 -2.2515  0.4008
  184SOPE   H5Y21104   4.726   1.379   7.081 -1.1830 -0.3381 -0.5523
  184SOPE   C3621105   4.744   1.247   7.244 -0.6766 -0.2735  0.0145
  184SOPE   H6X21106   4.854   1.231   7.247 -0.6529  0.1468  1.7463
  184SOPE   H6Y21107   4.701   1.149   7.273  1.5757 -0.3686  3.2288
  184SOPE   C3721108   4.706   1.353   7.347 -0.2095 -0.0701 -0.3821
  184SOPE   H7X21109   4.597   1.372   7.335 -0.6531 -2.2949 -0.0671
  184SOPE   H7Y21110   4.767   1.446   7.349  0.2281 -0.3689  0.6470
  184SOPE   C3821111   4.740   1.296   7.492  0.1400 -0.0570 -0.9238
  184SOPE   H8X21112   4.847   1.269   7.496  0.2340  0.5403  0.7625
  184SOPE   H8Y21113   4.683   1.203   7.511  0.7583  0.1054  1.9023
  184SOPE   C3921114   4.690   1.393   7.606 -0.0348 -0.9352  0.6048
  184SOPE   H9X21115   4.710   1.326   7.692 -2.4101  0.7995  2.6240
  184SOPE   H9Y21116   4.581   1.412   7.592  0.1715  0.9034  1.3310
  184SOPE  C31021117   4.762   1.532   7.609 -0.0931 -1.0796 -0.3825
  184SOPE  H10X21118   4.709   1.607   7.672  3.9268  0.1068  1.8146
  184SOPE  H10Y21119   4.760   1.571   7.505  3.5438 -0.4175 -0.2613
  184SOPE  C31121120   4.909   1.529   7.654 -0.3009  0.1713  0.1895
  184SOPE  H11X21121   4.954   1.626   7.686 -1.1231  0.3917  0.7151
  184SOPE  H11Y21122   4.960   1.490   7.563 -0.9688  0.3632 -0.2699
  184SOPE  C31221123   4.954   1.429   7.764 -0.2103  0.3262  0.1158
  184SOPE  H12X21124   4.950   1.326   7.721  1.1041  0.4791 -0.4046
  184SOPE  H12Y21125   4.878   1.434   7.844 -2.2540  0.9486 -1.8196
  184SOPE  C31321126   5.092   1.464   7.819  0.7508  0.4303  0.1668
  184SOPE  H13X21127   5.097   1.567   7.860  0.1790 -0.3095  2.1853
  184SOPE  H13Y21128   5.165   1.456   7.736  0.7559 -2.7012  0.4046
  184SOPE  C31421129   5.140   1.374   7.929 -0.5971  0.1641 -0.3912
  184SOPE  H14X21130   5.249   1.363   7.911 -0.2454  2.1827  0.3637
  184SOPE  H14Y21131   5.103   1.269   7.933 -0.4803  0.0523 -1.9660
  184SOPE  C31521132   5.113   1.425   8.073  0.6281 -0.4890 -0.1242
  184SOPE  H15X21133   5.008   1.401   8.103  0.7771  2.9565  3.6262
  184SOPE  H15Y21134   5.124   1.535   8.070  0.3578 -0.4338  0.7826
  184SOPE  C31621135   5.194   1.350   8.177 -0.4273 -0.4669 -0.0654
  184SOPE  H16X21136   5.300   1.380   8.161 -1.2390  1.0980 -2.9700
  184SOPE  H16Y21137   5.200   1.243   8.148 -0.7717 -0.3833 -0.4599
  184SOPE  C31721138   5.146   1.358   8.320 -0.6004  0.0750 -0.3573
  184SOPE  H17X21139   5.036   1.338   8.326 -0.9219  1.1048 -2.3621
  184SOPE  H17Y21140   5.141   1.464   8.350  1.0274  0.6150 -1.8926
  184SOPE  C31821141   5.236   1.284   8.426 -0.5575 -0.0386 -0.8782
  184SOPE  H18X21142   5.264   1.181   8.398 -0.9410 -0.5458  0.5961
  184SOPE  H18Y21143   5.190   1.286   8.527 -0.2948 -1.2389 -0.7380
  184SOPE  H18Z21144   5.339   1.325   8.417 -0.9890  1.4576  0.6925
  185SAPI   C1221145   1.375   3.612  11.107  1.0575 -0.2234 -0.0369
  185SAPI    H221146   1.425   3.544  11.035 -3.4404 -2.8004 -0.9911
  185SAPI    O221147   1.299   3.534  11.205  0.1720  0.3694 -0.1927
  185SAPI   HO221148   1.276   3.452  11.161  2.1116  0.4474 -1.4332
  185SAPI   C1321149   1.473   3.699  11.179 -0.2215  0.3922 -0.3468
  185SAPI    H321150   1.518   3.759  11.097  0.5131 -2.1949 -1.8997
  185SAPI    O321151   1.585   3.634  11.230  0.2103  0.8944 -0.5764
  185SAPI   HO321152   1.654   3.631  11.164  1.1042 -0.2888  0.3895
  185SAPI   C1421153   1.409   3.798  11.274  0.2570 -0.8283  0.2493
  185SAPI    H421154   1.364   3.738  11.355  0.4769 -1.5325 -0.1485
  185SAPI    O421155   1.508   3.881  11.340 -0.3199  0.3420 -0.9306
  185SAPI   HO421156   1.556   3.930  11.274  1.0218 -0.0565 -0.2683
  185SAPI   C1521157   1.316   3.887  11.196  0.5798 -0.0801  0.0159
  185SAPI    H521158   1.370   3.947  11.120 -2.9143  2.3991 -0.6637
  185SAPI    O521159   1.252   3.984  11.278 -0.5887  0.1622 -0.4358
  185SAPI   HO521160   1.214   4.052  11.221  1.4154  2.1628  0.5088
  185SAPI   C1621161   1.208   3.802  11.115 -0.4375 -0.0542  0.5852
  185SAPI    H621162   1.151   3.753  11.196  1.3069 -0.6428  1.4794
  185SAPI    O621163   1.120   3.884  11.040 -0.0797  0.1258 -0.0881
  185SAPI   HO621164   1.133   3.851  10.950 -1.0364  0.2587 -0.2823
  185SAPI   C1121165   1.282   3.704  11.026 -0.4326  0.3337  0.5685
  185SAPI    H121166   1.354   3.760  10.962 -0.1641 -0.5762  0.0566
  185SAPI     P21167   1.179   3.636  10.791 -0.1044 -0.2941 -0.4379
  185SAPI   O1321168   1.074   3.557  10.732 -0.5714 -0.2857  0.3599
  185SAPI   O1421169   1.317   3.620  10.735 -0.0990 -0.1719 -0.2854
  185SAPI   O1221170   1.191   3.615  10.956 -0.3503  0.2666 -0.0325
  185SAPI   O1121171   1.128   3.785  10.785  0.8279  0.2302  0.0855
  185SAPI    C121172   1.187   3.889  10.709 -0.0337  0.4606  0.0718
  185SAPI    HA21173   1.141   3.978  10.757 -1.5994 -0.7217  0.7911
  185SAPI    HB21174   1.296   3.904  10.727  0.2243  0.7269 -1.6446
  185SAPI    C221175   1.145   3.879  10.563 -0.9990  0.3355  0.1973
  185SAPI    HS21176   1.037   3.854  10.554 -0.7488  0.2236 -2.8801
  185SAPI   O2121177   1.235   3.795  10.482  0.1668 -1.1898 -0.1497
  185SAPI   C2121178   1.184   3.710  10.386 -0.3103 -0.1284 -0.6810
  185SAPI   O2221179   1.066   3.710  10.355  0.6732 -0.1711 -0.0308
  185SAPI   C2221180   1.298   3.614  10.342  0.1545  0.3188  1.4455
  185SAPI   H2R21181   1.393   3.672  10.346  1.4228 -1.6207  0.0726
  185SAPI   H2S21182   1.300   3.533  10.418  0.9875 -1.4126 -0.3678
  185SAPI    C321183   1.148   4.017  10.494 -0.0340 -0.5311  0.7594
  185SAPI    HX21184   1.254   4.050  10.499 -0.5915  1.4915 -0.1948
  185SAPI    HY21185   1.088   4.087  10.557  0.7403  0.2029  0.6947
  185SAPI   O3121186   1.108   4.028  10.355 -0.5666  0.1943 -0.2572
  185SAPI   C3121187   0.973   4.023  10.327  0.2497  0.3937 -0.8519
  185SAPI   O3221188   0.883   4.027  10.407 -0.1282 -0.2320 -0.0294
  185SAPI   C3221189   0.957   4.030  10.179 -0.1832 -0.4085 -0.2737
  185SAPI   H2X21190   1.046   3.979  10.136 -1.4968 -1.2374 -2.0722
  185SAPI   H2Y21191   0.950   4.137  10.147 -0.3070  0.3725  2.2333
  185SAPI   C2321192   1.265   3.554  10.202  0.2627  0.2564 -0.5897
  185SAPI   H3R21193   1.163   3.509  10.194  0.1091 -0.1711  2.8167
  185SAPI   H3S21194   1.327   3.464  10.189  0.1670  0.4041 -2.0924
  185SAPI   C2421195   1.297   3.646  10.085 -0.5483  0.1513 -0.7676
  185SAPI   H4R21196   1.251   3.748  10.085 -2.6802 -0.7819 -1.8334
  185SAPI   H4S21197   1.266   3.607   9.986  0.6569 -0.8498 -0.7627
  185SAPI   C2521198   1.449   3.672  10.078  0.8360  0.9833  0.6673
  185SAPI   H5R21199   1.501   3.658  10.174  1.2875  0.4506  0.3427
  185SAPI   C2621200   1.520   3.692   9.964 -0.1050 -0.0267 -0.2351
  185SAPI   H6R21201   1.628   3.699   9.979  0.0236  2.9787 -2.3269
  185SAPI   C2721202   1.453   3.701   9.829 -0.0383 -0.5912 -0.9456
  185SAPI   H7R21203   1.344   3.720   9.827  0.1932  0.7215 -2.0069
  185SAPI   H7S21204   1.479   3.608   9.775  4.0492  0.2638 -0.6594
  185SAPI   C2821205   1.514   3.815   9.745  0.1034  0.2165 -0.2479
  185SAPI   H8R21206   1.553   3.902   9.799 -1.6482  0.0974  1.2660
  185SAPI   C2921207   1.524   3.810   9.613 -0.2184  0.5285 -0.1898
  185SAPI   H9R21208   1.584   3.884   9.559  2.2432 -0.6404  0.8608
  185SAPI  C21021209   1.479   3.694   9.523 -0.5685  0.5691  0.2726
  185SAPI  H10R21210   1.381   3.648   9.547 -0.2535  0.3575  1.1582
  185SAPI  H10S21211   1.548   3.607   9.526 -0.0029  0.9785 -0.4873
  185SAPI  C21121212   1.464   3.732   9.372  0.0322 -0.2217  0.4917
  185SAPI  H11R21213   1.364   3.768   9.345  0.1786 -1.5709 -1.9693
  185SAPI  C21221214   1.554   3.737   9.269  0.2873 -0.4478 -0.6523
  185SAPI  H12R21215   1.513   3.769   9.172  1.6026 -0.6393 -1.2754
  185SAPI  C21321216   1.699   3.702   9.263  0.1517  0.6547 -0.4075
  185SAPI  H13R21217   1.718   3.594   9.244  2.0594  0.7476  0.8249
  185SAPI  H13S21218   1.749   3.712   9.362 -0.7313 -0.8046  0.1963
  185SAPI  C21421219   1.781   3.791   9.168  0.0340 -0.3466  0.6249
  185SAPI  H14R21220   1.743   3.895   9.167  1.0440  0.0817 -3.5299
  185SAPI  C21521221   1.877   3.745   9.091 -0.1763 -0.1475 -0.7384
  185SAPI  H15R21222   1.938   3.815   9.031  2.0421  0.5037  2.1699
  185SAPI  C21621223   1.921   3.602   9.072  0.0152  0.4239  0.4735
  185SAPI  H16R21224   1.894   3.529   9.152  2.5695 -2.5965 -1.3002
  185SAPI  H16S21225   2.031   3.598   9.059  0.0286 -1.3839  0.9853
  185SAPI  C21721226   1.870   3.537   8.936 -0.3847  0.6468  0.2148
  185SAPI  H17R21227   1.907   3.433   8.918 -1.0940 -0.0272  2.5014
  185SAPI  H17S21228   1.911   3.601   8.855 -0.4032  0.7761  0.3076
  185SAPI  C21821229   1.722   3.529   8.912 -0.3973 -0.3284  0.2860
  185SAPI  H18R21230   1.679   3.616   8.966 -0.1509 -0.7795  1.2277
  185SAPI  H18S21231   1.681   3.441   8.966 -0.3924 -1.5360 -1.6342
  185SAPI  C21921232   1.664   3.544   8.772 -0.2546 -0.2954  0.7315
  185SAPI  H19R21233   1.702   3.462   8.708  1.3798  0.7031  0.4039
  185SAPI  H19S21234   1.690   3.641   8.726  0.2403  0.6812  3.0157
  185SAPI  C22021235   1.511   3.520   8.766 -1.0603  0.8987  0.0204
  185SAPI  H20R21236   1.478   3.437   8.833 -1.1642  0.1703 -0.9226
  185SAPI  H20S21237   1.486   3.489   8.662  3.4407  0.4977 -1.0609
  185SAPI  H20T21238   1.461   3.615   8.795 -1.1778  0.2699  1.9078
  185SAPI   C3321239   0.832   3.966  10.127  0.2708  0.4085 -0.0135
  185SAPI   H3X21240   0.811   4.020  10.032  1.9711 -0.9160 -1.1770
  185SAPI   H3Y21241   0.744   3.967  10.195  0.3817 -0.7694  0.1700
  185SAPI   C3421242   0.841   3.814  10.079 -0.2477 -0.4996 -0.4654
  185SAPI   H4X21243   0.743   3.765  10.064  0.4169 -1.3994 -1.9878
  185SAPI   H4Y21244   0.875   3.765  10.173 -1.1103  1.5811  0.9759
  185SAPI   C3521245   0.946   3.777   9.972  0.2925  0.5498  0.0446
  185SAPI   H5X21246   0.964   3.668   9.969 -0.9966  0.3709 -2.6378
  185SAPI   H5Y21247   1.039   3.831   9.999  0.4822 -1.1284  2.9059
  185SAPI   C3621248   0.896   3.828   9.840 -0.7718  0.1924  0.1062
  185SAPI   H6X21249   0.899   3.939   9.841  0.8147  0.1609  0.1515
  185SAPI   H6Y21250   0.791   3.797   9.821 -0.9353  1.3087 -0.9479
  185SAPI   C3721251   0.990   3.788   9.724  0.5619  0.0297  0.4255
  185SAPI   H7X21252   0.983   3.680   9.699 -0.0766  0.7251 -2.6611
  185SAPI   H7Y21253   1.093   3.812   9.759  0.4484 -0.6101  1.2147
  185SAPI   C3821254   0.952   3.864   9.592 -0.6968 -0.9807  0.3183
  185SAPI   H8X21255   0.984   3.969   9.610 -0.8106 -0.9201  0.1738
  185SAPI   H8Y21256   0.841   3.867   9.589 -0.6791 -1.0189 -0.3581
  185SAPI   C3921257   1.040   3.825   9.472  0.1406  0.6637 -0.1559
  185SAPI   H9X21258   1.131   3.778   9.516  0.1832  1.9276  1.1127
  185SAPI   H9Y21259   1.076   3.914   9.415  3.2504 -1.2956 -1.4383
  185SAPI  C31021260   0.967   3.739   9.372  0.1652 -0.8897  0.3164
  185SAPI  H10X21261   0.877   3.793   9.334  1.3645  0.5957 -0.4471
  185SAPI  H10Y21262   0.942   3.643   9.423  2.5553 -0.1912  2.8894
  185SAPI  C31121263   1.043   3.713   9.248 -0.3539 -0.1663  0.1925
  185SAPI  H11X21264   1.140   3.661   9.265 -0.9403 -1.9031 -1.5478
  185SAPI  H11Y21265   1.079   3.804   9.196 -1.0286  1.6817  2.8878
  185SAPI  C31221266   0.982   3.633   9.132 -0.2939  0.2283 -0.5703
  185SAPI  H12X21267   0.886   3.683   9.108 -0.2833 -0.8029 -2.8486
  185SAPI  H12Y21268   0.958   3.535   9.178 -2.0069  0.8759 -0.0197
  185SAPI  C31321269   1.069   3.616   9.005  0.1632  0.9600 -0.5263
  185SAPI  H13X21270   1.172   3.582   9.028 -0.3768  0.5657  1.3553
  185SAPI  H13Y21271   1.069   3.712   8.949 -2.5685  1.4865  0.2738
  185SAPI  C31421272   1.003   3.515   8.911  0.4876 -0.6086  0.7399
  185SAPI  H14X21273   0.930   3.573   8.850  1.1863 -0.5760 -0.0723
  185SAPI  H14Y21274   0.944   3.432   8.954  0.8233 -1.1635  0.1514
  185SAPI  C31521275   1.112   3.449   8.829 -0.4648  0.4110  0.0017
  185SAPI  H15X21276   1.184   3.397   8.896  0.8876  1.6918 -0.4050
  185SAPI  H15Y21277   1.159   3.538   8.781 -1.1730  2.5562  3.1362
  185SAPI  C31621278   1.055   3.354   8.722 -0.2697 -0.0108  0.3485
  185SAPI  H16X21279   0.961   3.383   8.670 -0.0784 -1.0909 -0.5978
  185SAPI  H16Y21280   1.046   3.252   8.763 -0.5483  0.3214  1.1200
  185SAPI  C31721281   1.149   3.347   8.603 -0.6482  0.5195 -0.1829
  185SAPI  H17X21282   1.244   3.296   8.630 -2.6653 -2.8415  0.8127
  185SAPI  H17Y21283   1.168   3.451   8.569 -1.0782  0.3929 -0.8107
  185SAPI  C31821284   1.082   3.278   8.480  0.0452 -0.3667  0.0163
  185SAPI  H18X21285   1.077   3.172   8.512 -1.7045 -0.3486 -0.1325
  185SAPI  H18Y21286   1.135   3.288   8.383 -1.2611 -1.1872 -0.8067
  185SAPI  H18Z21287   0.977   3.302   8.452 -0.3108  1.0010  2.4133
  186SAPI   C1221288   1.747   1.840  10.943  0.1960 -0.3034  0.6965
  186SAPI    H221289   1.665   1.784  10.895  2.0946 -1.6962 -1.0180
  186SAPI    O221290   1.777   1.954  10.867  0.1180 -0.5811 -0.7197
  186SAPI   HO221291   1.859   1.936  10.820  0.5046 -1.2652  0.2162
  186SAPI   C1321292   1.712   1.879  11.095 -0.1917  0.1357  0.3869
  186SAPI    H321293   1.689   1.780  11.140 -1.5674 -0.4483 -1.5628
  186SAPI    O321294   1.598   1.958  11.106  0.3929  0.1797  0.6423
  186SAPI   HO321295   1.570   1.952  11.197 -0.7202 -0.9851  0.2306
  186SAPI   C1421296   1.831   1.937  11.170 -0.3537  0.0501  0.6764
  186SAPI    H421297   1.854   2.036  11.125 -1.8390 -0.0898 -0.4226
  186SAPI    O421298   1.800   1.962  11.310 -0.0418  0.0614 -0.2027
  186SAPI   HO421299   1.810   2.054  11.334  2.9955 -0.7573  1.8748
  186SAPI   C1521300   1.944   1.842  11.162  0.1522 -0.1757  0.4156
  186SAPI    H521301   1.902   1.752  11.212 -1.0896 -0.4436 -1.0703
  186SAPI    O521302   2.056   1.877  11.245  0.1498  0.1216  0.6070
  186SAPI   HO521303   2.029   1.867  11.336 -0.5037  1.9992  0.6442
  186SAPI   C1621304   1.984   1.806  11.020 -0.3928  0.2536  0.1863
  186SAPI    H621305   2.015   1.900  10.970  0.3091 -0.5257 -0.8724
  186SAPI    O621306   2.102   1.724  11.013  0.2482  0.5489  0.0857
  186SAPI   HO621307   2.157   1.757  10.942  1.5859  0.9389  1.2936
  186SAPI   C1121308   1.873   1.750  10.935  0.0028 -0.3248  0.5284
  186SAPI    H121309   1.842   1.655  10.983 -0.6928  1.1083  3.0053
  186SAPI     P21310   1.882   1.623  10.696  0.2123  0.1519 -0.4226
  186SAPI   O1321311   1.834   1.512  10.779  0.3887 -0.1086 -0.4945
  186SAPI   O1421312   1.991   1.594  10.599  0.0393 -0.5883  0.4791
  186SAPI   O1221313   1.928   1.738  10.799  0.1458 -0.0499  0.1591
  186SAPI   O1121314   1.769   1.696  10.607  0.1791 -0.6283  0.1948
  186SAPI    C121315   1.809   1.820  10.543 -0.4109 -0.3678  0.7586
  186SAPI    HA21316   1.761   1.906  10.596 -1.0887 -0.9426  1.0832
  186SAPI    HB21317   1.919   1.835  10.540 -0.0855 -1.9439  3.1596
  186SAPI    C221318   1.778   1.818  10.394  0.2122  0.3017 -0.0121
  186SAPI    HS21319   1.799   1.920  10.357 -0.5299  0.3168 -0.3962
  186SAPI   O2121320   1.634   1.789  10.371 -0.4834  0.0993  0.1802
  186SAPI   C2121321   1.545   1.888  10.390 -0.6239 -0.8392  0.2691
  186SAPI   O2221322   1.583   1.993  10.435 -0.0465  0.1032 -0.0603
  186SAPI   C2221323   1.406   1.847  10.355 -0.0873  0.8226  0.4151
  186SAPI   H2R21324   1.395   1.744  10.395  1.2641  0.0449 -1.1472
  186SAPI   H2S21325   1.330   1.910  10.406 -1.6312 -0.7526  0.1037
  186SAPI    C321326   1.862   1.712  10.325  0.8628 -0.2310  0.2989
  186SAPI    HX21327   1.843   1.612  10.368  2.6757 -1.8140 -2.4449
  186SAPI    HY21328   1.969   1.740  10.340  0.4789 -0.1279  3.1766
  186SAPI   O3121329   1.819   1.714  10.190 -0.1417 -0.3673 -0.1853
  186SAPI   C3121330   1.844   1.598  10.125  0.0836  0.5433  0.4872
  186SAPI   O3221331   1.909   1.507  10.172  0.0448 -0.1617  0.0070
  186SAPI   C3221332   1.767   1.583   9.999  0.6577  0.1637 -0.4609
  186SAPI   H2X21333   1.699   1.671   9.992  0.6747  0.2725  0.6770
  186SAPI   H2Y21334   1.704   1.491  10.003  1.5131 -0.3750  0.8660
  186SAPI   C2321335   1.390   1.852  10.202  0.3446 -0.0379 -0.0297
  186SAPI   H3R21336   1.301   1.787  10.184  0.8436 -0.5660 -0.6559
  186SAPI   H3S21337   1.473   1.806  10.144  0.8818  0.4374  0.3678
  186SAPI   C2421338   1.359   1.997  10.151 -0.2223 -0.3294  0.1985
  186SAPI   H4R21339   1.359   2.000  10.040  0.8279 -0.2561  0.1910
  186SAPI   H4S21340   1.444   2.067  10.170 -0.6081  0.0173  0.6522
  186SAPI   C2521341   1.230   2.048  10.212 -0.0655 -0.0792 -0.1177
  186SAPI   H5R21342   1.183   1.984  10.287  0.9245 -1.4342 -0.6388
  186SAPI   C2621343   1.163   2.165  10.178  0.1516  0.1130 -0.3595
  186SAPI   H6R21344   1.069   2.194  10.228 -2.1986 -3.4870 -2.5277
  186SAPI   C2721345   1.214   2.264  10.071  0.3322 -0.2516 -0.4341
  186SAPI   H7R21346   1.321   2.243  10.051  0.6777  0.6430  0.4110
  186SAPI   H7S21347   1.199   2.371  10.098  1.6374  0.0927 -1.0389
  186SAPI   C2821348   1.126   2.252   9.947  0.1609  0.6515 -0.0567
  186SAPI   H8R21349   1.019   2.229   9.963 -0.8593  3.3803 -2.6183
  186SAPI   C2921350   1.176   2.248   9.821  0.3023 -0.5099  0.0360
  186SAPI   H9R21351   1.103   2.224   9.742 -0.5986  0.6740  0.5009
  186SAPI  C21021352   1.322   2.270   9.781 -0.3439 -0.2898 -0.2440
  186SAPI  H10R21353   1.388   2.306   9.863  0.7781  0.8345 -1.5912
  186SAPI  H10S21354   1.324   2.358   9.712  1.2377 -1.5392 -1.8269
  186SAPI  C21121355   1.395   2.156   9.714  0.4107  0.4054 -0.5513
  186SAPI  H11R21356   1.453   2.091   9.781 -0.6766 -1.0674 -1.0131
  186SAPI  C21221357   1.391   2.126   9.579 -0.6212  0.3654 -0.6265
  186SAPI  H12R21358   1.451   2.040   9.543  0.3651  0.3233  1.0826
  186SAPI  C21321359   1.319   2.199   9.468 -0.1514  0.1845 -0.2278
  186SAPI  H13R21360   1.242   2.273   9.500 -0.8126 -0.3110 -0.6578
  186SAPI  H13S21361   1.256   2.129   9.410 -1.4764  1.2229 -0.0828
  186SAPI  C21421362   1.423   2.273   9.392  0.1279  0.0983  0.3016
  186SAPI  H14R21363   1.452   2.369   9.437  0.6632  0.9165 -1.7766
  186SAPI  C21521364   1.458   2.254   9.261 -0.1593  0.3370 -0.0853
  186SAPI  H15R21365   1.531   2.323   9.216  2.5279 -3.7294 -2.2856
  186SAPI  C21621366   1.410   2.141   9.169  0.5364  0.3712 -0.4565
  186SAPI  H16R21367   1.315   2.096   9.205  2.5810 -3.3660  0.4311
  186SAPI  H16S21368   1.469   2.048   9.181 -0.8845 -0.3331  1.2534
  186SAPI  C21721369   1.384   2.168   9.015  0.6398  0.3567 -0.1513
  186SAPI  H17R21370   1.482   2.209   8.981  0.6623 -0.6279 -1.2810
  186SAPI  H17S21371   1.308   2.247   8.997 -0.7067 -0.5133  1.5086
  186SAPI  C21821372   1.364   2.042   8.926 -0.2318 -0.0954 -0.0126
  186SAPI  H18R21373   1.265   2.009   8.964 -0.7406  1.0606 -0.3144
  186SAPI  H18S21374   1.443   1.967   8.943 -2.3340 -2.5831 -0.8336
  186SAPI  C21921375   1.371   2.089   8.777  0.5651  0.0271  0.5305
  186SAPI  H19R21376   1.475   2.115   8.749  0.0098  0.8368 -0.8329
  186SAPI  H19S21377   1.312   2.182   8.758 -0.0395 -0.3598  0.5041
  186SAPI  C22021378   1.319   1.981   8.675 -0.0354  0.9882  0.0694
  186SAPI  H20R21379   1.210   1.958   8.682  0.5552 -1.4807  2.1080
  186SAPI  H20S21380   1.372   1.884   8.688 -0.9302  0.3641 -0.8019
  186SAPI  H20T21381   1.330   2.010   8.568 -1.6416 -0.4815 -0.5330
  186SAPI   C3321382   1.850   1.572   9.870  0.6655 -0.0432 -0.4708
  186SAPI   H3X21383   1.902   1.474   9.872  2.6652  0.9699 -1.4886
  186SAPI   H3Y21384   1.926   1.653   9.870  2.5303 -1.7420 -2.2082
  186SAPI   C3421385   1.770   1.595   9.743  0.5599  0.5393  0.0977
  186SAPI   H4X21386   1.725   1.696   9.760  2.6954  1.7121 -0.9627
  186SAPI   H4Y21387   1.693   1.517   9.754  0.7854  0.5618  2.0870
  186SAPI   C3521388   1.842   1.592   9.607 -0.9113  0.3572 -0.5157
  186SAPI   H5X21389   1.909   1.504   9.608  0.7658  1.6099  0.4174
  186SAPI   H5Y21390   1.914   1.677   9.616 -0.7392  0.1018  0.6270
  186SAPI   C3621391   1.746   1.626   9.489  0.8964  0.6477 -0.0347
  186SAPI   H6X21392   1.712   1.732   9.480 -1.1125  0.0615  0.5553
  186SAPI   H6Y21393   1.657   1.563   9.509  1.6536 -0.0486  1.1726
  186SAPI   C3721394   1.821   1.592   9.356 -0.3898 -0.0128 -0.6703
  186SAPI   H7X21395   1.835   1.482   9.349 -0.0578  0.0400 -0.8493
  186SAPI   H7Y21396   1.921   1.639   9.348 -0.2567 -0.5279 -2.2248
  186SAPI   C3821397   1.742   1.634   9.233 -0.1600  0.7991 -0.3170
  186SAPI   H8X21398   1.754   1.742   9.208  1.1696  0.4826 -1.0832
  186SAPI   H8Y21399   1.635   1.607   9.246  0.2827 -1.9373 -1.9108
  186SAPI   C3921400   1.790   1.565   9.103  0.1518 -0.2509 -0.4698
  186SAPI   H9X21401   1.782   1.455   9.112 -1.5788 -0.0038  1.3789
  186SAPI   H9Y21402   1.890   1.601   9.071  0.2813 -1.1198 -1.0495
  186SAPI  C31021403   1.705   1.615   8.986  0.1823  0.1075 -0.6792
  186SAPI  H10X21404   1.672   1.719   9.005 -0.7536 -0.5373  1.3903
  186SAPI  H10Y21405   1.617   1.550   8.965 -1.0641  0.7350  2.2730
  186SAPI  C31121406   1.793   1.633   8.860  0.7824  0.0232  0.0328
  186SAPI  H11X21407   1.847   1.538   8.838  1.7838 -0.1858  3.1074
  186SAPI  H11Y21408   1.866   1.711   8.889  1.5970 -0.3837 -0.8629
  186SAPI  C31221409   1.711   1.685   8.740 -0.4904 -0.6713  0.0296
  186SAPI  H12X21410   1.663   1.782   8.762 -0.6899 -0.9235  0.6974
  186SAPI  H12Y21411   1.632   1.609   8.725  0.3631 -1.6382  0.3769
  186SAPI  C31321412   1.787   1.679   8.602 -0.0414  0.2527 -0.3012
  186SAPI  H13X21413   1.872   1.607   8.608  0.9685  1.4650  0.0098
  186SAPI  H13Y21414   1.832   1.774   8.567  0.6504  0.1909  0.4156
  186SAPI  C31421415   1.691   1.641   8.495 -0.1520 -0.4473 -0.3322
  186SAPI  H14X21416   1.611   1.718   8.492  1.6259  1.4679  0.1405
  186SAPI  H14Y21417   1.643   1.544   8.518 -0.2186 -0.5660 -0.9463
  186SAPI  C31521418   1.756   1.648   8.362 -0.2177 -0.1134  0.0815
  186SAPI  H15X21419   1.847   1.584   8.360  1.0361  1.6735 -1.5837
  186SAPI  H15Y21420   1.773   1.755   8.338  0.2409 -0.7708 -2.6100
  186SAPI  C31621421   1.658   1.597   8.248 -0.0906  0.6548  0.5390
  186SAPI  H16X21422   1.698   1.634   8.152 -2.2731 -0.8316 -0.9767
  186SAPI  H16Y21423   1.568   1.657   8.271  0.2614  1.0602  0.8695
  186SAPI  C31721424   1.623   1.448   8.254 -0.3580 -0.6830 -0.0669
  186SAPI  H17X21425   1.543   1.433   8.329 -0.8372  1.1166 -0.2014
  186SAPI  H17Y21426   1.717   1.389   8.260  0.0139  0.0183  1.3960
  186SAPI  C31821427   1.566   1.408   8.121  0.1501  0.1548  0.1885
  186SAPI  H18X21428   1.527   1.304   8.117 -0.0825  0.2452  0.0314
  186SAPI  H18Y21429   1.644   1.423   8.043  1.2535  0.2820  1.3044
  186SAPI  H18Z21430   1.487   1.477   8.083  1.1150  0.7669 -0.7397
  187SAPI   C1221431   5.259   3.653   6.247 -0.0538  0.2700  0.8008
  187SAPI    H221432   5.288   3.760   6.250 -0.6377  0.4758 -0.2676
  187SAPI    O221433   5.213   3.622   6.116 -0.0143 -0.3523 -0.0861
  187SAPI   HO221434   5.187   3.706   6.076  0.4932  0.6683  1.6825
  187SAPI   C1321435   5.382   3.570   6.269  0.2689 -0.2940  0.7495
  187SAPI    H321436   5.414   3.599   6.372  1.6092  0.1744  0.2162
  187SAPI    O321437   5.484   3.610   6.178 -0.5261 -0.9440  0.0505
  187SAPI   HO321438   5.429   3.626   6.101  0.2783 -1.9205 -0.7427
  187SAPI   C1421439   5.352   3.423   6.259 -0.2334  0.0145 -0.7663
  187SAPI    H421440   5.307   3.406   6.158 -0.1767  0.9646 -0.9526
  187SAPI    O421441   5.474   3.342   6.282  0.6730 -0.6768  0.0235
  187SAPI   HO421442   5.542   3.398   6.320 -1.0939  0.2264  1.9769
  187SAPI   C1521443   5.252   3.391   6.371  0.1144  1.4272  0.4750
  187SAPI    H521444   5.310   3.410   6.464  0.5054 -2.4787  1.0846
  187SAPI    O521445   5.214   3.245   6.375 -0.3722 -0.1921 -0.5948
  187SAPI   HO521446   5.137   3.242   6.318 -0.6099  1.0272 -0.3462
  187SAPI   C1621447   5.126   3.478   6.366  0.1653 -0.6308 -0.1619
  187SAPI    H621448   5.068   3.440   6.279  2.0745 -2.2705 -0.7553
  187SAPI    O621449   5.044   3.458   6.479 -0.5589 -0.0995  0.0534
  187SAPI   HO621450   4.960   3.499   6.457 -1.5643 -1.7968  0.6962
  187SAPI   C1121451   5.154   3.621   6.361 -0.3339 -0.4827  0.3486
  187SAPI    H121452   5.185   3.658   6.461  0.4199 -2.0716  0.7171
  187SAPI     P21453   5.001   3.846   6.370  0.1811  0.1041  0.1448
  187SAPI   O1321454   4.873   3.895   6.315 -0.6294 -0.0336  0.4334
  187SAPI   O1421455   5.123   3.923   6.343 -0.0312  0.0234  0.1645
  187SAPI   O1221456   5.028   3.692   6.333 -0.0913 -0.1026  0.1156
  187SAPI   O1121457   4.983   3.836   6.527  0.3849  0.2416 -0.2555
  187SAPI    C121458   4.858   3.809   6.585  0.4276  0.2107 -0.4982
  187SAPI    HA21459   4.793   3.898   6.571  0.9601  0.5414 -0.8841
  187SAPI    HB21460   4.809   3.724   6.533 -2.1988  0.6639  1.1583
  187SAPI    C221461   4.866   3.775   6.741 -0.1834  0.1598  0.6716
  187SAPI    HS21462   4.763   3.742   6.770 -0.0911  1.4865  2.6347
  187SAPI   O2121463   4.920   3.888   6.817 -0.5068  0.9510 -0.0667
  187SAPI   C2121464   4.840   3.927   6.923  0.0366  0.5114  0.7193
  187SAPI   O2221465   4.727   3.890   6.944 -0.0695 -0.2115  0.2525
  187SAPI   C2221466   4.924   4.030   6.993 -0.6232  0.1011  0.1425
  187SAPI   H2R21467   5.021   3.978   7.007 -0.8898 -0.6077 -0.6713
  187SAPI   H2S21468   4.939   4.125   6.936 -0.2428  0.8751  1.4962
  187SAPI    C321469   4.955   3.652   6.768 -0.5841  0.2765  0.0249
  187SAPI    HX21470   5.054   3.682   6.729 -0.7430  2.1051  0.9524
  187SAPI    HY21471   4.932   3.562   6.707 -0.1983  0.8611 -0.9953
  187SAPI   O3121472   4.951   3.617   6.910 -0.6073  0.5686  0.3713
  187SAPI   C3121473   5.051   3.680   6.974  0.2370  0.5120 -0.6005
  187SAPI   O3221474   5.144   3.741   6.929  0.2000 -0.1885  0.3415
  187SAPI   C3221475   5.040   3.628   7.129 -0.5815  0.0640  0.0670
  187SAPI   H2X21476   5.123   3.677   7.185 -0.8306 -0.1792  0.6421
  187SAPI   H2Y21477   5.062   3.520   7.127  2.2245  0.6089 -1.2292
  187SAPI   C2321478   4.856   4.070   7.126 -0.5760 -0.1377 -0.5922
  187SAPI   H3R21479   4.839   3.977   7.184 -0.3107  0.1330 -0.0782
  187SAPI   H3S21480   4.759   4.118   7.101 -0.7549 -0.6440 -0.8793
  187SAPI   C2421481   4.957   4.160   7.204  0.8407 -0.4311  0.2110
  187SAPI   H4R21482   4.899   4.231   7.267  0.7684  0.5328 -0.9314
  187SAPI   H4S21483   5.004   4.231   7.134  0.7963 -0.7037 -0.0958
  187SAPI   C2521484   5.053   4.078   7.283  0.0533 -0.0786  0.4247
  187SAPI   H5R21485   5.138   4.041   7.223 -0.3082  1.7390 -1.2423
  187SAPI   C2621486   5.044   4.049   7.417 -0.2002  0.5832 -0.5219
  187SAPI   H6R21487   5.114   3.978   7.463 -0.3248  0.0162 -1.2084
  187SAPI   C2721488   4.927   4.093   7.501 -0.4179 -0.3629 -0.1469
  187SAPI   H7R21489   4.911   4.005   7.567 -0.7588 -1.6887 -1.9533
  187SAPI   H7S21490   4.831   4.110   7.448 -0.5693  1.2866  0.6339
  187SAPI   C2821491   4.939   4.223   7.577  0.7243  0.4805  0.4129
  187SAPI   H8R21492   4.899   4.311   7.524  1.6199  0.8237  0.2982
  187SAPI   C2921493   4.993   4.238   7.699 -0.7198 -0.7977 -0.2968
  187SAPI   H9R21494   4.999   4.344   7.727  0.4609 -0.8899 -0.1603
  187SAPI  C21021495   5.063   4.142   7.794 -0.6070  0.2625 -0.0604
  187SAPI  H10R21496   5.014   4.043   7.782 -1.7133  0.6826  0.9246
  187SAPI  H10S21497   5.066   4.188   7.895 -0.5351  2.0578 -0.8540
  187SAPI  C21121498   5.208   4.117   7.753 -0.6025 -0.1575  0.4327
  187SAPI  H11R21499   5.244   4.152   7.656 -1.0633  0.9003  0.6402
  187SAPI  C21221500   5.297   4.056   7.830 -0.1084 -0.3119 -0.8258
  187SAPI  H12R21501   5.403   4.047   7.799  0.4877  0.6616  0.8647
  187SAPI  C21321502   5.283   4.009   7.972  0.7875  0.1245  0.7034
  187SAPI  H13R21503   5.225   4.083   8.031  0.8715 -0.0075  0.9495
  187SAPI  H13S21504   5.381   4.012   8.025  0.1433  0.0714  1.9049
  187SAPI  C21421505   5.225   3.871   7.989  0.5508 -0.3195  0.1758
  187SAPI  H14R21506   5.202   3.813   7.899 -0.2447  0.1569  0.0693
  187SAPI  C21521507   5.171   3.831   8.105  0.5111  0.2071 -0.3289
  187SAPI  H15R21508   5.108   3.741   8.113 -0.7820  1.1002 -0.2418
  187SAPI  C21621509   5.180   3.904   8.237  0.6455 -0.5696  0.0948
  187SAPI  H16R21510   5.094   3.972   8.222  2.3347  1.5492 -0.2324
  187SAPI  H16S21511   5.264   3.975   8.246 -0.3485  0.3248  2.8185
  187SAPI  C21721512   5.155   3.818   8.366  0.0993  0.4903 -0.4989
  187SAPI  H17R21513   5.231   3.737   8.366 -1.2698 -0.8091 -1.3580
  187SAPI  H17S21514   5.060   3.761   8.377  0.7053 -0.8041 -1.8197
  187SAPI  C21821515   5.174   3.912   8.492  0.1616  0.7296 -0.0367
  187SAPI  H18R21516   5.118   4.004   8.462  0.1436  1.1153  1.1718
  187SAPI  H18S21517   5.277   3.950   8.507 -0.3498  1.6072  1.3830
  187SAPI  C21921518   5.143   3.851   8.630 -0.2801 -0.3311 -0.3387
  187SAPI  H19R21519   5.225   3.781   8.657  0.9483  1.5351  0.9243
  187SAPI  H19S21520   5.055   3.788   8.610 -0.9594  0.5316 -0.1168
  187SAPI  C22021521   5.128   3.951   8.742  0.4829  0.2483  0.4491
  187SAPI  H20R21522   5.119   3.896   8.838 -1.0338 -1.9296 -0.8849
  187SAPI  H20S21523   5.041   4.017   8.721 -0.3255 -1.2893 -1.1600
  187SAPI  H20T21524   5.219   4.014   8.739  0.1047  0.7453 -1.5352
  187SAPI   C3321525   4.912   3.668   7.192  0.2897  0.4551 -0.6268
  187SAPI   H3X21526   4.825   3.639   7.129  0.8715 -0.8398 -0.8484
  187SAPI   H3Y21527   4.898   3.777   7.209  1.9450  0.2160  2.7428
  187SAPI   C3421528   4.891   3.602   7.328  0.4211 -0.0518  0.2449
  187SAPI   H4X21529   4.948   3.507   7.344  0.1549 -0.1317  0.7404
  187SAPI   H4Y21530   4.782   3.582   7.331  0.3341  0.4448  0.4019
  187SAPI   C3521531   4.941   3.703   7.432  0.0736  0.4411  0.2523
  187SAPI   H5X21532   4.888   3.801   7.422 -1.4272 -0.1270  2.3135
  187SAPI   H5Y21533   5.047   3.715   7.403 -0.4546  0.7494 -1.6837
  187SAPI   C3621534   4.903   3.654   7.575  0.1302  0.4576 -0.3848
  187SAPI   H6X21535   4.926   3.545   7.574  0.5355  0.5351  0.3371
  187SAPI   H6Y21536   4.795   3.674   7.589 -0.3756 -0.1022 -3.1666
  187SAPI   C3721537   4.983   3.730   7.683  0.1108 -0.0122 -0.2054
  187SAPI   H7X21538   4.969   3.840   7.672 -1.0099 -0.2039 -0.7672
  187SAPI   H7Y21539   5.091   3.707   7.675 -0.4112 -3.1127  1.0830
  187SAPI   C3821540   4.941   3.688   7.830  0.7064 -0.7973  0.0243
  187SAPI   H8X21541   4.831   3.677   7.840  0.5385 -0.0198 -0.8756
  187SAPI   H8Y21542   4.963   3.767   7.905 -0.8023 -0.7536  0.4343
  187SAPI   C3921543   4.998   3.557   7.884 -0.1937 -0.1646 -0.1981
  187SAPI   H9X21544   5.108   3.569   7.890 -0.4342  1.3895  2.1449
  187SAPI   H9Y21545   4.964   3.473   7.821 -0.8723 -0.2188  0.2357
  187SAPI  C31021546   4.950   3.533   8.027  0.1814  0.2820 -0.0300
  187SAPI  H10X21547   4.844   3.501   8.040  1.1402 -2.9242  0.3577
  187SAPI  H10Y21548   4.956   3.628   8.084  0.8312 -1.7694  3.4501
  187SAPI  C31121549   5.043   3.428   8.103 -0.2367  0.1169 -0.4201
  187SAPI  H11X21550   5.150   3.457   8.094  0.2603 -1.6009 -0.1252
  187SAPI  H11Y21551   5.039   3.332   8.047  0.8334 -0.2086  0.0428
  187SAPI  C31221552   4.998   3.416   8.245  0.0649 -0.3303  0.2025
  187SAPI  H12X21553   4.890   3.391   8.254 -0.4233  2.0566  1.5359
  187SAPI  H12Y21554   5.004   3.507   8.309 -1.3767  0.5620 -0.9195
  187SAPI  C31321555   5.090   3.306   8.313  0.1639  0.1547  0.6094
  187SAPI  H13X21556   5.193   3.342   8.293 -0.3678  0.4424 -1.7768
  187SAPI  H13Y21557   5.080   3.209   8.260  1.3960  0.1560  0.3675
  187SAPI  C31421558   5.085   3.292   8.466 -0.1489 -0.9582 -0.4506
  187SAPI  H14X21559   5.151   3.206   8.489  0.0214 -1.1530 -1.6100
  187SAPI  H14Y21560   4.979   3.270   8.493 -0.4893  1.4753  0.3142
  187SAPI  C31521561   5.125   3.417   8.546  0.1282 -1.0855 -0.3343
  187SAPI  H15X21562   5.061   3.505   8.524 -0.4614 -1.7930 -1.4680
  187SAPI  H15Y21563   5.227   3.452   8.521 -0.0939 -0.1367  0.0707
  187SAPI  C31621564   5.127   3.375   8.690 -0.4205 -0.0895  0.1752
  187SAPI  H16X21565   5.168   3.272   8.690  0.3389  0.2055  1.4776
  187SAPI  H16Y21566   5.017   3.370   8.704 -0.5197  2.0742  0.3684
  187SAPI  C31721567   5.197   3.472   8.787  0.0110 -0.1415 -0.1068
  187SAPI  H17X21568   5.137   3.565   8.802 -0.7226 -0.2793 -2.1741
  187SAPI  H17Y21569   5.299   3.506   8.759  1.2836 -1.4477  2.6785
  187SAPI  C31821570   5.203   3.409   8.925  0.2832  0.2328  0.5389
  187SAPI  H18X21571   5.213   3.298   8.926 -1.8050  0.0397  0.7333
  187SAPI  H18Y21572   5.103   3.429   8.966 -0.3058 -1.2444 -0.1293
  187SAPI  H18Z21573   5.283   3.447   8.992  0.6798 -0.2872  0.3693
  188SAPI   C1221574   6.713   0.436   6.387  0.5023 -0.6410  0.2623
  188SAPI    H221575   6.715   0.420   6.497 -0.5539 -0.5638  0.2944
  188SAPI    O221576   6.576   0.474   6.363  0.4302 -0.3392 -0.3342
  188SAPI   HO221577   6.539   0.392   6.331 -1.1370  0.9210 -1.8479
  188SAPI   C1321578   6.810   0.548   6.345  0.7966 -0.2384  0.2777
  188SAPI    H321579   6.911   0.505   6.359  1.0312  0.1615 -0.1757
  188SAPI    O321580   6.806   0.665   6.429 -0.2442  0.1583  0.6742
  188SAPI   HO321581   6.759   0.737   6.387  0.1525 -0.3231 -0.6072
  188SAPI   C1421582   6.792   0.579   6.198  0.0496  0.2425  0.4127
  188SAPI    H421583   6.688   0.606   6.170  0.3440 -1.1315 -2.1687
  188SAPI    O421584   6.866   0.701   6.166 -0.0883  0.6755  0.0205
  188SAPI   HO421585   6.812   0.777   6.187  0.3745  0.8912  0.4389
  188SAPI   C1521586   6.828   0.463   6.116  0.3762  0.3490 -0.4413
  188SAPI    H521587   6.932   0.434   6.142  0.6804  0.4720 -1.5096
  188SAPI    O521588   6.820   0.489   5.976 -0.1349  0.4303 -0.2737
  188SAPI   HO521589   6.912   0.481   5.950  0.2164  1.4873  0.5859
  188SAPI   C1621590   6.737   0.344   6.157 -0.7381  0.4441  0.5513
  188SAPI    H621591   6.628   0.358   6.139 -0.8486 -1.4685 -0.4499
  188SAPI    O621592   6.766   0.222   6.089  0.6744 -0.3830 -0.9433
  188SAPI   HO621593   6.732   0.159   6.152 -0.5497  1.6463  0.4655
  188SAPI   C1121594   6.742   0.312   6.309  0.8792  0.3700 -0.0949
  188SAPI    H121595   6.848   0.289   6.336  0.5283  2.0745  2.8686
  188SAPI     P21596   6.678   0.061   6.370 -0.5429  0.0317 -0.1873
  188SAPI   O1321597   6.759   0.014   6.258 -0.2595 -0.6460  0.3776
  188SAPI   O1421598   6.561  -0.020   6.392  0.0961 -0.5415  0.4793
  188SAPI   O1221599   6.643   0.213   6.341 -0.5379 -0.1078  0.7115
  188SAPI   O1121600   6.757   0.062   6.506  0.5381 -0.3620 -0.6445
  188SAPI    C121601   6.692   0.130   6.615 -0.1535  0.0761 -0.1233
  188SAPI    HA21602   6.779   0.183   6.660  1.2258 -1.5682 -0.7879
  188SAPI    HB21603   6.617   0.206   6.582  0.9041  1.0686 -0.2760
  188SAPI    C221604   6.631   0.031   6.722 -0.5445  0.3147  0.4492
  188SAPI    HS21605   6.529  -0.004   6.698  0.0987 -1.7631  0.6308
  188SAPI   O2121606   6.641   0.102   6.849 -0.0581  0.4095  0.2032
  188SAPI   C2121607   6.537   0.175   6.881  0.3587  0.5472 -0.0862
  188SAPI   O2221608   6.430   0.170   6.820 -0.3508  0.0671 -0.2156
  188SAPI   C2221609   6.565   0.278   6.990 -0.3127 -0.1288  0.2836
  188SAPI   H2R21610   6.674   0.270   7.008  0.2337 -0.1967 -2.7889
  188SAPI   H2S21611   6.538   0.370   6.934  0.9273 -0.7902 -1.4369
  188SAPI    C321612   6.724  -0.094   6.721  1.0448  0.4913 -0.5787
  188SAPI    HX21613   6.828  -0.055   6.729  0.9431  0.4966  0.8210
  188SAPI    HY21614   6.712  -0.158   6.631  2.2345 -0.0245 -0.3771
  188SAPI   O3121615   6.694  -0.176   6.839  0.1844 -0.0594 -0.4460
  188SAPI   C3121616   6.583  -0.249   6.841  0.8733  0.1193  0.0067
  188SAPI   O3221617   6.488  -0.244   6.767 -0.9281 -1.1409 -0.0640
  188SAPI   C3221618   6.591  -0.332   6.968  0.2351  0.1733  0.3550
  188SAPI   H2X21619   6.696  -0.367   6.977 -0.1150 -1.2067 -0.7113
  188SAPI   H2Y21620   6.529  -0.420   6.941 -0.7317  1.7369 -2.8318
  188SAPI   C2321621   6.481   0.257   7.119  1.1290 -0.0101  0.3986
  188SAPI   H3R21622   6.373   0.244   7.093  0.9169  1.3365  0.5715
  188SAPI   H3S21623   6.493   0.356   7.167 -0.2087 -0.8933  2.5945
  188SAPI   C2421624   6.551   0.145   7.209  1.2601 -0.1984 -0.3477
  188SAPI   H4R21625   6.661   0.155   7.217  1.4234 -1.6478 -0.5441
  188SAPI   H4S21626   6.527   0.045   7.165  0.5290  0.0278 -0.4611
  188SAPI   C2521627   6.499   0.139   7.351  0.2600 -0.2949  0.4196
  188SAPI   H5R21628   6.403   0.189   7.372  0.7373  1.0020 -0.3909
  188SAPI   C2621629   6.564   0.094   7.460  0.1903  0.2373 -0.5918
  188SAPI   H6R21630   6.515   0.102   7.558 -2.8345 -0.0307 -2.0212
  188SAPI   C2721631   6.702   0.039   7.468  0.4978  0.1482  1.1488
  188SAPI   H7R21632   6.762   0.058   7.376  2.0129  0.3136  2.1572
  188SAPI   H7S21633   6.700  -0.072   7.466 -0.4720  0.1847 -1.7640
  188SAPI   C2821634   6.780   0.090   7.594  0.2022 -0.1597 -0.2783
  188SAPI   H8R21635   6.845   0.177   7.575 -0.2677  0.4536  0.8525
  188SAPI   C2921636   6.754   0.050   7.720 -0.1969  0.4527 -0.1627
  188SAPI   H9R21637   6.821   0.080   7.802  1.3229 -1.0270 -0.8337
  188SAPI  C21021638   6.662  -0.068   7.760 -0.1504 -0.2077  0.2162
  188SAPI  H10R21639   6.719  -0.142   7.820  0.3608 -0.8303 -1.0407
  188SAPI  H10S21640   6.641  -0.121   7.665  0.7064 -0.2743  0.0546
  188SAPI  C21121641   6.533  -0.046   7.833  0.5309  0.3251  0.6695
  188SAPI  H11R21642   6.460  -0.006   7.761 -0.1176 -1.4902  0.2976
  188SAPI  C21221643   6.492  -0.088   7.959 -0.0322 -0.4386 -0.1663
  188SAPI  H12R21644   6.391  -0.058   7.991  0.8403  1.9902  0.4684
  188SAPI  C21321645   6.582  -0.148   8.063  0.7842  0.6060 -0.4221
  188SAPI  H13R21646   6.649  -0.228   8.025 -1.1162 -1.1918 -0.0435
  188SAPI  H13S21647   6.515  -0.196   8.138  1.3215 -0.4462 -0.6059
  188SAPI  C21421648   6.663  -0.039   8.132  0.0211  0.2732 -0.0693
  188SAPI  H14R21649   6.703   0.036   8.062  0.1638 -0.7889 -1.1400
  188SAPI  C21521650   6.698  -0.032   8.264 -0.3162 -0.0490  0.3323
  188SAPI  H15R21651   6.767   0.052   8.277  0.6941 -0.9094  0.5588
  188SAPI  C21621652   6.660  -0.135   8.371 -0.2142 -0.3237  0.0713
  188SAPI  H16R21653   6.703  -0.235   8.347  3.3316  0.8252  1.3387
  188SAPI  H16S21654   6.551  -0.151   8.377 -0.3127  0.4081  0.3208
  188SAPI  C21721655   6.711  -0.084   8.514  0.1420 -0.2845 -0.2651
  188SAPI  H17R21656   6.821  -0.086   8.527  0.3764  0.2715 -2.0913
  188SAPI  H17S21657   6.682  -0.156   8.594 -1.7541 -0.7195 -1.3213
  188SAPI  C21821658   6.642   0.052   8.549  0.8969  0.1523  0.0934
  188SAPI  H18R21659   6.538   0.059   8.512  0.1824 -0.7407  1.8640
  188SAPI  H18S21660   6.695   0.126   8.485 -1.0545  1.5223  0.0430
  188SAPI  C21921661   6.655   0.111   8.693 -0.8065 -0.0269 -0.0432
  188SAPI  H19R21662   6.598   0.207   8.692 -2.8223 -1.1894 -2.7376
  188SAPI  H19S21663   6.765   0.124   8.699 -0.9807  1.4395  0.2315
  188SAPI  C22021664   6.597   0.036   8.808  0.0063 -0.0942 -0.2301
  188SAPI  H20R21665   6.593  -0.074   8.791  1.2292 -0.5156  2.0507
  188SAPI  H20S21666   6.487   0.055   8.808  0.2242  1.5484 -3.4424
  188SAPI  H20T21667   6.632   0.058   8.911  0.3283 -0.6413 -0.2224
  188SAPI   C3321668   6.548  -0.255   7.094  0.7554  0.3800  0.0136
  188SAPI   H3X21669   6.465  -0.192   7.058 -0.7485 -0.6258  1.6265
  188SAPI   H3Y21670   6.625  -0.185   7.134  0.4572  0.8905 -0.3017
  188SAPI   C3421671   6.487  -0.342   7.206 -0.1236  0.3254 -0.2894
  188SAPI   H4X21672   6.566  -0.385   7.272 -1.5942 -0.0631  1.2575
  188SAPI   H4Y21673   6.419  -0.415   7.159 -2.5885  1.4359  1.4483
  188SAPI   C3521674   6.395  -0.260   7.291 -0.5863  0.1803 -0.8201
  188SAPI   H5X21675   6.303  -0.239   7.232 -1.0913  0.6407  0.1344
  188SAPI   H5Y21676   6.432  -0.169   7.343 -1.8285  0.4249 -0.3355
  188SAPI   C3621677   6.340  -0.344   7.411  0.7013 -0.4284 -0.1009
  188SAPI   H6X21678   6.436  -0.386   7.448  1.7401  1.6343 -0.3591
  188SAPI   H6Y21679   6.277  -0.427   7.372 -0.1213  0.3127 -0.3581
  188SAPI   C3721680   6.253  -0.256   7.516  0.3733  0.2977  0.6587
  188SAPI   H7X21681   6.166  -0.226   7.454  1.9026  1.9481 -0.7336
  188SAPI   H7Y21682   6.312  -0.171   7.555 -0.8003  1.7483 -0.6636
  188SAPI   C3821683   6.205  -0.333   7.639  0.4840  0.3806  0.1808
  188SAPI   H8X21684   6.288  -0.338   7.713  1.1175  4.1988 -0.1692
  188SAPI   H8Y21685   6.180  -0.434   7.602 -1.5145  0.7124  0.5684
  188SAPI   C3921686   6.073  -0.276   7.691  0.5215  0.3725 -0.3946
  188SAPI   H9X21687   6.001  -0.272   7.606  1.5491 -0.7764 -1.3334
  188SAPI   H9Y21688   6.072  -0.169   7.724  1.9668  0.8386 -1.8018
  188SAPI  C31021689   6.024  -0.353   7.810  0.2516 -0.1950  0.7400
  188SAPI  H10X21690   6.056  -0.457   7.785 -1.7378 -0.1153 -2.4654
  188SAPI  H10Y21691   5.914  -0.361   7.820 -0.0313 -0.0239 -1.8394
  188SAPI  C31121692   6.081  -0.315   7.949  0.3135 -0.1003 -0.7754
  188SAPI  H11X21693   6.084  -0.204   7.960 -4.3069  0.1323 -0.9370
  188SAPI  H11Y21694   6.188  -0.347   7.946  0.0147 -1.0029 -3.5686
  188SAPI  C31221695   6.011  -0.381   8.060 -0.0346 -0.5015  0.6685
  188SAPI  H12X21696   6.016  -0.491   8.042  0.5246 -0.0950 -1.8926
  188SAPI  H12Y21697   5.905  -0.352   8.073  0.3629  2.3119 -1.7378
  188SAPI  C31321698   6.065  -0.356   8.203 -0.1718 -0.1096  0.5086
  188SAPI  H13X21699   5.979  -0.380   8.268 -1.5706  0.0095 -1.2730
  188SAPI  H13Y21700   6.085  -0.248   8.214  2.9051 -0.5632 -0.1130
  188SAPI  C31421701   6.184  -0.444   8.230  0.0911  0.0758  0.5696
  188SAPI  H14X21702   6.271  -0.412   8.169 -0.6087  0.9245  0.0068
  188SAPI  H14Y21703   6.164  -0.545   8.188  0.2940 -0.2362  1.2052
  188SAPI  C31521704   6.226  -0.442   8.375  0.1057  0.7668 -0.2287
  188SAPI  H15X21705   6.273  -0.539   8.402  0.5669  1.1028  0.1897
  188SAPI  H15Y21706   6.140  -0.427   8.443  0.5894  0.1531  0.5194
  188SAPI  C31621707   6.328  -0.329   8.402  0.6262 -0.0464  0.5979
  188SAPI  H16X21708   6.406  -0.330   8.323 -1.0354  0.6113 -1.0933
  188SAPI  H16Y21709   6.388  -0.336   8.496  0.7503  0.6905  0.5751
  188SAPI  C31721710   6.274  -0.184   8.407  0.0689 -0.3614  0.9490
  188SAPI  H17X21711   6.244  -0.154   8.304  1.9626  0.9624  0.7632
  188SAPI  H17Y21712   6.360  -0.125   8.444  0.3798  0.0114 -0.3400
  188SAPI  C31821713   6.166  -0.175   8.517  0.0558 -0.1276  0.0607
  188SAPI  H18X21714   6.118  -0.075   8.519  2.0708  0.8498  0.8932
  188SAPI  H18Y21715   6.212  -0.198   8.615  0.8237  3.5425  0.6232
  188SAPI  H18Z21716   6.088  -0.249   8.489  1.2432 -0.9541 -1.1676
  189POPC     N21717   6.236   1.328  11.091 -0.8666  0.4208  0.4680
  189POPC   C1221718   6.297   1.376  10.955 -0.3450 -0.1864  0.1527
  189POPC  H12A21719   6.273   1.295  10.888  0.3816 -0.5537  0.3368
  189POPC  H12B21720   6.405   1.373  10.958 -0.2795 -0.5880 -2.1592
  189POPC   C1321721   6.091   1.325  11.094  0.0419 -0.2022 -0.2699
  189POPC  H13A21722   6.060   1.268  11.180  3.0229  0.7377  1.5034
  189POPC  H13B21723   6.044   1.420  11.115 -1.1077 -0.6226 -0.9205
  189POPC  H13C21724   6.047   1.286  11.003 -0.2287 -1.3059  0.3354
  189POPC   C1421725   6.274   1.183  11.108 -0.4668 -0.7694 -0.2698
  189POPC  H14A21726   6.380   1.165  11.098 -0.4985 -1.8476  1.1124
  189POPC  H14B21727   6.238   1.157  11.207  2.6170  2.0451  1.7162
  189POPC  H14C21728   6.222   1.127  11.032 -0.2374  1.7193 -2.3605
  189POPC   C1521729   6.300   1.393  11.206  0.2428  0.0804  0.3297
  189POPC  H15A21730   6.277   1.497  11.217  0.9010  0.2595  0.0349
  189POPC  H15B21731   6.407   1.382  11.197  0.2382  0.2224  0.1011
  189POPC  H15C21732   6.270   1.339  11.295  0.1866  1.0415  0.8992
  189POPC   C1121733   6.240   1.507  10.898 -1.0884  0.7469  0.3791
  189POPC  H11A21734   6.131   1.499  10.881 -0.9008 -0.8050 -0.2009
  189POPC  H11B21735   6.269   1.527  10.792 -1.8605 -0.1022  0.0050
  189POPC     P21736   6.420   1.690  10.960  0.3869 -0.6076  0.1809
  189POPC   O1321737   6.516   1.588  10.998  0.0306  0.3554 -0.7147
  189POPC   O1421738   6.411   1.817  11.040  0.4071 -0.5294  0.1902
  189POPC   O1221739   6.270   1.625  10.970  0.4074 -0.3103 -0.2298
  189POPC   O1121740   6.450   1.726  10.812  0.0496  0.3724  0.3056
  189POPC    C121741   6.568   1.692  10.740 -0.0768 -0.7158 -0.3790
  189POPC    HA21742   6.622   1.615  10.800  0.7201  0.2893  0.2142
  189POPC    HB21743   6.635   1.779  10.723 -2.0689  0.9614  0.0634
  189POPC    C221744   6.550   1.622  10.600  0.1694  1.0671  0.4258
  189POPC    HS21745   6.495   1.691  10.533 -0.2386  4.7730  4.3090
  189POPC   O2121746   6.482   1.494  10.620 -0.4877  0.1463  0.8411
  189POPC   C2121747   6.393   1.461  10.529 -0.8685  0.1914  0.5190
  189POPC   O2221748   6.371   1.518  10.426 -0.2812 -0.1171 -0.0146
  189POPC   C2221749   6.321   1.334  10.573 -0.0793 -0.0447  0.3543
  189POPC   H2R21750   6.254   1.358  10.659  0.2863 -0.8222  0.8611
  189POPC   H2S21751   6.381   1.245  10.601 -1.4984 -0.7267  1.2936
  189POPC    C321752   6.686   1.592  10.534  0.4255 -0.0661  0.3673
  189POPC    HX21753   6.737   1.516  10.597 -1.2735 -0.1520  1.6855
  189POPC    HY21754   6.736   1.691  10.528 -0.0705  0.2764  1.7153
  189POPC   O3121755   6.665   1.532  10.410  0.0389  0.4073  0.6045
  189POPC   C3121756   6.743   1.439  10.357  0.4868  0.3639  0.2558
  189POPC   O3221757   6.837   1.386  10.413  0.1245 -0.4660 -0.0605
  189POPC   C3221758   6.686   1.385  10.226  0.1631  0.6160  0.3919
  189POPC   H2X21759   6.737   1.429  10.138 -0.6322  1.5237  0.3765
  189POPC   H2Y21760   6.577   1.408  10.225 -0.2293 -1.1622  0.3761
  189POPC   C2321761   6.232   1.281  10.456  0.6570 -0.4384  0.5088
  189POPC   H3R21762   6.295   1.238  10.376  1.1545  0.6765  0.2932
  189POPC   H3S21763   6.168   1.356  10.404  2.9795  0.0260 -1.7718
  189POPC   C2421764   6.133   1.166  10.494 -0.2556  0.0235 -0.0611
  189POPC   H4R21765   6.059   1.205  10.567 -0.5090 -1.7398  0.6530
  189POPC   H4S21766   6.191   1.091  10.552  2.1458  2.1429  0.3790
  189POPC   C2521767   6.057   1.096  10.381 -1.2367 -0.3027 -0.7133
  189POPC   H5R21768   6.030   1.170  10.303  2.4110 -0.3825 -2.1591
  189POPC   H5S21769   5.965   1.060  10.433  0.6892 -1.5989  1.9199
  189POPC   C2621770   6.147   0.989  10.313  0.0462  0.2105 -1.1759
  189POPC   H6R21771   6.134   0.892  10.367 -1.6038  0.2985 -1.3846
  189POPC   H6S21772   6.244   1.020  10.358 -0.9912 -0.3395  1.5647
  189POPC   C2721773   6.159   0.994  10.164 -0.4308 -0.1583 -0.1570
  189POPC   H7R21774   6.245   0.946  10.113  0.6683  1.3128  0.2577
  189POPC   H7S21775   6.171   1.103  10.145 -2.0229  0.2035  0.8324
  189POPC   C2821776   6.024   0.951  10.087  0.0032 -0.8153 -0.6600
  189POPC   H8R21777   6.028   0.992   9.984 -0.7496 -0.9720 -0.7541
  189POPC   H8S21778   5.957   1.017  10.146 -0.2120 -1.9625  0.4202
  189POPC   C2921779   5.984   0.807  10.099  0.5787  0.2814 -0.5656
  189POPC   H9121780   5.946   0.776  10.197  1.4952  2.7535  0.6009
  189POPC  C21021781   5.995   0.702  10.017 -0.1384 -0.1183 -0.4636
  189POPC  H10121782   5.947   0.608  10.049 -1.8337  0.6227 -0.7866
  189POPC  C21121783   6.071   0.699   9.887 -0.2198  0.3050 -0.2773
  189POPC  H11R21784   6.177   0.673   9.909  0.1000  1.2197 -0.7141
  189POPC  H11S21785   6.071   0.796   9.834 -0.4277  0.8465  0.7060
  189POPC  C21221786   6.014   0.598   9.783  0.1069 -0.1484  0.0107
  189POPC  H12R21787   5.909   0.624   9.758 -0.3133 -1.3749  0.4221
  189POPC  H12S21788   6.008   0.496   9.828  1.9523  0.0135  0.6649
  189POPC  C21321789   6.099   0.569   9.659  0.8088  0.4919  0.1362
  189POPC  H13R21790   6.193   0.516   9.682 -0.0789 -1.4935 -0.6946
  189POPC  H13S21791   6.129   0.660   9.603 -1.8322  0.9587 -0.6003
  189POPC  C21421792   6.031   0.468   9.554  0.0028 -0.0554 -0.0645
  189POPC  H14R21793   5.951   0.529   9.508  0.0434  1.0770  1.3167
  189POPC  H14S21794   5.995   0.377   9.607 -1.1930 -0.5168 -1.6540
  189POPC  C21521795   6.135   0.427   9.449  0.0231  0.3241  0.5129
  189POPC  H15R21796   6.204   0.358   9.503 -0.6231 -1.4268 -0.8645
  189POPC  H15S21797   6.191   0.517   9.414  1.1315 -1.7791 -3.3150
  189POPC  C21621798   6.066   0.356   9.337  0.2885  0.3637  0.4403
  189POPC  H16R21799   5.982   0.427   9.318  0.6281  0.7867  0.4999
  189POPC  H16S21800   6.021   0.262   9.375  0.8478  0.5780  1.6483
  189POPC  C21721801   6.148   0.336   9.217  0.1725 -0.1422 -0.9796
  189POPC  H17R21802   6.238   0.270   9.227 -1.3631 -2.0872  0.5106
  189POPC  H17S21803   6.182   0.436   9.183 -2.0019  0.2430 -2.1212
  189POPC  C21821804   6.074   0.298   9.088  0.3699 -0.2892 -0.5013
  189POPC  H18R21805   6.142   0.280   9.002  3.0903 -4.2721  2.3182
  189POPC  H18S21806   6.008   0.380   9.053  0.7165  0.4604  0.5646
  189POPC  H18T21807   6.000   0.219   9.108 -0.9499  0.1445 -3.3881
  189POPC   C3321808   6.688   1.226  10.203 -0.2217  0.8491  0.7806
  189POPC   H3X21809   6.695   1.185  10.306  1.0009 -0.4549  0.2003
  189POPC   H3Y21810   6.787   1.187  10.171 -0.3740 -0.5038  1.8980
  189POPC   C3421811   6.571   1.171  10.130  0.4470 -0.3285 -0.0542
  189POPC   H4X21812   6.488   1.244  10.140  0.3541 -0.7573  2.4925
  189POPC   H4Y21813   6.546   1.073  10.175  1.1262 -0.2589  0.4651
  189POPC   C3521814   6.611   1.149   9.985  0.3788 -0.0973  0.0889
  189POPC   H5X21815   6.697   1.079   9.979  0.6114  0.1184  0.9527
  189POPC   H5Y21816   6.628   1.250   9.941  1.6060  0.7819  2.5287
  189POPC   C3621817   6.493   1.078   9.911 -0.3003  0.4765  0.2428
  189POPC   H6X21818   6.409   1.141   9.946  0.4230  1.6242 -0.0500
  189POPC   H6Y21819   6.487   0.972   9.946  3.3617 -0.8773 -2.8121
  189POPC   C3721820   6.513   1.074   9.751  0.3150  0.1081 -0.2536
  189POPC   H7X21821   6.618   1.040   9.739 -0.0026 -1.6264  1.7013
  189POPC   H7Y21822   6.508   1.177   9.709  1.3713 -0.4729 -1.8386
  189POPC   C3821823   6.408   0.994   9.680  0.0623  0.2297 -0.0786
  189POPC   H8X21824   6.316   1.053   9.663  0.2660  0.3208 -0.8692
  189POPC   H8Y21825   6.379   0.905   9.739  0.5306  0.7702  0.9853
  189POPC   C3921826   6.455   0.944   9.541  0.3742  0.6505 -0.3839
  189POPC   H9X21827   6.525   0.861   9.566  0.4940  0.6418 -0.7514
  189POPC   H9Y21828   6.503   1.016   9.472  0.4109  0.0888 -0.9561
  189POPC  C31021829   6.340   0.877   9.465 -0.6098 -0.3358 -0.1185
  189POPC  H10X21830   6.253   0.945   9.472  0.9107  1.7080 -0.4611
  189POPC  H10Y21831   6.334   0.774   9.506  0.9407 -1.2299 -2.0169
  189POPC  C31121832   6.393   0.859   9.324 -0.4103  0.3266  0.2306
  189POPC  H11X21833   6.491   0.807   9.317 -1.5291 -1.7922 -0.0222
  189POPC  H11Y21834   6.392   0.961   9.279 -1.7822 -0.3913 -1.3652
  189POPC  C31221835   6.291   0.777   9.244 -0.2965  0.0660 -1.0423
  189POPC  H12X21836   6.186   0.810   9.261  0.5775  1.7241  1.5044
  189POPC  H12Y21837   6.281   0.672   9.279 -0.2408  0.5818  0.5785
  189POPC  C31321838   6.328   0.763   9.096 -0.8172  0.2284  0.4030
  189POPC  H13X21839   6.431   0.725   9.079  0.0517  2.4455  0.6087
  189POPC  H13Y21840   6.320   0.861   9.044  1.0151  0.0181 -0.3081
  189POPC  C31421841   6.232   0.678   9.013 -0.2796  0.0521  0.0074
  189POPC  H14X21842   6.130   0.696   9.055  0.1783  0.9974  0.7294
  189POPC  H14Y21843   6.260   0.573   9.038  0.4702  0.2915  0.1682
  189POPC  C31521844   6.240   0.706   8.869 -0.8113  0.6136  0.1157
  189POPC  H15X21845   6.343   0.695   8.828 -0.7391  1.8755 -0.0797
  189POPC  H15Y21846   6.205   0.810   8.852 -0.4111  0.9470  1.2947
  189POPC  C31621847   6.153   0.599   8.799 -0.3747 -0.1496 -0.1671
  189POPC  H16X21848   6.200   0.499   8.791 -0.9709 -0.6658  2.1548
  189POPC  H16Y21849   6.125   0.633   8.697  0.7410 -1.3279 -0.8744
  189POPC  H16Z21850   6.053   0.590   8.847  0.1652 -0.8999  0.8347
  190POPC     N21851   1.578   4.371  11.082  0.2532 -0.3176 -0.1705
  190POPC   C1221852   1.699   4.358  10.988 -0.3683 -0.5965 -0.4420
  190POPC  H12A21853   1.766   4.437  11.017 -0.0419 -1.1351  0.3202
  190POPC  H12B21854   1.668   4.379  10.887 -2.2406 -0.0973  0.2011
  190POPC   C1321855   1.614   4.371  11.225  0.4106  0.8457  0.3417
  190POPC  H13A21856   1.528   4.374  11.291  0.9668  1.1539  1.0598
  190POPC  H13B21857   1.659   4.275  11.246  0.3863  1.2930  2.5449
  190POPC  H13C21858   1.682   4.446  11.260  1.5289  0.2762 -0.5694
  190POPC   C1421859   1.513   4.512  11.069  0.5765 -0.1456 -0.5763
  190POPC  H14A21860   1.474   4.517  10.968  0.6277 -0.7281 -0.6271
  190POPC  H14B21861   1.426   4.519  11.132  1.0174  2.5179 -0.2341
  190POPC  H14C21862   1.591   4.585  11.081  1.1565 -0.8525  0.0343
  190POPC   C1521863   1.477   4.266  11.059 -0.1209  0.3684 -0.2040
  190POPC  H15A21864   1.391   4.265  11.124  2.0531 -0.1729  2.7477
  190POPC  H15B21865   1.526   4.172  11.082 -0.1146 -0.1017 -2.0195
  190POPC  H15C21866   1.453   4.256  10.954  0.7897 -0.4211 -0.3474
  190POPC   C1121867   1.770   4.221  10.987  0.0112 -0.5570  0.4159
  190POPC  H11A21868   1.862   4.240  10.928 -0.1539  0.7279  0.5709
  190POPC  H11B21869   1.699   4.165  10.922 -0.5730 -1.1331  1.5343
  190POPC     P21870   1.766   4.015  11.155  0.2424 -0.2533 -0.2704
  190POPC   O1321871   1.618   4.005  11.139  0.1481 -0.1774 -0.3146
  190POPC   O1421872   1.816   3.987  11.294 -0.9656  0.3924  0.3864
  190POPC   O1221873   1.804   4.161  11.109  0.0917 -0.0693 -0.6414
  190POPC   O1121874   1.832   3.934  11.039  0.6966  0.2844 -0.3074
  190POPC    C121875   1.974   3.938  11.012  0.0237  0.0362 -0.0077
  190POPC    HA21876   2.011   3.833  11.011  1.7547  0.6173  0.7820
  190POPC    HB21877   2.034   3.996  11.085  0.7581 -1.2653  0.4441
  190POPC    C221878   2.014   3.979  10.869  0.3167 -0.0710  0.4992
  190POPC    HS21879   2.010   4.090  10.869 -2.7310 -0.0707  4.4812
  190POPC   O2121880   1.920   3.917  10.789 -0.1412  0.2856 -0.2790
  190POPC   C2121881   1.867   4.001  10.690 -0.0724  0.0052  0.2108
  190POPC   O2221882   1.901   4.117  10.670  0.7302  0.2210  0.2509
  190POPC   C2221883   1.764   3.931  10.604  0.1411 -0.3329  0.0700
  190POPC   H2R21884   1.698   3.871  10.671 -1.6765  0.5632 -0.8691
  190POPC   H2S21885   1.829   3.874  10.535 -0.0475  0.2779 -0.6115
  190POPC    C321886   2.155   3.917  10.829  0.6479  0.9510 -0.9000
  190POPC    HX21887   2.146   3.807  10.847 -1.5913  1.2428 -0.0197
  190POPC    HY21888   2.240   3.941  10.896 -1.1030  0.2498  1.6474
  190POPC   O3121889   2.189   3.940  10.688  0.7307 -0.9013 -0.2745
  190POPC   C3121890   2.159   3.847  10.603 -0.7552 -0.0521  0.7512
  190POPC   O3221891   2.107   3.741  10.626 -0.4433 -0.5271  0.3225
  190POPC   C3221892   2.206   3.887  10.463 -0.0103  0.3532  0.4100
  190POPC   H2X21893   2.310   3.848  10.456 -0.0799  0.1845  0.3260
  190POPC   H2Y21894   2.221   3.997  10.450  2.2547  0.0503  0.2918
  190POPC   C2321895   1.693   4.031  10.506  0.1220 -0.0207 -0.0532
  190POPC   H3R21896   1.769   4.082  10.444  0.2002 -0.0789 -0.0056
  190POPC   H3S21897   1.644   4.115  10.560 -0.7275 -0.2775 -0.4250
  190POPC   C2421898   1.583   3.965  10.422 -0.4047 -0.2407 -0.6106
  190POPC   H4R21899   1.508   3.922  10.492 -0.4617  0.7316 -0.0487
  190POPC   H4S21900   1.609   3.873  10.366 -0.7385 -1.7139  1.5944
  190POPC   C2521901   1.520   4.065  10.320  0.0375  0.0304 -0.2858
  190POPC   H5R21902   1.600   4.101  10.251  0.6557  0.6543  0.7483
  190POPC   H5S21903   1.461   4.140  10.376  1.3609 -0.0657  1.2718
  190POPC   C2621904   1.432   3.995  10.218  0.3430  0.6168  0.2650
  190POPC   H6R21905   1.364   3.924  10.270  1.6677  2.4173  4.7168
  190POPC   H6S21906   1.505   3.941  10.155 -0.8913 -2.3825  1.3294
  190POPC   C2721907   1.359   4.101  10.132  0.2432  0.4673 -0.0400
  190POPC   H7R21908   1.431   4.183  10.109  2.2529 -1.2089  0.2307
  190POPC   H7S21909   1.264   4.128  10.184 -1.1144 -2.7905 -0.7230
  190POPC   C2821910   1.320   4.042  10.003 -0.0888  0.1443 -0.4375
  190POPC   H8R21911   1.262   3.951  10.032  0.8403  0.4630  2.6239
  190POPC   H8S21912   1.406   4.019   9.937 -1.3661 -2.4916 -1.2959
  190POPC   C2921913   1.233   4.143   9.932  0.6924 -0.6611 -0.7764
  190POPC   H9121914   1.139   4.161   9.986  0.7625 -0.5416 -0.6934
  190POPC  C21021915   1.264   4.226   9.838 -0.2546  0.2122  0.1392
  190POPC  H10121916   1.180   4.287   9.801  0.6851  0.5835 -1.4669
  190POPC  C21121917   1.398   4.233   9.767 -0.2041 -0.2532 -0.6561
  190POPC  H11R21918   1.472   4.174   9.825 -0.3695  1.9835  1.9356
  190POPC  H11S21919   1.438   4.336   9.779 -1.8813  0.4073 -0.5514
  190POPC  C21221920   1.408   4.195   9.617 -0.0369 -0.7052  0.2458
  190POPC  H12R21921   1.395   4.085   9.606 -2.2436 -0.5606  1.1119
  190POPC  H12S21922   1.510   4.226   9.587 -0.1711 -0.4292  0.0772
  190POPC  C21321923   1.304   4.263   9.526 -0.3897 -0.0320  0.5160
  190POPC  H13R21924   1.323   4.368   9.558  0.6357 -0.2814  0.7523
  190POPC  H13S21925   1.203   4.230   9.560 -0.1214 -1.3478  0.0757
  190POPC  C21421926   1.333   4.239   9.375 -0.0082 -0.4392 -0.3895
  190POPC  H14R21927   1.440   4.268   9.368  0.1717 -1.0474 -0.1079
  190POPC  H14S21928   1.266   4.303   9.313 -1.8365 -1.5958  0.3330
  190POPC  C21521929   1.315   4.094   9.318 -0.3073 -0.5900 -0.0892
  190POPC  H15R21930   1.219   4.040   9.325 -1.0790  0.6694 -0.7595
  190POPC  H15S21931   1.384   4.032   9.379 -1.2679 -1.6009 -0.0273
  190POPC  C21621932   1.341   4.092   9.167  0.4145 -0.0175 -0.1768
  190POPC  H16R21933   1.356   3.988   9.132 -1.1423  0.1177 -1.3054
  190POPC  H16S21934   1.424   4.160   9.140  0.2778  0.8587  1.5673
  190POPC  C21721935   1.221   4.140   9.084  0.6978 -0.5284 -0.1945
  190POPC  H17R21936   1.209   4.249   9.103 -3.7225 -1.1296  0.9656
  190POPC  H17S21937   1.133   4.097   9.136 -0.6538  1.7219 -0.5826
  190POPC  C21821938   1.215   4.110   8.939  0.5709 -0.1453 -0.1476
  190POPC  H18R21939   1.308   4.121   8.879  2.0176 -1.0432  1.8454
  190POPC  H18S21940   1.137   4.176   8.895  0.8992  0.1496 -0.2812
  190POPC  H18T21941   1.187   4.002   8.932  1.2742 -0.3724  0.4189
  190POPC   C3321942   2.123   3.828  10.346 -0.2665 -0.6913  0.3813
  190POPC   H3X21943   2.020   3.869  10.347 -0.0098  0.0190 -1.0342
  190POPC   H3Y21944   2.117   3.717  10.353 -1.5643 -0.6033  0.8062
  190POPC   C3421945   2.191   3.854  10.219 -0.9920 -0.3736 -0.2725
  190POPC   H4X21946   2.271   3.778  10.209 -0.6557 -0.1020  0.3275
  190POPC   H4Y21947   2.229   3.958  10.208 -3.1810  0.8305  2.8014
  190POPC   C3521948   2.111   3.819  10.097 -0.3158 -0.1669  0.7911
  190POPC   H5X21949   2.027   3.891  10.100 -0.6249 -0.5148  0.5644
  190POPC   H5Y21950   2.060   3.720  10.093 -2.6676  1.0695 -0.7433
  190POPC   C3621951   2.193   3.822   9.972  0.1970  0.8462  0.2000
  190POPC   H6X21952   2.271   3.744   9.981 -1.5466 -0.8325  1.1036
  190POPC   H6Y21953   2.230   3.927   9.972 -3.1939  2.1231 -0.6422
  190POPC   C3721954   2.119   3.792   9.848 -0.4475  0.1611 -0.2153
  190POPC   H7X21955   2.039   3.865   9.825 -3.2487 -2.3117  1.4048
  190POPC   H7Y21956   2.061   3.698   9.842 -1.0492  0.4987  0.2843
  190POPC   C3821957   2.209   3.790   9.727  0.0514  0.6627  1.1966
  190POPC   H8X21958   2.282   3.707   9.738 -0.2275  0.1985 -0.3374
  190POPC   H8Y21959   2.264   3.886   9.713  0.2950  0.0260 -2.7589
  190POPC   C3921960   2.133   3.766   9.588  0.5320 -0.2252  0.1252
  190POPC   H9X21961   2.071   3.855   9.564 -2.0068 -1.9795  0.0436
  190POPC   H9Y21962   2.067   3.678   9.600  2.1678 -1.3885  0.8696
  190POPC  C31021963   2.218   3.732   9.464 -0.4118  0.1334 -0.9288
  190POPC  H10X21964   2.169   3.666   9.390 -1.3184  0.8713 -0.9943
  190POPC  H10Y21965   2.306   3.684   9.512  0.8065  2.5075 -0.7012
  190POPC  C31121966   2.282   3.856   9.396  0.3005  0.8495 -0.1091
  190POPC  H11X21967   2.384   3.862   9.439 -1.1901  3.7339  3.2295
  190POPC  H11Y21968   2.226   3.947   9.424 -0.4947  1.0778 -2.3365
  190POPC  C31221969   2.302   3.827   9.241  0.7673 -0.2143  0.0363
  190POPC  H12X21970   2.202   3.792   9.209  0.7739 -0.5344  0.3688
  190POPC  H12Y21971   2.388   3.757   9.236  0.3748 -0.7033  0.1535
  190POPC  C31321972   2.320   3.957   9.166  0.1680 -0.4948 -0.0599
  190POPC  H13X21973   2.404   4.018   9.206 -0.6169 -1.5724  3.4237
  190POPC  H13Y21974   2.235   4.021   9.199  0.5784 -0.1201  0.2938
  190POPC  C31421975   2.330   3.935   9.009  0.0745 -0.5221  0.1131
  190POPC  H14X21976   2.250   3.863   8.980  0.5835 -0.4674 -1.4655
  190POPC  H14Y21977   2.418   3.869   8.992 -0.7660 -1.9574  1.1284
  190POPC  C31521978   2.354   4.055   8.927  0.1377  0.1096 -0.6308
  190POPC  H15X21979   2.380   4.030   8.822  0.3942 -2.3396 -0.0191
  190POPC  H15Y21980   2.447   4.103   8.965  1.2536  0.1653 -3.3226
  190POPC  C31621981   2.233   4.160   8.933 -0.5135 -0.0500  0.1691
  190POPC  H16X21982   2.233   4.240   8.855 -1.5719 -0.1720  0.0271
  190POPC  H16Y21983   2.247   4.213   9.030 -3.3233 -1.6116  1.4912
  190POPC  H16Z21984   2.131   4.116   8.928  0.0304 -1.6551  2.3739
  191POPC     N21985   1.336   5.525   6.074 -0.7955  0.3716  0.1690
  191POPC   C1221986   1.348   5.664   6.125  0.6225 -0.3146 -0.4191
  191POPC  H12A21987   1.250   5.710   6.120  0.2712 -1.0059  0.0964
  191POPC  H12B21988   1.420   5.709   6.057 -2.0594  2.2018 -1.7411
  191POPC   C1321989   1.245   5.445   6.154 -0.4723  0.1526 -0.6797
  191POPC  H13A21990   1.228   5.348   6.109  2.9894 -0.2957 -1.1448
  191POPC  H13B21991   1.271   5.419   6.256 -0.3586 -0.5892 -0.8946
  191POPC  H13C21992   1.148   5.491   6.139 -1.8348 -2.5460 -0.4477
  191POPC   C1421993   1.287   5.538   5.935  0.0889  0.6676  0.6553
  191POPC  H14A21994   1.346   5.589   5.861  2.1494  2.2068  3.2797
  191POPC  H14B21995   1.273   5.436   5.902 -0.0879  1.3740 -1.4725
  191POPC  H14C21996   1.180   5.558   5.933  0.5730  3.4248  0.6825
  191POPC   C1521997   1.469   5.457   6.075  0.2934 -0.7696  0.4360
  191POPC  H15A21998   1.541   5.509   6.014 -0.4138  0.7343  0.8767
  191POPC  H15B21999   1.473   5.352   6.048  2.5500 -0.3956 -0.7614
  191POPC  H15C22000   1.511   5.467   6.174 -1.4699  0.2722  1.0987
  191POPC   C1122001   1.418   5.684   6.260 -0.1125  0.5796 -0.4374
  191POPC  H11A22002   1.373   5.616   6.335  0.1789 -0.5751 -1.3027
  191POPC  H11B22003   1.383   5.785   6.292 -0.6583  0.4841 -0.7179
  191POPC     P22004   1.640   5.705   6.391  0.0458  0.2344 -0.3462
  191POPC   O1322005   1.625   5.851   6.416 -0.5201  0.2215  0.2549
  191POPC   O1422006   1.777   5.648   6.362  0.3422  0.0893 -0.7806
  191POPC   O1222007   1.560   5.674   6.254 -0.0155 -0.2808  0.0335
  191POPC   O1122008   1.549   5.622   6.501 -0.0390 -0.1133  0.6526
  191POPC    C122009   1.604   5.502   6.555  0.0018 -0.7190  0.0537
  191POPC    HA22010   1.674   5.451   6.485  1.3927  1.2773 -0.0421
  191POPC    HB22011   1.524   5.429   6.580  0.6981 -1.3541  0.4566
  191POPC    C222012   1.669   5.510   6.698 -0.7351 -0.4437  0.2064
  191POPC    HS22013   1.600   5.456   6.767 -2.9877  2.0862  0.0282
  191POPC   O2122014   1.702   5.641   6.743  0.0519 -0.1004 -0.0237
  191POPC   C2122015   1.592   5.713   6.778 -0.1596  0.0023  0.5296
  191POPC   O2222016   1.480   5.670   6.805 -0.2901  0.5803  0.4847
  191POPC   C2222017   1.626   5.861   6.792 -0.0265 -0.1284 -0.3965
  191POPC   H2R22018   1.577   5.921   6.712 -1.6330 -1.9590 -0.8100
  191POPC   H2S22019   1.736   5.875   6.788 -0.1238  0.3659 -1.4289
  191POPC    C322020   1.794   5.428   6.707  0.2497  0.8274  0.2529
  191POPC    HX22021   1.871   5.470   6.638  1.5268 -0.2950  0.9673
  191POPC    HY22022   1.766   5.329   6.665  1.8489  1.1670 -1.6997
  191POPC   O3122023   1.840   5.420   6.844 -0.0680  0.0207  0.1488
  191POPC   C3122024   1.883   5.307   6.886  0.1034  0.3524 -0.8492
  191POPC   O3222025   1.893   5.206   6.822  0.1138  0.8375 -0.2156
  191POPC   C3222026   1.909   5.327   7.034  0.2343 -0.0600  0.3648
  191POPC   H2X22027   1.811   5.352   7.079  1.3861  3.2569  1.1738
  191POPC   H2Y22028   1.973   5.417   7.047 -0.9828  1.0848 -1.2624
  191POPC   C2322029   1.567   5.919   6.927  0.5627 -0.2376  0.5860
  191POPC   H3R22030   1.617   5.874   7.016  1.0199  3.2693  2.2016
  191POPC   H3S22031   1.458   5.902   6.935  0.4467 -0.1652 -0.7557
  191POPC   C2422032   1.605   6.068   6.937 -0.2414  0.1065 -0.3335
  191POPC   H4R22033   1.553   6.124   6.857 -0.0160  1.5512  0.5265
  191POPC   H4S22034   1.715   6.085   6.930  0.1566 -2.3355 -0.6564
  191POPC   C2522035   1.566   6.129   7.070  0.6907 -0.1135  0.7708
  191POPC   H5R22036   1.460   6.105   7.093  1.0177 -2.0266  0.3712
  191POPC   H5S22037   1.566   6.240   7.060  0.7186  0.2172  4.1157
  191POPC   C2622038   1.643   6.086   7.195  0.5740  0.2816  0.1728
  191POPC   H6R22039   1.669   6.180   7.248  0.7581 -0.4326  1.3864
  191POPC   H6S22040   1.743   6.044   7.169  1.6473  2.3895  0.7175
  191POPC   C2722041   1.565   5.995   7.295  0.1079  0.0187 -0.4626
  191POPC   H7R22042   1.531   5.905   7.240  0.4689 -1.1986  1.2512
  191POPC   H7S22043   1.474   6.052   7.325  1.4043  2.1310 -0.4643
  191POPC   C2822044   1.640   5.960   7.425  0.0957 -0.5767  0.7456
  191POPC   H8R22045   1.731   5.904   7.395 -1.0507 -1.5991 -0.9396
  191POPC   H8S22046   1.575   5.899   7.493 -2.4469  1.8866  0.5944
  191POPC   C2922047   1.680   6.081   7.508  0.7346  0.2744  0.0752
  191POPC   H9122048   1.647   6.178   7.468  0.3704  0.5659  1.0571
  191POPC  C21022049   1.731   6.081   7.628  1.0934 -0.0305 -0.1642
  191POPC  H10122050   1.741   6.172   7.689 -1.9086  1.7058 -2.1758
  191POPC  C21122051   1.771   5.955   7.701  0.1437  0.2801  0.3069
  191POPC  H11R22052   1.882   5.955   7.715  0.0372 -0.8586  1.2767
  191POPC  H11S22053   1.737   5.866   7.644  2.2290  0.5502 -1.4233
  191POPC  C21222054   1.723   5.958   7.848 -0.2430  0.5633  0.6749
  191POPC  H12R22055   1.751   5.859   7.890 -0.2491  0.4524  0.4158
  191POPC  H12S22056   1.612   5.961   7.847 -0.2247  1.0841 -0.5353
  191POPC  C21322057   1.779   6.060   7.939  0.0639 -0.4367 -0.1902
  191POPC  H13R22058   1.737   6.157   7.906  1.4774 -0.0479 -0.8596
  191POPC  H13S22059   1.887   6.066   7.915 -0.6147  0.5436 -3.2354
  191POPC  C21422060   1.752   6.040   8.086 -0.2305  0.1868 -0.3281
  191POPC  H14R22061   1.643   6.023   8.098 -0.6149  0.3575 -3.2975
  191POPC  H14S22062   1.764   6.135   8.143  0.4619  0.4257 -0.8546
  191POPC  C21522063   1.821   5.942   8.180 -0.3715  0.2146 -0.4420
  191POPC  H15R22064   1.929   5.945   8.153  0.0467  1.1560  1.2977
  191POPC  H15S22065   1.801   5.836   8.151  0.1467  0.2189 -0.8199
  191POPC  C21622066   1.805   5.971   8.324  0.0122  0.1063 -0.0946
  191POPC  H16R22067   1.772   6.076   8.339 -0.3422 -0.1271  0.7598
  191POPC  H16S22068   1.904   5.974   8.375  0.8814 -1.1379 -1.6712
  191POPC  C21722069   1.710   5.873   8.397  0.0110  0.6344  0.7002
  191POPC  H17R22070   1.742   5.771   8.367  1.6715  1.5631 -0.7865
  191POPC  H17S22071   1.613   5.892   8.347 -1.8831  0.5968  4.1730
  191POPC  C21822072   1.689   5.876   8.549 -0.5563  0.2065  0.5233
  191POPC  H18R22073   1.789   5.873   8.598 -0.2603 -0.2845 -0.1135
  191POPC  H18S22074   1.623   5.790   8.573  0.0165 -0.5126 -0.4709
  191POPC  H18T22075   1.641   5.971   8.583  0.7775  1.2712 -0.4854
  191POPC   C3322076   1.993   5.207   7.095 -0.6723 -0.0151 -0.1228
  191POPC   H3X22077   2.091   5.216   7.043 -0.7375  4.9473  0.3009
  191POPC   H3Y22078   1.951   5.108   7.070 -1.5461 -0.3505  2.4731
  191POPC   C3422079   2.005   5.216   7.250 -0.4654 -0.0590 -0.0669
  191POPC   H4X22080   1.904   5.246   7.286  0.8184  1.4835  2.4069
  191POPC   H4Y22081   2.065   5.307   7.273 -0.3012 -0.5301  1.4600
  191POPC   C3522082   2.065   5.091   7.320 -0.8896 -0.0114  0.7108
  191POPC   H5X22083   2.176   5.088   7.320 -0.9158 -1.1382  1.9579
  191POPC   H5Y22084   2.025   4.998   7.274  0.6636  0.1332 -0.9789
  191POPC   C3622085   2.020   5.071   7.462 -0.3490 -0.3503 -0.1115
  191POPC   H6X22086   2.069   4.979   7.498  0.6140  0.0711 -0.3402
  191POPC   H6Y22087   1.911   5.053   7.474 -0.5882  0.4196 -1.1213
  191POPC   C3722088   2.066   5.177   7.559 -0.0477  0.3264  0.2688
  191POPC   H7X22089   1.993   5.257   7.532  1.3551  1.2305 -0.9639
  191POPC   H7Y22090   2.169   5.216   7.540  0.2811  1.4275  3.8681
  191POPC   C3822091   2.064   5.152   7.709  0.0363  0.7975  0.3370
  191POPC   H8X22092   2.137   5.072   7.734 -1.1823  0.2964  2.4136
  191POPC   H8Y22093   1.968   5.108   7.744 -0.2059  0.4131 -0.7884
  191POPC   C3922094   2.117   5.269   7.794 -0.0328 -0.0267  0.1654
  191POPC   H9X22095   2.064   5.362   7.767 -1.6988 -0.7110  1.0222
  191POPC   H9Y22096   2.225   5.284   7.770 -0.2051 -0.9601 -1.2742
  191POPC  C31022097   2.092   5.244   7.950  0.2721 -0.4865  0.3374
  191POPC  H10X22098   2.137   5.147   7.981  0.8880  0.0565  1.1691
  191POPC  H10Y22099   1.981   5.244   7.961  0.0942  0.3979 -1.3356
  191POPC  C31122100   2.162   5.350   8.032 -0.0738 -0.3747  0.6868
  191POPC  H11X22101   2.112   5.446   8.007  2.4195  0.6298 -0.6399
  191POPC  H11Y22102   2.273   5.355   8.023  0.2039 -3.0345  1.8799
  191POPC  C31222103   2.131   5.320   8.180  0.2777 -0.8059 -0.8379
  191POPC  H12X22104   2.187   5.239   8.232  0.6106 -0.1099 -0.1111
  191POPC  H12Y22105   2.021   5.305   8.181  0.2044 -0.3169  1.5426
  191POPC  C31322106   2.172   5.441   8.257  0.0602  0.0157 -0.1620
  191POPC  H13X22107   2.103   5.523   8.228  0.8087  0.3032 -1.1390
  191POPC  H13Y22108   2.275   5.475   8.234  0.3318  0.6584  1.8357
  191POPC  C31422109   2.154   5.426   8.416  0.6673 -0.3721  0.2425
  191POPC  H14X22110   2.053   5.392   8.447  0.0673  0.3057 -0.9002
  191POPC  H14Y22111   2.166   5.525   8.466 -1.1018 -0.5104  0.9511
  191POPC  C31522112   2.252   5.324   8.470 -0.3654 -0.0405 -0.3060
  191POPC  H15X22113   2.356   5.359   8.451 -0.5933  0.6489 -0.3029
  191POPC  H15Y22114   2.238   5.226   8.420 -1.3350  1.3352 -2.8312
  191POPC  C31622115   2.251   5.302   8.620 -0.9781  0.4118  0.0581
  191POPC  H16X22116   2.320   5.225   8.659 -1.6674  0.1395  0.7517
  191POPC  H16Y22117   2.149   5.269   8.650 -1.4760  1.7521 -0.1469
  191POPC  H16Z22118   2.265   5.396   8.678 -0.9887  0.1276  0.5250
  192POPC     N22119   0.963   1.790   5.966 -0.3893  1.3647  0.0547
  192POPC   C1222120   0.821   1.836   5.979  0.3637 -0.1743  0.3035
  192POPC  H12A22121   0.785   1.865   5.881 -0.7596  0.0612  0.7795
  192POPC  H12B22122   0.825   1.924   6.041 -1.6729 -2.0275  3.1538
  192POPC   C1322123   1.010   1.743   6.094 -0.1289  0.1931 -0.1784
  192POPC  H13A22124   1.075   1.659   6.081 -0.2164  0.2415 -0.9184
  192POPC  H13B22125   1.063   1.816   6.155 -1.3509  0.3979  0.6774
  192POPC  H13C22126   0.929   1.706   6.156 -0.0809  0.2267 -0.0953
  192POPC   C1422127   0.975   1.682   5.859 -0.0263 -0.1486  0.2598
  192POPC  H14A22128   1.074   1.639   5.855  1.1207  2.3033  1.0006
  192POPC  H14B22129   0.904   1.601   5.869 -1.2051  0.7982 -0.3081
  192POPC  H14C22130   0.961   1.726   5.761 -0.2224 -1.6785 -0.4075
  192POPC   C1522131   1.048   1.903   5.922  0.3613 -0.4275 -0.1088
  192POPC  H15A22132   1.031   1.936   5.820 -1.0684  0.5579  0.4282
  192POPC  H15B22133   1.153   1.880   5.924  0.7628  1.3955  0.4447
  192POPC  H15C22134   1.033   1.990   5.984 -2.3295 -1.4172  0.6830
  192POPC   C1122135   0.721   1.729   6.025 -0.0859  0.3339 -0.4009
  192POPC  H11A22136   0.744   1.638   5.965  3.9860  0.0480  1.3896
  192POPC  H11B22137   0.617   1.757   6.001 -0.9773 -2.6777 -0.1346
  192POPC     P22138   0.704   1.562   6.240 -0.1598 -0.0305  0.2050
  192POPC   O1322139   0.637   1.468   6.146 -0.0160  0.5389  0.1758
  192POPC   O1422140   0.627   1.586   6.365  0.3984  0.3650  0.9525
  192POPC   O1222141   0.721   1.705   6.164  0.5676  0.2591 -0.4257
  192POPC   O1122142   0.860   1.511   6.269  0.1475  0.2298  0.6709
  192POPC    C122143   0.946   1.578   6.365  0.1458 -0.4448 -0.6643
  192POPC    HA22144   0.930   1.688   6.372 -1.2356 -0.6957  0.4353
  192POPC    HB22145   1.051   1.543   6.355  0.1740 -0.4599 -0.3270
  192POPC    C222146   0.919   1.523   6.504 -0.5164 -0.1519 -0.3719
  192POPC    HS22147   0.821   1.562   6.537 -0.4085 -1.1139  1.0942
  192POPC   O2122148   1.022   1.564   6.596 -0.4271 -0.2475 -0.2755
  192POPC   C2122149   1.008   1.689   6.635 -0.3734  1.2173  0.0995
  192POPC   O2222150   0.936   1.772   6.587  0.9336 -0.1586 -0.2420
  192POPC   C2222151   1.110   1.729   6.743 -0.1649  0.5346 -0.4684
  192POPC   H2R22152   1.150   1.829   6.716  0.3879  0.4975  0.2137
  192POPC   H2S22153   1.196   1.662   6.719  0.1132  2.0543 -4.0315
  192POPC    C322154   0.924   1.370   6.515  0.9447  0.3168 -0.0494
  192POPC    HX22155   1.022   1.331   6.482  1.9954  1.1117  2.0873
  192POPC    HY22156   0.837   1.327   6.459  0.1116 -0.2116  1.6368
  192POPC   O3122157   0.920   1.341   6.653  0.7045 -0.5512  0.3707
  192POPC   C3122158   0.796   1.344   6.706 -0.4707 -0.2918  0.0819
  192POPC   O3222159   0.691   1.365   6.641  0.0817 -0.3964  0.3783
  192POPC   C3222160   0.809   1.304   6.852  0.1911  0.5082 -0.4112
  192POPC   H2X22161   0.802   1.393   6.919  0.2409 -0.2992  0.6790
  192POPC   H2Y22162   0.912   1.267   6.874  0.7987  0.8021 -2.6558
  192POPC   C2322163   1.062   1.723   6.885  0.4495 -0.3049  0.0972
  192POPC   H3R22164   0.966   1.778   6.897  0.0320 -0.6897 -1.4282
  192POPC   H3S22165   1.141   1.762   6.952  0.6953 -0.9293  0.1740
  192POPC   C2422166   1.035   1.577   6.939  0.0899 -0.4476 -0.6928
  192POPC   H4R22167   1.127   1.516   6.924  1.2768  1.5056 -1.4197
  192POPC   H4S22168   0.953   1.528   6.883  1.0023 -1.7155 -0.9583
  192POPC   C2522169   1.008   1.587   7.088 -0.4991  0.0453 -0.0819
  192POPC   H5R22170   0.956   1.494   7.119  1.0752 -1.0283 -0.5991
  192POPC   H5S22171   0.947   1.675   7.115  0.5178  0.6819  0.1677
  192POPC   C2622172   1.138   1.597   7.170  0.4346  0.3551  0.5141
  192POPC   H6R22173   1.197   1.677   7.119  0.4533  0.5916  0.9014
  192POPC   H6S22174   1.195   1.502   7.166 -2.0432 -1.1232 -1.6227
  192POPC   C2722175   1.113   1.618   7.322 -0.0801  0.2145  0.3812
  192POPC   H7R22176   1.042   1.542   7.362 -0.2445  0.3863  0.4180
  192POPC   H7S22177   1.066   1.717   7.339 -0.2545  0.5105 -1.7518
  192POPC   C2822178   1.248   1.619   7.402 -0.0543 -1.1543 -0.2409
  192POPC   H8R22179   1.309   1.703   7.362  0.1011 -1.3706 -0.4596
  192POPC   H8S22180   1.304   1.530   7.366 -0.4559 -2.2451  1.7641
  192POPC   C2922181   1.236   1.615   7.551  0.6859 -0.9424 -0.3802
  192POPC   H9122182   1.134   1.628   7.589  1.0534 -2.1267  1.1044
  192POPC  C21022183   1.336   1.595   7.641 -0.8517  0.1437  0.0302
  192POPC  H10122184   1.310   1.606   7.747 -0.4962 -0.4835  0.1883
  192POPC  C21122185   1.485   1.579   7.618  0.0923 -1.0267 -0.0107
  192POPC  H11R22186   1.509   1.575   7.509 -2.9940  1.9231 -0.8808
  192POPC  H11S22187   1.520   1.484   7.664  1.4317 -1.3242 -1.5865
  192POPC  C21222188   1.572   1.692   7.682 -0.9472  0.0454 -0.3410
  192POPC  H12R22189   1.554   1.792   7.638  1.0715  0.7524  0.3584
  192POPC  H12S22190   1.670   1.667   7.635 -0.3216 -0.0144  0.9755
  192POPC  C21322191   1.565   1.676   7.835  0.0074 -0.5369  0.2258
  192POPC  H13R22192   1.589   1.570   7.860  1.4834 -0.7712 -2.0224
  192POPC  H13S22193   1.459   1.705   7.854  0.5911  0.8434  1.4407
  192POPC  C21422194   1.653   1.771   7.911 -0.1811 -0.2050 -0.4621
  192POPC  H14R22195   1.613   1.776   8.015 -1.6429  1.4283 -1.0886
  192POPC  H14S22196   1.639   1.872   7.866  2.9160  0.3402 -0.3356
  192POPC  C21522197   1.804   1.737   7.915  0.5428 -0.3471 -0.1749
  192POPC  H15R22198   1.850   1.739   7.814  1.1079  2.0281  0.0938
  192POPC  H15S22199   1.807   1.642   7.971  1.5196  0.3478  0.9782
  192POPC  C21622200   1.892   1.832   7.999 -0.1701 -0.6700  0.0058
  192POPC  H16R22201   1.831   1.878   8.080 -0.0295  1.7060 -1.1889
  192POPC  H16S22202   1.938   1.914   7.941  0.0829 -0.9093 -0.1345
  192POPC  C21722203   2.021   1.755   8.052 -0.2100  0.7170 -0.4380
  192POPC  H17R22204   2.079   1.725   7.962  0.5987  0.7895  0.0556
  192POPC  H17S22205   1.991   1.662   8.103 -0.1094 -0.1568 -1.9564
  192POPC  C21822206   2.091   1.854   8.141  0.3228 -0.1358 -0.3206
  192POPC  H18R22207   2.104   1.952   8.088 -2.2631 -0.1271 -1.0145
  192POPC  H18S22208   2.190   1.816   8.173 -0.6894 -1.5196  1.2331
  192POPC  H18T22209   2.032   1.889   8.228 -0.8029 -0.3184 -0.9959
  192POPC   C3322210   0.701   1.206   6.888  0.0327 -0.7284  0.3764
  192POPC   H3X22211   0.672   1.133   6.810 -2.2302 -0.1874  0.6668
  192POPC   H3Y22212   0.606   1.258   6.916  0.0623 -0.4421 -0.0585
  192POPC   C3422213   0.755   1.122   7.001 -0.0757  0.7946 -1.1556
  192POPC   H4X22214   0.846   1.064   6.975  0.4127  0.0751  1.9253
  192POPC   H4Y22215   0.669   1.062   7.039 -0.0901  1.8869  0.6175
  192POPC   C3522216   0.805   1.198   7.125 -0.2789 -0.9747  0.6025
  192POPC   H5X22217   0.735   1.280   7.149 -1.8985 -1.9511 -0.6753
  192POPC   H5Y22218   0.905   1.244   7.114 -0.5918 -0.2619  0.7590
  192POPC   C3622219   0.796   1.117   7.261 -0.4846  0.0547 -0.9538
  192POPC   H6X22220   0.886   1.054   7.274 -0.3389  0.6724  1.3908
  192POPC   H6Y22221   0.703   1.057   7.263 -0.5575  0.1850  0.1548
  192POPC   C3722222   0.795   1.200   7.388 -0.4417 -0.2306 -0.6110
  192POPC   H7X22223   0.711   1.273   7.395  1.8534  2.3077  1.9931
  192POPC   H7Y22224   0.890   1.258   7.386 -0.5854  0.1324  1.8324
  192POPC   C3822225   0.784   1.116   7.523 -1.0373 -0.7890 -0.5294
  192POPC   H8X22226   0.829   1.016   7.508 -2.7761 -1.7405  0.5013
  192POPC   H8Y22227   0.677   1.102   7.552 -0.3078  1.5655  3.7101
  192POPC   C3922228   0.837   1.194   7.648 -0.9616 -0.6041 -0.2940
  192POPC   H9X22229   0.771   1.281   7.666 -0.3033 -0.0431 -0.5568
  192POPC   H9Y22230   0.935   1.246   7.645 -0.0137 -2.3293 -0.0085
  192POPC  C31022231   0.835   1.099   7.772 -0.7384 -0.0335 -0.2480
  192POPC  H10X22232   0.896   1.008   7.756 -1.9756 -0.7805 -0.8492
  192POPC  H10Y22233   0.733   1.055   7.767 -1.9230  2.5657  0.4000
  192POPC  C31122234   0.851   1.180   7.899  0.2593  0.4065  0.0053
  192POPC  H11X22235   0.754   1.218   7.936 -0.4910 -0.1871 -1.3477
  192POPC  H11Y22236   0.920   1.261   7.868  1.1034 -0.4248 -0.3270
  192POPC  C31222237   0.911   1.092   8.004 -0.4152  0.2121  0.4187
  192POPC  H12X22238   1.009   1.054   7.968 -1.3638 -1.8366 -0.0716
  192POPC  H12Y22239   0.849   1.004   8.033  0.1001 -0.4780 -0.5760
  192POPC  C31322240   0.925   1.162   8.140 -0.4984 -0.2591  0.2637
  192POPC  H13X22241   0.918   1.096   8.229  0.2878  0.4444  0.8579
  192POPC  H13Y22242   0.844   1.237   8.155  0.8503  0.8491  2.1140
  192POPC  C31422243   1.042   1.254   8.161  0.5721 -0.3428  0.3609
  192POPC  H14X22244   1.024   1.326   8.244  0.9153 -0.3091  0.4086
  192POPC  H14Y22245   1.064   1.321   8.075  0.6538  0.3597  0.9221
  192POPC  C31522246   1.174   1.177   8.194 -0.4947  0.0770 -0.9371
  192POPC  H15X22247   1.213   1.130   8.101  2.2022 -0.9833  0.6740
  192POPC  H15Y22248   1.146   1.095   8.264 -0.1102 -0.7803 -1.7837
  192POPC  C31622249   1.276   1.257   8.277 -0.0561  0.3159  0.9318
  192POPC  H16X22250   1.237   1.258   8.380  2.7357  0.4958  2.0455
  192POPC  H16Y22251   1.287   1.358   8.231 -0.9408  0.9082  2.0208
  192POPC  H16Z22252   1.375   1.206   8.273 -1.3048 -2.1968  1.2150
  193SOD    SOD22253   6.502   5.346   5.040  0.1420 -0.0703 -0.3488
  194SOD    SOD22254   1.120   4.542   6.052  0.0073  0.1446  0.3837
  195SOD    SOD22255   0.439   4.889  11.895  0.1047  0.1370  0.0877
  196SOD    SOD22256   5.797   0.122   0.080 -0.3360 -0.3747  0.0703
  197SOD    SOD22257   3.951   3.901  11.395 -0.5619  0.0711 -0.0535
  198SOD    SOD22258   1.296   6.531   6.043  0.9295 -0.5204 -0.4450
  199SOD    SOD22259   6.425   3.463   5.435 -0.6751  0.4165  0.3382
  200SOD    SOD22260   4.971   1.587   4.063  0.0603 -0.2698 -0.2346
  201SOD    SOD22261   0.833   4.223  12.162  0.0072  0.1074  0.5069
  202SOD    SOD22262   4.293   6.155  13.881 -0.1292 -0.6700  0.1350
  203SOD    SOD22263   3.189   1.577   5.714 -0.1256 -0.4019  0.6254
  204SOD    SOD22264   6.688   1.168   5.383 -0.0351 -0.1641  0.4157
  205SOD    SOD22265   2.133   1.387  10.575  0.1568  0.2835 -0.0510
  206SOD    SOD22266   2.409   0.796   5.553 -0.6402  0.3160 -0.2491
  207SOD    SOD22267   5.832   5.060   4.101 -0.2683 -0.3532 -0.1632
  208SOD    SOD22268   5.420   5.941   4.936  0.0958  0.0936 -0.0560
  209SOD    SOD22269   6.160   4.690   5.335  0.3628 -0.0215  0.2343
  210SOD    SOD22270   6.111   6.714  11.558 -0.0355  0.0595 -0.5462
  211SOD    SOD22271   0.207   5.791  11.603  0.0327  0.2031  0.2894
  212SOD    SOD22272   1.576   1.746   1.073  0.2015 -0.0028  0.5551
  213SOD    SOD22273   3.421   2.473  12.929 -0.7865  0.5253 -0.0347
  214SOD    SOD22274   2.239   3.415  11.935 -0.2539  0.5601  0.7759
  215SOD    SOD22275   6.542   6.192   4.703  0.2394 -0.0163 -0.0228
  216SOD    SOD22276   5.729   3.715   6.232  0.0354  0.4185 -0.2242
  217SOD    SOD22277   1.548   0.510   1.784 -0.4693  0.6069 -0.6201
  218SOD    SOD22278   4.424   3.238  15.209  0.5217 -0.1673  0.0351
  219SOD    SOD22279   2.819   5.095   5.592  0.1145  0.1400 -0.6766
  220SOD    SOD22280   3.390   1.081   0.227  0.4960  0.3614 -0.0405
  221SOD    SOD22281   4.987   5.967  13.447  0.2250  0.0369 -0.2827
  222SOD    SOD22282   3.579   2.641  14.558  0.1391 -0.4758  0.0308
  223SOD    SOD22283   5.002   6.434   1.431  0.5143 -0.3088  0.5255
  224SOD    SOD22284   4.034   5.850  15.150  0.3031  0.1537  0.3395
  225SOD    SOD22285   2.760   3.222  16.586 -0.1444  0.0993 -0.1327
  226SOD    SOD22286   4.117   5.843   5.532  0.3251 -0.1530  0.1540
  227SOD    SOD22287   1.891   6.400   5.763 -0.0470  0.1050  0.2551
  228SOD    SOD22288   0.986   3.961  12.807 -0.0867 -0.4145  0.6790
  229SOD    SOD22289   4.272   3.130   0.826  0.5654  0.0029 -0.7592
  230SOD    SOD22290   5.448   4.368  14.279  0.0545 -0.3988  0.3768
  231SOD    SOD22291   1.419   6.652  10.797  0.4322  0.5965 -0.6410
  232SOD    SOD22292   2.929   2.300   6.268  0.2310  0.2340 -0.0681
  233SOD    SOD22293   5.967   0.163  12.671  0.3563 -0.1826  0.0004
  234SOD    SOD22294   3.385   5.471  16.564 -0.1443 -0.6188  0.1273
  235SOD    SOD22295   0.307   6.652  14.262 -0.2013  0.2447 -0.2638
  236SOD    SOD22296   0.912   4.324  10.814 -0.0229 -0.0104  0.5083
  237SOD    SOD22297   4.914   1.949  11.737 -0.4161  0.1656 -0.0622
  238SOD    SOD22298   0.291   2.247  12.972  0.5318 -0.4155 -0.8818
  239SOD    SOD22299   0.928   5.496   2.919 -0.3691  0.2507  0.6967
  240SOD    SOD22300   5.303   4.113  11.874 -0.1804  0.0610 -0.0014
  241SOD    SOD22301   4.483   0.364  16.572 -0.0462 -0.3799 -0.7161
  242SOD    SOD22302   6.035   1.858   5.204 -0.0580 -0.1629  0.0494
  243SOD    SOD22303   6.312   5.158  12.249  0.6556  0.1304  0.2895
  244SOD    SOD22304   3.398   1.601   2.540  0.1410  0.2502  0.1683
  245SOD    SOD22305   5.593   4.593   5.522 -0.0183  0.6024  0.3542
  246SOD    SOD22306   5.435   6.610   6.082  0.2278  0.0183 -0.0691
  247SOD    SOD22307   4.371   2.949   4.008 -0.0016  0.3983 -0.1190
  248SOD    SOD22308   0.614   5.330   3.748  0.3428 -0.1878  0.0219
  249SOD    SOD22309   5.087   6.444   2.028  0.4303 -0.1134  0.4796
  250SOD    SOD22310   3.640   3.143  16.820 -0.1170  0.3828 -0.1995
  251SOD    SOD22311   3.426   4.438   3.882 -0.1129 -0.1174  0.2802
  252SOD    SOD22312   4.192   4.914   2.533  0.0180 -0.1649 -0.1371
  253SOD    SOD22313   4.579   5.270  10.799 -0.2696  0.4942 -0.2850
  254SOD    SOD22314   4.489   4.042   5.085  0.1841  0.2915 -0.2549
  255SOD    SOD22315   0.697   3.481  14.779  0.3576 -0.3986 -0.2072
  256SOD    SOD22316   3.195   1.232   3.893 -0.1806  0.1457  0.1233
  257SOD    SOD22317   5.774   1.287   2.017  0.7429  0.2117  0.0460
  258SOD    SOD22318   3.825   3.259   1.927  0.2258  0.5984  0.1461
  259SOD    SOD22319   6.364   1.420   0.998 -0.1607  0.2459  0.5672
  260SOD    SOD22320   3.820   1.437   2.802 -0.3167 -0.0462  0.4073
  261SOD    SOD22321   2.267   4.779   1.426  0.2730  0.5917  0.2752
  262SOD    SOD22322   6.705   6.394  11.981 -0.2162 -0.3331  0.1983
  263SOD    SOD22323   1.506   2.893   0.703 -0.1984  0.1289 -0.0276
  264SOD    SOD22324   4.658   5.776   5.797 -0.1148 -0.4749 -0.3452
  265SOD    SOD22325   3.367   6.572   1.355 -0.6700 -0.7432 -0.1078
  266SOD    SOD22326   1.094   5.894  13.289  0.5007 -0.0421  0.2259
  267SOD    SOD22327   5.611   0.277  10.675 -0.4584 -0.2917  0.0053
  268SOD    SOD22328   6.484   6.261  11.089 -0.5575  0.0167 -0.3119
  269SOD    SOD22329   2.601   2.085  14.607 -0.0425  0.4249  0.4482
  270CLA    CLA22330   2.667   3.240  16.333  0.1577  0.0015  0.1062
  271CLA    CLA22331   1.973   0.787   5.384 -0.0772 -0.4343 -0.2659
  272CLA    CLA22332   5.942   6.503   3.872 -0.5310  0.1143  0.4032
  273CLA    CLA22333   2.711   4.104   1.319  0.2417 -0.3301  0.4918
  274CLA    CLA22334   1.427   2.473  16.309 -0.0317  0.2998  0.2536
  275CLA    CLA22335   4.278   5.342   5.410  0.2361 -0.0385 -0.2437
  276CLA    CLA22336   4.172   1.572   4.217  0.0240 -0.1789  0.2228
  277CLA    CLA22337   1.115   6.487   2.908  0.3931 -0.1634  0.3397
  278CLA    CLA22338   0.310   3.098  12.843 -0.5683 -0.2727  0.4625
  279CLA    CLA22339   2.167   6.228   3.390 -0.1550 -0.3304  0.0644
  280CLA    CLA22340   4.334   0.108   0.417 -0.0282  0.4135  0.5457
  281CLA    CLA22341   6.625   6.608  12.420  0.6848  0.1215  0.3302
  282CLA    CLA22342   1.253   0.902   1.329 -0.0673 -0.3478  0.1215
  283CLA    CLA22343   5.480   0.435   2.107  0.2313  0.4314 -0.2032
  284CLA    CLA22344   3.129   3.877   2.997 -0.3401  0.2913 -0.5464
  285CLA    CLA22345   5.353   4.385   4.202  0.0769 -0.1760  0.1849
  286CLA    CLA22346   4.875   4.449   2.809 -0.2801 -0.2315  0.0657
  287CLA    CLA22347   0.445   6.003  16.363 -0.4443  0.2464  0.1003
  288CLA    CLA22348   3.950   3.768   1.660 -0.1439 -0.1471  0.1026
  289CLA    CLA22349   2.918   0.309   1.849  0.0355 -0.0849 -0.5488
  290CLA    CLA22350   5.797   6.546   5.413  0.0356 -0.3998  0.4860
  291CLA    CLA22351   0.100   5.986   2.811 -0.1869  0.1166  0.2669
  292CLA    CLA22352   2.612   3.084   0.873 -0.0023  0.0419 -0.5802
  293CLA    CLA22353   6.241   3.621  13.611  0.1977  0.0976  0.0898
  294CLA    CLA22354   1.167   4.071   0.856 -0.2052  0.1820  0.2609
  295CLA    CLA22355   5.958   1.492  15.363  0.2632 -0.0992  0.1698
  296CLA    CLA22356   4.146   0.572   2.010  0.3241 -0.0879 -0.0544
  297CLA    CLA22357   2.809   1.076   5.516 -0.0590  0.2226  0.2248
  298CLA    CLA22358   4.179   3.085   2.200  0.0172 -0.4643 -0.3563
  299CLA    CLA22359   5.283   3.762   5.487  0.4241 -0.3236  0.3500
  300CLA    CLA22360   0.825   0.189  17.050  0.1313 -0.2314  0.2044
  301CLA    CLA22361   2.127   6.429   2.352 -0.2081  0.2008 -0.0100
  302CLA    CLA22362   5.050   2.189  12.253  0.4439 -0.2399  0.0249
  303CLA    CLA22363   2.786   4.498  16.711  0.1681  0.6465 -0.3801
  304CLA    CLA22364   0.544   5.340  11.969 -0.2628  0.0183 -0.2019
  305CLA    CLA22365   3.463   1.766   3.345 -0.2044  0.0033 -0.3596
  306CLA    CLA22366   2.590   0.279   0.476 -0.0752 -0.0733  0.1208
  307CLA    CLA22367   6.259   0.393  11.652  0.3638  0.4738 -0.2375
  308CLA    CLA22368   6.493   4.236  12.440 -0.3064  0.6578 -0.2243
  309CLA    CLA22369   5.525   4.517  14.735 -0.5375  0.0239 -0.0853
  310CLA    CLA22370   5.999   5.725   2.202  0.0514 -0.1852  0.2312
  311CLA    CLA22371   4.936   1.704   0.075 -0.2138  0.1307 -0.3132
  312CLA    CLA22372   3.215   2.283  13.301 -0.4855 -0.1676 -0.3557
  313CLA    CLA22373   4.300   5.602  14.385  0.1432  0.4973  0.6909
  314CLA    CLA22374   5.559   6.525  16.076  0.4027  0.5192 -0.1389
  315CLA    CLA22375   2.522   4.226  13.564 -0.4830 -0.1155  0.3783
  316CLA    CLA22376   3.714   2.680  14.776 -0.3731 -0.0327  0.5182
  317CLA    CLA22377   3.302   2.031  15.216  0.1987 -0.0086  0.0983
  318CLA    CLA22378   6.419   1.743   2.933 -0.0064 -0.2015  0.0804
  319CLA    CLA22379   1.180   0.107   4.781 -0.1313  0.3213  0.4073
  320CLA    CLA22380   4.321   2.851  14.143 -0.6960 -0.3402 -0.2293
  321CLA    CLA22381   6.767   5.800  11.475 -0.1838 -0.5671 -0.1570
  322CLA    CLA22382   3.562   5.103   5.650  0.2954 -0.2900  0.3783
  323TIP3   OH222383   4.762   2.676  14.858 -0.0533  0.5450  0.7283
  323TIP3    H122384   4.823   2.722  14.800  1.7353  1.5929  3.3396
  323TIP3    H222385   4.780   2.583  14.842 -2.1711  0.6552 -3.0029
  324TIP3   OH222386   0.528   0.018   4.972  0.5174  0.1299 -0.2217
  324TIP3    H122387   0.473  -0.020   5.040  1.6138  1.3203  1.3609
  324TIP3    H222388   0.501   0.109   4.967  0.2262 -0.0197 -1.6323
  325TIP3   OH222389   0.886   3.152  12.010 -0.3836 -0.1730 -0.1865
  325TIP3    H122390   0.819   3.087  12.028 -0.8644 -0.3335 -2.3959
  325TIP3    H222391   0.899   3.148  11.915  0.7853  1.7734 -0.1471
  326TIP3   OH222392   3.856   5.391   1.209 -0.0555  0.0143 -0.0950
  326TIP3    H122393   3.856   5.295   1.216  0.2284 -0.0376 -0.7502
  326TIP3    H222394   3.832   5.408   1.117  0.5528  0.5549 -0.1552
  327TIP3   OH222395   2.888   4.709   4.171 -0.2217 -0.6470 -0.4292
  327TIP3    H122396   2.852   4.621   4.177 -0.0589 -0.6061  1.2595
  327TIP3    H222397   2.824   4.757   4.118 -0.7701 -1.5334 -0.5843
  328TIP3   OH222398   3.640   6.555  16.903  0.0045 -0.0067  0.1611
  328TIP3    H122399   3.550   6.578  16.881  0.1420  0.4662  0.0851
  328TIP3    H222400   3.671   6.506  16.827  0.0120  0.3839 -0.0948
  329TIP3   OH222401   4.694   1.421   4.484 -0.2514  0.2938 -0.2624
  329TIP3    H122402   4.722   1.332   4.463  1.2702  0.5437  0.6744
  329TIP3    H222403   4.614   1.409   4.535 -0.2111 -0.5303 -0.3879
  330TIP3   OH222404   0.220   6.610  14.739 -0.3608  0.1417 -0.2747
  330TIP3    H122405   0.281   6.684  14.743 -1.2719  0.9630 -1.1629
  330TIP3    H222406   0.260   6.550  14.676  0.8081 -0.5290  1.0933
  331TIP3   OH222407   0.551   4.054  11.909  0.6729 -0.2127  0.1956
  331TIP3    H122408   0.579   4.070  11.819  1.9141  0.0150  0.6032
  331TIP3    H222409   0.513   3.966  11.907  0.5116 -0.1323 -0.5840
  332TIP3   OH222410   1.798   4.531  16.940  0.1672  0.4088  0.1645
  332TIP3    H122411   1.799   4.603  17.003  1.6211  0.2009  0.3886
  332TIP3    H222412   1.716   4.485  16.958  0.4987  0.4408  1.8138
  333TIP3   OH222413   3.579   3.120  13.440  0.0877 -0.0164 -0.3761
  333TIP3    H122414   3.494   3.135  13.399 -0.3262 -2.0292 -0.2736
  333TIP3    H222415   3.563   3.129  13.534 -0.3987 -2.1377 -0.2405
  334TIP3   OH222416   4.647   1.823  13.074 -0.1811 -0.3030 -0.5417
  334TIP3    H122417   4.617   1.910  13.101  0.8279 -0.5216  1.4545
  334TIP3    H222418   4.568   1.770  13.066 -0.6362  0.2183  0.4905
  335TIP3   OH222419   4.015   2.622  12.964 -0.6336 -0.1626 -0.1413
  335TIP3    H122420   4.033   2.539  13.009 -1.5742  0.8900  2.2257
  335TIP3    H222421   3.929   2.609  12.925  0.0583 -0.9706 -1.4584
  336TIP3   OH222422   1.548   2.925  14.995  0.4943  0.7743  0.0070
  336TIP3    H122423   1.611   2.984  15.037 -0.0039  1.7126 -0.5458
  336TIP3    H222424   1.473   2.924  15.055  1.3317 -0.9635  1.0595
  337TIP3   OH222425   1.365   0.963   2.167  0.7105 -0.6424 -0.1230
  337TIP3    H122426   1.283   0.952   2.117  0.9369  1.9423 -1.1828
  337TIP3    H222427   1.341   0.941   2.257 -0.3615 -2.8966 -0.9081
  338TIP3   OH222428   4.580   5.190  16.483  0.2177 -0.6678  0.0214
  338TIP3    H122429   4.499   5.219  16.525  0.3625  1.3470 -1.0181
  338TIP3    H222430   4.650   5.238  16.529  0.5874 -0.3602 -0.8543
  339TIP3   OH222431   3.753   1.988   2.842  0.1904  0.0601  0.1836
  339TIP3    H122432   3.737   1.978   2.748  0.9850 -1.9008  0.2316
  339TIP3    H222433   3.679   2.040   2.873 -0.3722  0.2747 -1.4336
  340TIP3   OH222434   5.160   2.719  13.230  0.0394  0.0801  0.4576
  340TIP3    H122435   5.238   2.665  13.247  0.7903  1.0007 -0.0653
  340TIP3    H222436   5.159   2.781  13.303  0.4770  0.8454 -0.1887
  341TIP3   OH222437   5.744   5.213  15.070  0.5362 -0.1112  0.1739
  341TIP3    H122438   5.746   5.265  14.990 -0.4484  1.0820  0.9167
  341TIP3    H222439   5.669   5.154  15.058  1.4314 -1.1414 -0.5096
  342TIP3   OH222440   4.716   0.292   1.572 -0.2291 -0.1437  0.5575
  342TIP3    H122441   4.647   0.357   1.577  0.4092  0.5144  0.9281
  342TIP3    H222442   4.773   0.322   1.501  0.3135 -0.0490  1.0225
  343TIP3   OH222443   1.256   2.641  15.145 -0.1086  0.0103  0.1558
  343TIP3    H122444   1.297   2.554  15.146 -1.4194 -0.6362  2.5281
  343TIP3    H222445   1.189   2.635  15.076 -0.0354 -0.8066  0.1438
  344TIP3   OH222446   2.114   1.437   4.259  0.2525 -0.4347  0.0461
  344TIP3    H122447   2.102   1.374   4.330 -0.3609 -0.1104  0.2292
  344TIP3    H222448   2.105   1.523   4.301  1.0753 -0.2252 -0.2042
  345TIP3   OH222449   6.043   0.126  16.014 -0.6569  0.0538  0.4093
  345TIP3    H122450   6.038   0.081  15.929  0.1569 -0.7543  0.7884
  345TIP3    H222451   6.136   0.145  16.026 -0.7079 -0.2920  1.3641
  346TIP3   OH222452   3.693   0.990  14.750 -0.0166 -0.5489  0.1945
  346TIP3    H122453   3.688   1.082  14.723 -1.9758 -0.8135 -0.4335
  346TIP3    H222454   3.765   0.987  14.812 -0.6462  1.6332  1.0697
  347TIP3   OH222455   3.475   4.298  13.937  0.1857  0.0364 -0.5828
  347TIP3    H122456   3.389   4.256  13.926 -0.1062  0.5460 -0.2747
  347TIP3    H222457   3.531   4.253  13.874 -0.4177  0.0025 -1.1061
  348TIP3   OH222458   1.759   1.030   4.745 -0.0504  0.0353  0.3118
  348TIP3    H122459   1.687   1.056   4.802  0.8140 -0.4453  1.6397
  348TIP3    H222460   1.717   0.978   4.676 -1.1793  1.1287  0.1619
  349TIP3   OH222461   4.159   4.911  12.615  0.3510 -0.0320 -0.2091
  349TIP3    H122462   4.075   4.945  12.646 -0.3039 -1.6425 -0.1778
  349TIP3    H222463   4.223   4.978  12.642 -0.3569 -0.6681  3.3632
  350TIP3   OH222464   6.496   0.460  12.591 -0.4794  0.2408  0.3511
  350TIP3    H122465   6.422   0.403  12.569 -0.4569  0.7213 -0.9949
  350TIP3    H222466   6.563   0.400  12.625 -1.0153 -0.3530  0.3626
  351TIP3   OH222467   4.340   1.677   6.169 -0.3035 -0.5025 -0.4302
  351TIP3    H122468   4.281   1.711   6.236  2.3446 -0.0001  1.7812
  351TIP3    H222469   4.311   1.587   6.155 -1.8430 -0.1386  0.2920
  352TIP3   OH222470   2.147   2.759  15.201 -0.3526 -0.0100  0.8068
  352TIP3    H122471   2.192   2.803  15.273  2.3383 -1.1928 -0.1068
  352TIP3    H222472   2.214   2.747  15.134 -2.0674 -1.7043 -0.6658
  353TIP3   OH222473   1.892   6.685  11.809 -0.0588 -0.6070  0.7981
  353TIP3    H122474   1.977   6.729  11.816  0.3611 -0.8294 -2.3990
  353TIP3    H222475   1.875   6.653  11.898  3.1415 -0.5079  1.5177
  354TIP3   OH222476   1.442   2.578  13.360 -0.1388 -0.1838 -0.6959
  354TIP3    H122477   1.473   2.605  13.274  0.1199 -2.6261 -1.3974
  354TIP3    H222478   1.518   2.587  13.417 -0.1632  0.9091 -0.8265
  355TIP3   OH222479   4.264   0.622  13.556 -0.0885 -0.0077 -0.0624
  355TIP3    H122480   4.305   0.662  13.479 -2.5348  2.1692 -0.2862
  355TIP3    H222481   4.208   0.552  13.519 -2.1195  1.7515 -0.4311
  356TIP3   OH222482   1.668   0.093   4.462 -0.3780 -0.5548  0.1764
  356TIP3    H122483   1.617   0.012   4.463 -1.6863  0.2469  2.1966
  356TIP3    H222484   1.618   0.153   4.407 -0.5219 -0.4633  0.4033
  357TIP3   OH222485   1.206   1.267   1.975  0.0144  0.6869 -0.1629
  357TIP3    H122486   1.165   1.265   2.061  0.9537  1.0214  0.2972
  357TIP3    H222487   1.283   1.210   1.983 -0.5801 -0.2893 -1.1426
  358TIP3   OH222488   2.643   3.916   2.353 -0.4349  0.0093  0.2110
  358TIP3    H122489   2.666   3.939   2.443 -2.1209  0.2003  0.6033
  358TIP3    H222490   2.626   3.821   2.356 -2.4972  0.3706  0.5439
  359TIP3   OH222491   4.465   0.580  15.431 -0.1104  0.0826  0.3005
  359TIP3    H122492   4.496   0.654  15.377  0.4515  0.9143  1.7300
  359TIP3    H222493   4.429   0.621  15.510  0.8530 -1.1983  1.4323
  360TIP3   OH222494   5.457   4.161   0.370 -0.4399  0.0283 -0.3951
  360TIP3    H122495   5.461   4.172   0.465  0.2074  0.4195 -0.4649
  360TIP3    H222496   5.372   4.195   0.345  0.2344  1.8780 -0.2160
  361TIP3   OH222497   0.113   4.684   0.756  0.0156 -0.2468 -0.0988
  361TIP3    H122498   0.184   4.629   0.722 -0.3683  0.4208 -2.0690
  361TIP3    H222499   0.047   4.622   0.787 -0.2519 -0.9372 -1.9497
  362TIP3   OH222500   0.609   4.116  11.026 -0.1061  0.3700 -0.4334
  362TIP3    H122501   0.526   4.143  10.986  0.1965  0.9769 -0.6510
  362TIP3    H222502   0.582   4.061  11.100 -0.7936  2.3660  0.8483
  363TIP3   OH222503   3.149   1.843  12.613 -0.4041  0.0100 -0.6801
  363TIP3    H122504   3.136   1.748  12.608 -2.7920  0.3881 -2.0128
  363TIP3    H222505   3.168   1.870  12.523  0.2143  0.8340 -0.3175
  364TIP3   OH222506   5.881   0.119  13.630 -0.1746  0.0942 -0.3117
  364TIP3    H122507   5.915   0.079  13.711 -1.1928  1.0375  0.5863
  364TIP3    H222508   5.847   0.045  13.580 -1.6676 -0.2516  1.1630
  365TIP3   OH222509   5.935   5.458   5.868  0.9626 -0.1589 -0.6397
  365TIP3    H122510   5.983   5.532   5.903  0.8039  0.0390 -0.8413
  365TIP3    H222511   5.850   5.460   5.913 -0.0043  1.2831 -2.4955
  366TIP3   OH222512   4.897   5.764  10.871  0.0317 -0.6740 -0.4539
  366TIP3    H122513   4.892   5.671  10.849 -0.9505 -0.4208 -1.2888
  366TIP3    H222514   4.989   5.787  10.853  0.7745 -1.9162  1.5603
  367TIP3   OH222515   0.421   3.185  13.809 -0.0999  0.5611  0.4291
  367TIP3    H122516   0.357   3.256  13.814  0.8738  1.4973 -0.0264
  367TIP3    H222517   0.506   3.230  13.810  0.4958 -0.3412 -3.0591
  368TIP3   OH222518   5.749   0.237  17.130  0.5041  0.4524 -0.0279
  368TIP3    H122519   5.810   0.300  17.092  0.1130  1.7753  1.4681
  368TIP3    H222520   5.669   0.246  17.078  0.5634  0.9845 -0.0350
  369TIP3   OH222521   2.005   4.555  15.598  0.2438 -0.7336  0.1509
  369TIP3    H122522   2.095   4.531  15.575  0.2528 -1.2924  0.7486
  369TIP3    H222523   2.012   4.643  15.634  0.2208  0.1980 -2.0135
  370TIP3   OH222524   4.695   5.752  15.859  0.5671  0.2294 -0.0732
  370TIP3    H122525   4.787   5.778  15.859  0.3222  1.1501  0.9992
  370TIP3    H222526   4.696   5.657  15.846  1.8086 -0.1585  2.4826
  371TIP3   OH222527   5.256   6.776   6.108  0.5268 -0.5259 -0.0647
  371TIP3    H122528   5.249   6.819   6.023  4.8787  0.8867  0.1855
  371TIP3    H222529   5.220   6.840   6.170 -0.8216 -0.7519 -0.5964
  372TIP3   OH222530   6.631   1.385  12.579  0.3815  0.9079  0.2164
  372TIP3    H122531   6.673   1.399  12.664  0.3292 -0.5004  0.4828
  372TIP3    H222532   6.558   1.448  12.578  0.1386  0.6541  1.3751
  373TIP3   OH222533   3.744   1.373   3.461  0.3255  0.3041 -0.0504
  373TIP3    H122534   3.663   1.321   3.467 -0.7105  1.9758  0.7871
  373TIP3    H222535   3.714   1.459   3.431  1.6911  1.2076  1.1554
  374TIP3   OH222536   1.623   3.122   4.967 -0.0053  0.4671 -0.2176
  374TIP3    H122537   1.684   3.087   4.902  0.8038 -1.7595  1.6708
  374TIP3    H222538   1.679   3.163   5.033 -0.5941 -0.4316  0.8636
  375TIP3   OH222539   0.125   5.242   3.968  0.1843 -0.0525 -0.2164
  375TIP3    H122540   0.150   5.271   3.881  1.0955  2.2423  0.7721
  375TIP3    H222541   0.177   5.163   3.983  0.2245 -0.3077 -1.6206
  376TIP3   OH222542   0.264   3.981   4.729 -0.5056  0.1308  0.0993
  376TIP3    H122543   0.223   3.957   4.646  1.6492 -0.4308 -0.8331
  376TIP3    H222544   0.299   3.899   4.764 -0.8765  0.4656  1.2788
  377TIP3   OH222545   4.888   5.626  15.079 -0.4934  0.2139 -0.3589
  377TIP3    H122546   4.852   5.671  15.002 -2.1216 -1.9010 -0.8971
  377TIP3    H222547   4.810   5.599  15.129  0.3442 -3.2287 -0.8107
  378TIP3   OH222548   5.430   6.081   2.588 -0.0266  1.0393  0.0602
  378TIP3    H122549   5.339   6.051   2.594  0.4663 -0.5172  0.0056
  378TIP3    H222550   5.480   6.002   2.567  1.1480  2.1655 -1.5305
  379TIP3   OH222551   1.233   1.021  12.786  0.2425 -0.3046  0.2490
  379TIP3    H122552   1.303   0.976  12.738 -0.7517 -2.0060  0.3615
  379TIP3    H222553   1.195   0.953  12.841 -0.2097  1.0816  1.6596
  380TIP3   OH222554   4.040   1.842   5.068  0.0691  0.1516  0.4083
  380TIP3    H122555   4.126   1.880   5.055  0.0543  0.4720  1.2554
  380TIP3    H222556   3.979   1.910   5.041  0.0749 -0.0758 -0.1929
  381TIP3   OH222557   0.016   0.796  11.153 -0.8890 -0.0459 -0.4927
  381TIP3    H122558  -0.046   0.826  11.086 -0.1572  0.9892 -0.7192
  381TIP3    H222559   0.070   0.730  11.108 -0.2782  0.7782 -0.9919
  382TIP3   OH222560   1.446   0.667  15.567  0.0253  0.5223 -0.1170
  382TIP3    H122561   1.519   0.717  15.530  0.3512  0.6430  0.6771
  382TIP3    H222562   1.459   0.672  15.662  0.4878 -1.6850 -0.0370
  383TIP3   OH222563   2.693   6.370   3.014  0.4023  0.1444  0.3272
  383TIP3    H122564   2.650   6.428   3.077 -1.8764  0.8195 -1.7612
  383TIP3    H222565   2.779   6.354   3.051 -0.9863  0.2040  3.8044
  384TIP3   OH222566   6.580   0.186   2.492  0.1283  0.4529  0.3809
  384TIP3    H122567   6.566   0.212   2.583  2.1018  2.1704  0.2303
  384TIP3    H222568   6.653   0.125   2.495 -0.5337 -0.3742  0.0478
  385TIP3   OH222569   2.339   2.638   3.079  0.5531  0.1900  0.2084
  385TIP3    H122570   2.430   2.641   3.051  1.0603  1.1960  1.8833
  385TIP3    H222571   2.339   2.586   3.159  0.1532  2.5582  1.8303
  386TIP3   OH222572   3.423   4.118   4.638 -0.2854  0.1174  0.2398
  386TIP3    H122573   3.431   4.175   4.714 -0.3329 -1.5895  1.5528
  386TIP3    H222574   3.499   4.059   4.644 -1.7623 -1.8256  0.5401
  387TIP3   OH222575   6.053   2.572  16.673  0.1514 -0.2997 -0.1453
  387TIP3    H122576   6.093   2.488  16.691  0.5482 -0.3668 -1.3226
  387TIP3    H222577   5.961   2.561  16.699  0.3457 -0.8826  0.2988
  388TIP3   OH222578   2.655   5.208  16.159  0.3848  0.1795  0.2539
  388TIP3    H122579   2.722   5.218  16.092 -1.1298  0.7502 -1.1958
  388TIP3    H222580   2.607   5.129  16.135 -1.2820  1.3496 -0.3635
  389TIP3   OH222581   4.180   2.725   1.732 -0.5575  0.0174 -0.0987
  389TIP3    H122582   4.157   2.797   1.675 -0.8514  2.4639  2.9671
  389TIP3    H222583   4.111   2.723   1.798  0.8117 -1.3872  1.3407
  390TIP3   OH222584   1.319   3.042  13.821  0.3019  0.4277 -0.5329
  390TIP3    H122585   1.225   3.022  13.827  0.4303 -0.4701 -1.4660
  390TIP3    H222586   1.363   2.961  13.844  0.8513  0.6977 -0.6140
  391TIP3   OH222587   3.027   3.723  15.386  0.3341  0.3520 -0.4402
  391TIP3    H122588   2.987   3.647  15.429 -0.6507 -0.5740 -2.9066
  391TIP3    H222589   3.118   3.722  15.416 -0.1161 -0.7911  0.9168
  392TIP3   OH222590   4.301   1.286   4.214 -0.0964  0.1663 -0.5440
  392TIP3    H122591   4.225   1.252   4.167 -0.8030  0.8028  0.1093
  392TIP3    H222592   4.287   1.381   4.217  1.3027  0.4104 -1.4054
  393TIP3   OH222593   0.780   5.297   3.918 -0.8542 -0.4722  0.1192
  393TIP3    H122594   0.871   5.317   3.940 -0.7370  0.9257 -1.5054
  393TIP3    H222595   0.782   5.205   3.890 -0.1636 -0.8032  1.2405
  394TIP3   OH222596   2.816   4.088   1.040  0.3350 -0.6021 -0.3681
  394TIP3    H122597   2.771   4.106   1.122  0.4120  0.7769 -0.6115
  394TIP3    H222598   2.902   4.054   1.066 -0.3799 -2.0765  0.0999
  395TIP3   OH222599   4.548   0.418   5.713 -0.4929  0.5276  0.1319
  395TIP3    H122600   4.472   0.461   5.751 -1.0281  0.0056 -0.3321
  395TIP3    H222601   4.523   0.326   5.708 -0.3572  0.5530 -1.2897
  396TIP3   OH222602   2.237   6.785   3.561 -0.0288  0.4672 -0.5119
  396TIP3    H122603   2.164   6.838   3.527 -0.6604 -0.0362  0.0462
  396TIP3    H222604   2.207   6.756   3.647  0.9086  0.3968 -0.2128
  397TIP3   OH222605   0.559   5.766  16.555  0.3988 -0.2838  0.0694
  397TIP3    H122606   0.556   5.797  16.645 -1.7323  0.3980 -0.2073
  397TIP3    H222607   0.543   5.844  16.502  1.2062 -0.7519 -0.8714
  398TIP3   OH222608   2.175   0.110   6.144 -0.3018 -0.2151  0.4432
  398TIP3    H122609   2.131   0.172   6.087  0.6328  1.1584  1.1958
  398TIP3    H222610   2.232   0.059   6.086 -0.9553 -0.2708 -0.1478
  399TIP3   OH222611   1.570   3.697  10.783  0.2531 -0.1863  0.5929
  399TIP3    H122612   1.481   3.664  10.774 -0.2221  1.1597  0.2092
  399TIP3    H222613   1.617   3.663  10.707  0.0852 -0.9414  0.8267
  400TIP3   OH222614   3.920   3.064  12.724 -0.9016  0.3690 -0.4607
  400TIP3    H122615   3.930   3.114  12.643 -0.5516  1.0960  0.0241
  400TIP3    H222616   3.834   3.023  12.716 -1.6726  1.9264 -0.4002
  401TIP3   OH222617   6.044   0.493  17.214 -0.1158 -0.5053  0.3048
  401TIP3    H122618   6.037   0.452  17.301  0.9752 -0.3815  0.4517
  401TIP3    H222619   6.128   0.539  17.216 -0.5377  0.3112 -0.4780
  402TIP3   OH222620   0.453   5.093   2.276  1.2385  0.0816 -0.0074
  402TIP3    H122621   0.388   5.162   2.280  1.4101  0.3463 -1.4260
  402TIP3    H222622   0.466   5.066   2.367  0.6688  1.4351  0.4818
  403TIP3   OH222623   2.705   2.604  14.548  0.3180 -0.2109  0.2471
  403TIP3    H122624   2.722   2.640  14.461 -0.4362  1.8710  0.9381
  403TIP3    H222625   2.774   2.642  14.603  0.8014 -1.5330  0.5681
  404TIP3   OH222626   2.358   2.159  11.405 -0.0531  0.2268  0.4247
  404TIP3    H122627   2.452   2.172  11.396 -0.3262  1.5109 -0.6974
  404TIP3    H222628   2.335   2.200  11.488  0.3244  0.1838  0.5505
  405TIP3   OH222629   1.456   0.578   3.631  0.2195  0.4484 -0.0955
  405TIP3    H122630   1.441   0.552   3.722  1.5241  2.0070  0.5786
  405TIP3    H222631   1.371   0.609   3.600 -0.2306 -0.1041  0.5827
  406TIP3   OH222632   6.506   4.985   4.820 -0.1300  0.4409  0.2860
  406TIP3    H122633   6.483   4.994   4.728  1.3706  0.4806 -0.0948
  406TIP3    H222634   6.476   5.066   4.861 -0.1620  0.7177 -0.2875
  407TIP3   OH222635   4.801   6.132   4.104  0.4515 -0.0858  0.0717
  407TIP3    H122636   4.744   6.207   4.090  0.5904 -0.2879 -1.6268
  407TIP3    H222637   4.849   6.153   4.185 -1.3136  0.4983  0.9973
  408TIP3   OH222638   5.187   0.992   3.318 -0.0488 -0.1417 -0.2888
  408TIP3    H122639   5.258   1.043   3.359  0.9475 -2.8712  1.5324
  408TIP3    H222640   5.200   1.004   3.224  2.2740  0.1702  0.0433
  409TIP3   OH222641   5.075   3.640   3.827  0.3805  0.2608  0.3731
  409TIP3    H122642   5.016   3.611   3.897 -1.0297 -1.0284 -1.2883
  409TIP3    H222643   5.020   3.693   3.770  0.8313 -0.8209 -1.1150
  410TIP3   OH222644   5.964   3.967   3.051  0.5392 -1.1387  0.6839
  410TIP3    H122645   5.946   3.913   2.975 -0.4843 -0.5881  0.5298
  410TIP3    H222646   6.033   4.027   3.022 -1.0517  0.2300 -0.3729
  411TIP3   OH222647   3.179   6.204  15.903 -0.3049  0.6933  0.2993
  411TIP3    H122648   3.258   6.232  15.856 -0.3602  1.5595  0.7238
  411TIP3    H222649   3.159   6.276  15.963 -1.6500  0.6451 -0.0798
  412TIP3   OH222650   0.401   5.951   0.671 -0.5941  0.1014  0.1379
  412TIP3    H122651   0.334   6.019   0.666 -0.1773  0.5253  0.2662
  412TIP3    H222652   0.384   5.906   0.754 -0.9770 -0.0666 -0.0312
  413TIP3   OH222653   3.360   1.550  13.754 -0.3544  0.1120 -0.0398
  413TIP3    H122654   3.264   1.552  13.748 -0.6111 -1.2753  2.6420
  413TIP3    H222655   3.386   1.477  13.699 -0.7941  0.6257 -0.9522
  414TIP3   OH222656   0.159   0.999  16.482 -0.2544 -0.0916 -0.0955
  414TIP3    H122657   0.247   0.962  16.489  0.1779  0.5631 -1.8645
  414TIP3    H222658   0.101   0.931  16.516  0.6400 -1.8766 -2.0788
  415TIP3   OH222659   2.607   6.561   1.114 -0.2028 -0.0014 -0.0267
  415TIP3    H122660   2.681   6.621   1.116  0.1410 -0.4049 -0.5554
  415TIP3    H222661   2.620   6.503   1.189 -0.0926  0.0656  0.0044
  416TIP3   OH222662   3.427   1.019  11.143 -0.4017  0.6379 -0.0936
  416TIP3    H122663   3.502   1.033  11.200 -0.4799 -0.6290  0.3462
  416TIP3    H222664   3.367   0.966  11.195 -0.5784 -0.3440 -1.2674
  417TIP3   OH222665   4.166   4.262  14.513 -0.1973  0.0665 -0.1342
  417TIP3    H122666   4.097   4.277  14.577  0.0474  1.3836 -0.1580
  417TIP3    H222667   4.247   4.265  14.563 -0.0164  0.8986 -0.4618
  418TIP3   OH222668   5.668   1.875   4.327  0.3157  0.4244  0.6573
  418TIP3    H122669   5.601   1.807   4.319  0.7291  0.0113  0.6785
  418TIP3    H222670   5.632   1.951   4.281 -0.9991  0.8324  2.2942
  419TIP3   OH222671   6.235   3.092   6.532 -0.0697 -0.8335 -0.2729
  419TIP3    H122672   6.203   3.014   6.577  0.1991  0.4149  2.1684
  419TIP3    H222673   6.156   3.133   6.497 -1.1084  1.4439  4.4505
  420TIP3   OH222674   0.185   3.409  11.325 -0.1091 -0.0549  0.6921
  420TIP3    H122675   0.090   3.402  11.313  0.0854 -1.2729 -0.2760
  420TIP3    H222676   0.220   3.403  11.236  0.7828  2.2425  0.8681
  421TIP3   OH222677   3.554   3.755   5.320 -0.9537 -0.2904  0.2282
  421TIP3    H122678   3.540   3.665   5.350  2.9048 -0.3619  2.1650
  421TIP3    H222679   3.509   3.809   5.385 -0.5891 -0.7503  0.8746
  422TIP3   OH222680   2.610   5.601  15.683 -0.5665  0.2341  0.1963
  422TIP3    H122681   2.666   5.629  15.756 -0.1292 -0.3313  0.0814
  422TIP3    H222682   2.522   5.603  15.719 -0.2540 -1.0626  1.0704
  423TIP3   OH222683   3.400   4.743   5.490  0.0490 -0.0829  0.6936
  423TIP3    H122684   3.334   4.799   5.449  1.1427  0.9416  0.3017
  423TIP3    H222685   3.397   4.662   5.440 -0.9886 -0.0913  0.7539
  424TIP3   OH222686   5.638   5.780   3.149 -0.1720 -0.4198  0.1320
  424TIP3    H122687   5.593   5.861   3.173 -0.3361 -0.4285 -0.1457
  424TIP3    H222688   5.680   5.751   3.231  0.7461  0.4908 -0.0015
  425TIP3   OH222689   5.711   2.514   3.906  1.1346 -0.0293  0.4806
  425TIP3    H122690   5.644   2.527   3.972  1.0240  2.1388 -0.0162
  425TIP3    H222691   5.788   2.560   3.941  2.0659 -1.6709  0.6065
  426TIP3   OH222692   6.240   2.854   2.632  1.2598  0.3441  0.0483
  426TIP3    H122693   6.310   2.895   2.683  0.8717  0.4298  0.5158
  426TIP3    H222694   6.252   2.760   2.646 -1.0884  0.4266  3.3816
  427TIP3   OH222695   2.529   1.763   3.888  0.1351  0.0487 -0.2968
  427TIP3    H122696   2.600   1.806   3.841 -0.6290  1.7686  0.0711
  427TIP3    H222697   2.558   1.758   3.979 -0.1770  0.6934 -0.1584
  428TIP3   OH222698   5.155   0.742   4.319  0.7261  0.4181 -1.2420
  428TIP3    H122699   5.146   0.804   4.392 -0.5460  0.3286 -1.3096
  428TIP3    H222700   5.198   0.792   4.250 -1.0868  1.5102 -1.6142
  429TIP3   OH222701   3.331   5.436  16.151  0.0560 -0.9535 -0.1263
  429TIP3    H122702   3.322   5.350  16.111  0.2182 -0.2851 -1.6149
  429TIP3    H222703   3.309   5.498  16.082  1.3727  0.2536  0.4906
  430TIP3   OH222704   1.403   0.570   4.186 -0.4510 -0.5535  0.0518
  430TIP3    H122705   1.465   0.615   4.243 -0.4085 -0.3344 -0.1620
  430TIP3    H222706   1.363   0.640   4.135 -0.8038 -0.7053  0.1217
  431TIP3   OH222707   2.764   2.978  10.910 -0.2712 -0.2159  0.0730
  431TIP3    H122708   2.759   3.074  10.907  0.4688 -0.2373 -2.3460
  431TIP3    H222709   2.849   2.957  10.871 -0.4149 -1.8752  0.5999
  432TIP3   OH222710   3.405   0.404   0.023 -0.3338  0.4780 -0.5320
  432TIP3    H122711   3.325   0.353   0.034 -1.1640  1.6121 -1.1431
  432TIP3    H222712   3.406   0.426  -0.071 -0.4329  2.2525 -0.1398
  433TIP3   OH222713   4.192   5.861  15.739  0.4612 -0.1008  0.1041
  433TIP3    H122714   4.187   5.778  15.788  0.4642  0.4840  1.1225
  433TIP3    H222715   4.195   5.835  15.647 -2.2771 -1.1340  0.2763
  434TIP3   OH222716   2.351   4.506   2.607  0.2264 -0.5942  0.4200
  434TIP3    H122717   2.392   4.571   2.549  1.5059  0.2975  2.2939
  434TIP3    H222718   2.341   4.552   2.690 -2.1133 -1.6851  0.7762
  435TIP3   OH222719   6.547   3.700  12.271  0.1645  0.8634  0.1305
  435TIP3    H122720   6.465   3.657  12.249  0.2480  0.5144  0.5044
  435TIP3    H222721   6.524   3.792  12.285 -0.1568  0.7660  0.2280
  436TIP3   OH222722   4.243   6.659   2.151  0.6290  0.5168 -0.6770
  436TIP3    H122723   4.248   6.608   2.071  0.9639  0.7538 -0.8088
  436TIP3    H222724   4.277   6.601   2.219  1.2152  0.6441 -0.8631
  437TIP3   OH222725   5.951   6.077   5.371 -0.0502  0.1212 -0.1378
  437TIP3    H122726   5.929   6.115   5.286  0.1968  1.7598  0.5148
  437TIP3    H222727   5.940   6.149   5.433  2.2754 -0.3567  0.8780
  438TIP3   OH222728   4.770   3.971   4.530 -0.0021  0.1066  0.3206
  438TIP3    H122729   4.712   3.940   4.599 -0.1013  0.1358  0.2491
  438TIP3    H222730   4.753   3.913   4.456  0.1492  0.0363  0.3406
  439TIP3   OH222731   0.430   3.667  17.176  0.0168  0.4133  0.5504
  439TIP3    H122732   0.447   3.725  17.250  0.0646  0.1392  0.7569
  439TIP3    H222733   0.510   3.615  17.167  0.3962  1.1378 -0.3330
  440TIP3   OH222734   1.184   3.729  13.216 -0.3149 -0.5920 -0.4235
  440TIP3    H122735   1.193   3.677  13.296  1.7994 -1.3992 -1.1681
  440TIP3    H222736   1.168   3.664  13.147  0.0294 -0.0671 -0.9980
  441TIP3   OH222737   3.444   6.084   3.991 -0.3022 -0.0624  0.5971
  441TIP3    H122738   3.427   6.167   3.946  2.1118 -0.1162 -0.4845
  441TIP3    H222739   3.442   6.106   4.084  3.3104  1.8539  0.2775
  442TIP3   OH222740   3.859   3.903   0.618  0.2134  0.0154  0.5448
  442TIP3    H122741   3.843   3.989   0.655 -0.3681  0.1203  0.0646
  442TIP3    H222742   3.920   3.861   0.679  2.0066  1.4522 -0.1936
  443TIP3   OH222743   2.577   5.058  13.628  0.1945  0.2643  0.6196
  443TIP3    H122744   2.640   5.111  13.676  1.3766 -1.1997  0.7224
  443TIP3    H222745   2.524   5.017  13.697  1.1110 -0.8888  0.6524
  444TIP3   OH222746   1.953   3.566   2.391 -0.6721  0.2596 -0.3283
  444TIP3    H122747   1.965   3.471   2.395 -0.7748  0.1350 -2.4329
  444TIP3    H222748   2.032   3.598   2.347 -1.8173  0.8708 -1.9655
  445TIP3   OH222749   4.760   5.095   1.382 -0.3017 -0.6253 -0.3706
  445TIP3    H122750   4.855   5.086   1.374 -0.1052  1.0905 -0.1600
  445TIP3    H222751   4.726   5.005   1.377  1.2880 -1.1980 -0.9571
  446TIP3   OH222752   4.427   0.862  12.372 -0.0141  0.1588  0.1378
  446TIP3    H122753   4.391   0.809  12.301 -0.1882 -0.2104  0.4989
  446TIP3    H222754   4.398   0.818  12.452  1.9087 -0.5895  0.4483
  447TIP3   OH222755   5.496   4.342   0.598 -0.4164 -0.3134  0.5149
  447TIP3    H122756   5.535   4.359   0.683  0.0064 -2.6810  0.8426
  447TIP3    H222757   5.408   4.379   0.604  0.7623  2.6038  0.7378
  448TIP3   OH222758   1.272   4.985  14.350 -0.7652  0.1583 -0.2813
  448TIP3    H122759   1.299   4.894  14.343  0.2684  0.5785 -1.9748
  448TIP3    H222760   1.199   4.994  14.289 -0.3291  0.6548 -0.7358
  449TIP3   OH222761   6.433   5.989  16.209  0.4196 -0.7960 -0.3012
  449TIP3    H122762   6.417   6.078  16.240 -0.0753 -0.5174 -1.3350
  449TIP3    H222763   6.388   5.933  16.272 -1.2565 -0.2025 -0.9451
  450TIP3   OH222764   4.012   2.739   3.532  0.2062 -0.0434 -0.3167
  450TIP3    H122765   4.002   2.665   3.592 -1.7289  0.3510 -0.1053
  450TIP3    H222766   4.053   2.808   3.584  0.0450 -0.2598  0.0987
  451TIP3   OH222767   3.839   6.086  15.582 -0.3265 -0.5206 -0.1064
  451TIP3    H122768   3.825   6.159  15.642  0.3472 -1.3218  1.0389
  451TIP3    H222769   3.905   6.117  15.521 -1.5534  0.5665 -0.9247
  452TIP3   OH222770   3.316   2.392  15.001  0.0669  0.2662 -0.1125
  452TIP3    H122771   3.234   2.344  15.012 -0.1022  0.4452 -0.5692
  452TIP3    H222772   3.306   2.438  14.917 -2.0613  5.5679  2.7896
  453TIP3   OH222773   4.284   2.544  14.901  0.1431 -0.4058  0.2218
  453TIP3    H122774   4.352   2.601  14.863 -0.6156  0.1390 -0.3371
  453TIP3    H222775   4.320   2.456  14.892  1.4367 -0.0205  1.3080
  454TIP3   OH222776   0.420   6.639  15.132  0.2449  0.4400  0.0738
  454TIP3    H122777   0.503   6.591  15.132  0.5019  0.8619  1.1105
  454TIP3    H222778   0.391   6.637  15.041  0.7487 -0.8154 -0.0733
  455TIP3   OH222779   2.416   6.640  12.273  0.5415 -0.3457  1.0101
  455TIP3    H122780   2.415   6.585  12.195 -2.4002 -0.3882  0.9938
  455TIP3    H222781   2.440   6.727  12.240  1.8798 -0.9146  0.4830
  456TIP3   OH222782   3.257   2.947   2.357 -0.6082 -0.1315  0.6717
  456TIP3    H122783   3.298   2.873   2.401 -0.8845 -0.8855 -0.2956
  456TIP3    H222784   3.235   3.009   2.427 -0.9122 -1.2317  1.5594
  457TIP3   OH222785   1.429   4.577  10.766  0.0682 -0.1572 -0.6011
  457TIP3    H122786   1.467   4.607  10.683 -1.4334 -0.9553 -1.5964
  457TIP3    H222787   1.374   4.650  10.794  2.1641  0.9475  0.7750
  458TIP3   OH222788   3.718   5.806  14.307  0.1052 -0.4826  0.3515
  458TIP3    H122789   3.730   5.771  14.219 -0.1453 -0.6076  0.3648
  458TIP3    H222790   3.642   5.758  14.341  0.9422 -1.3112  1.0892
  459TIP3   OH222791   1.113   6.173   5.836  0.2563 -0.2059  0.2056
  459TIP3    H122792   1.047   6.185   5.905  0.5758  1.7636  0.1775
  459TIP3    H222793   1.062   6.146   5.760 -0.1325 -2.0928  1.1050
  460TIP3   OH222794   5.945   0.394  16.970  0.1786  0.1378 -0.3210
  460TIP3    H122795   6.003   0.327  16.933  0.2276  0.0004 -0.0007
  460TIP3    H222796   5.988   0.420  17.052 -1.2302 -1.4341  0.9638
  461TIP3   OH222797   1.756   6.525   1.413 -0.4528  0.1059  0.0010
  461TIP3    H122798   1.680   6.578   1.387  0.1195  1.8865  1.8433
  461TIP3    H222799   1.723   6.468   1.482  0.0475  1.4192  1.3391
  462TIP3   OH222800   3.054   0.640   4.748  0.1332  0.1269  0.2242
  462TIP3    H122801   3.096   0.711   4.797  0.3636 -0.5567  1.0320
  462TIP3    H222802   2.975   0.620   4.799  0.0682 -0.1996 -0.0065
  463TIP3   OH222803   3.639   4.331   0.577 -0.0579  0.4589 -0.5896
  463TIP3    H122804   3.546   4.348   0.560 -0.9820 -2.9927  0.6297
  463TIP3    H222805   3.658   4.251   0.528  1.5248 -0.4018  1.3616
  464TIP3   OH222806   3.892   4.154   1.006  0.1588  0.3988  0.2098
  464TIP3    H122807   3.824   4.130   0.944  2.1099 -2.1250 -1.0589
  464TIP3    H222808   3.926   4.237   0.973 -0.4856  0.3253 -0.6726
  465TIP3   OH222809   1.909   5.323   4.107 -0.1891 -0.3310  0.0133
  465TIP3    H122810   1.876   5.335   4.018 -1.8508 -0.6908  0.5697
  465TIP3    H222811   1.967   5.247   4.101 -0.6873 -0.6584 -0.6663
  466TIP3   OH222812   4.859   3.055  16.478 -0.4089 -0.1625  0.5689
  466TIP3    H122813   4.801   3.075  16.551 -0.0058 -1.4787  1.2583
  466TIP3    H222814   4.938   3.019  16.518 -0.3823 -1.3829 -0.5214
  467TIP3   OH222815   5.441   0.189  16.156  0.4891 -0.3759  0.2885
  467TIP3    H122816   5.408   0.268  16.199  1.9823 -0.0538  0.8557
  467TIP3    H222817   5.498   0.148  16.221  0.2641 -1.5665 -0.2546
  468TIP3   OH222818   6.293   1.776  13.490 -0.4389 -0.2814 -0.1624
  468TIP3    H122819   6.318   1.849  13.546 -0.7369 -0.4757  0.2265
  468TIP3    H222820   6.220   1.735  13.536 -1.4030  0.2142 -1.2343
  469TIP3   OH222821   0.172   1.279  11.366  0.4861 -0.1486 -0.1453
  469TIP3    H122822   0.181   1.204  11.307  0.3422  0.1579 -0.5544
  469TIP3    H222823   0.209   1.248  11.449  0.9932 -0.4665 -0.4871
  470TIP3   OH222824   4.405   4.103  11.522 -0.5332 -0.0505  0.8578
  470TIP3    H122825   4.463   4.070  11.590 -0.3935  0.9191  1.2123
  470TIP3    H222826   4.458   4.102  11.443 -0.0944  0.6503  1.1438
  471TIP3   OH222827   1.946   6.173  11.185 -0.2455  0.3684 -0.3070
  471TIP3    H122828   1.907   6.239  11.242  0.0160 -1.1348  1.6710
  471TIP3    H222829   1.873   6.133  11.139 -0.6481  0.2452  0.4457
  472TIP3   OH222830   0.304   2.312   2.835 -0.2638  0.2524  0.2492
  472TIP3    H122831   0.241   2.241   2.818  0.0796 -0.1256  0.5373
  472TIP3    H222832   0.311   2.314   2.931 -0.3266  0.7284  0.2469
  473TIP3   OH222833   6.392   4.712   3.127 -0.0659 -0.3186  0.7281
  473TIP3    H122834   6.354   4.714   3.039  1.1452 -3.1759  0.0959
  473TIP3    H222835   6.362   4.629   3.165  0.1482  0.4668  2.7009
  474TIP3   OH222836   2.968   4.805  13.226 -0.7634 -0.7256  0.7534
  474TIP3    H122837   3.052   4.849  13.237 -1.1457  0.6507 -1.4110
  474TIP3    H222838   2.905   4.876  13.214 -1.5709 -1.7686 -1.6474
  475TIP3   OH222839   0.489   2.650   4.431  0.5776 -0.2156  0.3557
  475TIP3    H122840   0.411   2.699   4.404  1.5445  1.0947 -0.1083
  475TIP3    H222841   0.460   2.597   4.505 -0.8200  0.0411  0.0054
  476TIP3   OH222842   3.075   6.571  15.335 -0.0070  0.1036  0.3595
  476TIP3    H122843   3.054   6.631  15.406 -2.1650  1.9353 -1.7386
  476TIP3    H222844   3.168   6.587  15.318  0.7500 -0.9221  3.2034
  477TIP3   OH222845   2.022   5.602   4.495  0.4026 -0.2410 -0.1824
  477TIP3    H122846   2.101   5.617   4.444  1.0669  0.3906  1.0019
  477TIP3    H222847   2.022   5.672   4.560 -1.3666  0.0211 -0.4511
  478TIP3   OH222848   2.474   4.427  11.316  0.7121 -0.1089  0.1000
  478TIP3    H122849   2.468   4.519  11.340  1.1424 -0.3605  1.2191
  478TIP3    H222850   2.409   4.383  11.372 -0.2627 -0.3481 -1.1990
  479TIP3   OH222851   3.640   1.000  17.011  0.4926  0.0595  0.1313
  479TIP3    H122852   3.555   1.029  17.044  0.6235 -0.7718  1.2423
  479TIP3    H222853   3.696   1.076  17.018 -0.0146  0.4577 -0.0854
  480TIP3   OH222854   1.013   5.943  14.892 -0.2293  0.2659 -0.7944
  480TIP3    H122855   0.992   5.880  14.823 -1.2773 -0.8879  0.5526
  480TIP3    H222856   1.058   6.014  14.846 -3.8726  1.1437 -3.2347
  481TIP3   OH222857   0.550   0.385  12.827 -0.6058  0.6173 -0.4313
  481TIP3    H122858   0.463   0.365  12.792 -1.0099  0.6345  0.5577
  481TIP3    H222859   0.609   0.373  12.752 -1.2600 -0.8891 -0.7189
  482TIP3   OH222860   3.130   1.362   1.669  0.2099 -0.0016 -0.5513
  482TIP3    H122861   3.205   1.306   1.690 -0.4316 -1.0502 -0.9915
  482TIP3    H222862   3.151   1.402   1.585  1.3843  1.7033  0.5318
  483TIP3   OH222863   0.410   2.663   2.694  0.1097  0.2131  0.3988
  483TIP3    H122864   0.344   2.727   2.665 -0.8432 -2.0352 -2.6560
  483TIP3    H222865   0.483   2.676   2.634 -0.9725 -2.9794 -1.7222
  484TIP3   OH222866   5.310   1.978   5.327 -0.1438 -0.2806  0.2372
  484TIP3    H122867   5.305   2.054   5.269 -0.3737 -1.0661 -0.7908
  484TIP3    H222868   5.330   2.015   5.413  0.9844  0.8330 -0.4802
  485TIP3   OH222869   6.481   5.560   2.010  0.5862 -0.4812  0.1409
  485TIP3    H122870   6.520   5.539   2.095 -0.0631  1.1706  0.8794
  485TIP3    H222871   6.547   5.534   1.946  2.0998  0.4387  1.2766
  486TIP3   OH222872   4.240   4.037  11.253  0.4365 -0.2959 -0.2061
  486TIP3    H122873   4.274   3.947  11.251  0.5003 -0.2583 -1.2487
  486TIP3    H222874   4.183   4.040  11.330 -0.3915 -1.5379 -0.7511
  487TIP3   OH222875   4.407   2.893   1.840 -0.0637 -0.4061 -0.1501
  487TIP3    H122876   4.370   2.864   1.923 -1.6230 -0.6002 -0.9011
  487TIP3    H222877   4.336   2.939   1.795  0.9982  0.4557 -1.0227
  488TIP3   OH222878   2.199   1.323   5.376  0.2143  0.6635  0.4457
  488TIP3    H122879   2.158   1.263   5.438 -0.0682  0.2771 -0.1014
  488TIP3    H222880   2.128   1.347   5.316  0.8736 -0.3487 -0.7711
  489TIP3   OH222881   5.948   1.101  12.201  0.8282 -0.0582  0.5290
  489TIP3    H122882   5.878   1.112  12.265  1.5592  0.0885  1.3045
  489TIP3    H222883   5.940   1.176  12.142  0.1439 -0.2078  0.4299
  490TIP3   OH222884   2.872   2.683   4.641  0.4940 -0.1711 -0.5230
  490TIP3    H122885   2.882   2.762   4.587 -1.9103 -0.4313 -1.4046
  490TIP3    H222886   2.814   2.710   4.713 -0.3737 -1.1211 -0.8559
  491TIP3   OH222887   4.893   5.129  12.222  0.0302 -0.1682  0.3860
  491TIP3    H122888   4.866   5.038  12.211  0.3093 -0.1705 -0.2713
  491TIP3    H222889   4.881   5.169  12.136  1.2879  0.0452  0.3015
  492TIP3   OH222890   3.884   1.861  16.742  0.1647  0.2541  0.2482
  492TIP3    H122891   3.929   1.924  16.685 -0.8584 -0.6763 -1.6236
  492TIP3    H222892   3.876   1.907  16.826  1.7714  1.6206 -0.3106
  493TIP3   OH222893   6.127   3.661  14.130  0.5694  0.5047 -0.4280
  493TIP3    H122894   6.132   3.756  14.128 -2.0491  0.6848 -1.7928
  493TIP3    H222895   6.108   3.639  14.221 -0.4153  1.4201 -0.4062
  494TIP3   OH222896   2.886   4.876   1.499  0.2274  0.2149  0.3602
  494TIP3    H122897   2.841   4.862   1.416 -1.7370 -1.7136  1.6897
  494TIP3    H222898   2.908   4.969   1.500  1.2100  0.0470 -2.7600
  495TIP3   OH222899   6.367   1.024  12.631 -0.3934  0.6851 -0.1492
  495TIP3    H122900   6.400   0.999  12.717 -0.0657  0.8133 -0.2369
  495TIP3    H222901   6.290   1.079  12.650 -0.5122  0.4472  0.0533
  496TIP3   OH222902   5.732   0.126  15.654 -0.2917 -0.5228  0.0369
  496TIP3    H122903   5.671   0.155  15.722 -0.2572 -1.2979  0.4131
  496TIP3    H222904   5.768   0.206  15.617 -0.5128 -0.0880  0.7605
  497TIP3   OH222905   3.684   1.163   3.178  0.0968 -0.2010  0.3157
  497TIP3    H122906   3.652   1.183   3.267  0.2337 -2.4420  0.8886
  497TIP3    H222907   3.620   1.101   3.143 -0.1044  0.8802 -1.2759
  498TIP3   OH222908   2.528   3.567  12.284  0.1969  0.4202 -0.4751
  498TIP3    H122909   2.570   3.650  12.308  1.4788 -0.3107 -0.1498
  498TIP3    H222910   2.465   3.591  12.217  0.0364  1.7755  0.1417
  499TIP3   OH222911   5.291   0.499  12.949 -0.0013 -0.0089 -0.0639
  499TIP3    H122912   5.196   0.501  12.942  0.0218 -2.7218 -2.0276
  499TIP3    H222913   5.309   0.470  13.039 -1.0113  0.6435  0.3488
  500TIP3   OH222914   1.311   3.649   2.384  0.1979  0.8212 -0.3136
  500TIP3    H122915   1.289   3.556   2.376  0.1113  0.8516 -0.4309
  500TIP3    H222916   1.359   3.670   2.304  0.7517  0.7296 -0.0076
  501TIP3   OH222917   4.967   1.358   6.062  0.9963  0.3778  0.5079
  501TIP3    H122918   4.873   1.378   6.071  0.3043 -1.3834 -2.2817
  501TIP3    H222919   4.997   1.414   5.990  1.3847 -1.1672 -0.5569
  502TIP3   OH222920   4.708   1.343  15.261 -0.3286  0.4164 -0.6174
  502TIP3    H122921   4.660   1.412  15.307  0.6905 -0.7021  2.2260
  502TIP3    H222922   4.762   1.390  15.197 -0.8038  2.1379  0.2196
  503TIP3   OH222923   3.557   0.784  13.533  0.4242  0.3854 -0.3775
  503TIP3    H122924   3.601   0.706  13.565 -1.4908 -0.9876 -1.0177
  503TIP3    H222925   3.596   0.856  13.583 -0.3807 -1.3734  2.8994
  504TIP3   OH222926   5.648   3.701   3.454  0.1449 -0.2433 -0.2885
  504TIP3    H122927   5.730   3.697   3.504  0.1419 -1.0682 -0.3489
  504TIP3    H222928   5.676   3.721   3.364  0.1801  0.8176 -0.0506
  505TIP3   OH222929   2.113   0.317   3.238 -0.4953 -0.2775 -0.0033
  505TIP3    H122930   2.204   0.288   3.239 -0.4561 -0.1496  0.0709
  505TIP3    H222931   2.116   0.410   3.257 -0.6090 -0.1742 -0.4930
  506TIP3   OH222932   0.542   3.720   0.741  0.3437  0.3016 -0.0056
  506TIP3    H122933   0.493   3.762   0.671 -0.2941 -0.2796  0.0909
  506TIP3    H222934   0.602   3.660   0.696 -0.4779 -0.5045 -0.0241
  507TIP3   OH222935   3.376   6.615   2.418  0.5026  0.3098  0.2765
  507TIP3    H122936   3.411   6.658   2.340  0.0526  0.0096 -0.0981
  507TIP3    H222937   3.302   6.563   2.385  1.6080 -1.4880  0.5777
  508TIP3   OH222938   2.733   6.386  12.631 -0.0061  0.0288 -0.1154
  508TIP3    H122939   2.672   6.389  12.557  0.2246 -0.2082 -0.3134
  508TIP3    H222940   2.696   6.319  12.689  0.4955 -0.6986 -0.6184
  509TIP3   OH222941   6.574   6.083   4.110  0.2528  0.3459 -0.0223
  509TIP3    H122942   6.608   6.167   4.078  2.9167 -1.0159 -0.9185
  509TIP3    H222943   6.600   6.020   4.043 -2.1107 -1.1612  0.4146
  510TIP3   OH222944   2.645   1.652  11.609 -0.5854 -0.0727 -0.1332
  510TIP3    H122945   2.708   1.597  11.564  0.1167  0.1956  0.5124
  510TIP3    H222946   2.572   1.662  11.547  0.0212 -0.3516 -0.8870
  511TIP3   OH222947   0.695   3.357  11.744 -0.4090  0.3211  0.0372
  511TIP3    H122948   0.663   3.324  11.828 -2.3615 -1.1605 -1.2497
  511TIP3    H222949   0.671   3.290  11.680  1.6320  1.1011 -1.6399
  512TIP3   OH222950   2.420   1.311   4.421 -0.4194 -0.4723 -0.3354
  512TIP3    H122951   2.335   1.283   4.386 -0.4692  1.2283 -1.6721
  512TIP3    H222952   2.417   1.287   4.513 -2.5803  0.0426 -0.2352
  513TIP3   OH222953   4.831   6.240   5.906 -0.0627 -0.0420 -0.3875
  513TIP3    H122954   4.804   6.324   5.943  0.1359 -0.5780  0.9875
  513TIP3    H222955   4.925   6.249   5.894 -0.2080  0.3235 -1.2654
  514TIP3   OH222956   4.632   3.927   0.883  0.1441 -0.4475  0.0629
  514TIP3    H122957   4.699   3.967   0.828  0.1213 -1.0680 -0.4288
  514TIP3    H222958   4.593   4.000   0.931  0.8686 -0.0327  0.0192
  515TIP3   OH222959   6.786   6.207   3.535 -0.2221  0.8005  0.6273
  515TIP3    H122960   6.754   6.133   3.586  2.1101 -1.3385 -0.8738
  515TIP3    H222961   6.714   6.229   3.477  0.5517 -3.3957 -2.1608
  516TIP3   OH222962   1.824   2.699  13.406 -0.5554  0.5574  0.9230
  516TIP3    H122963   1.903   2.750  13.423 -0.0664  0.2877 -0.4159
  516TIP3    H222964   1.760   2.730  13.470 -0.0857  2.4254  0.5155
  517TIP3   OH222965   0.978   2.564  15.596  0.3637 -0.3785  0.2607
  517TIP3    H122966   1.073   2.561  15.595  0.3893 -0.0032  1.0629
  517TIP3    H222967   0.951   2.473  15.605  0.6575 -0.4385  0.5367
  518TIP3   OH222968   6.445   1.348   4.719  0.1328 -0.5972 -0.0829
  518TIP3    H122969   6.428   1.418   4.782 -2.1388 -1.0664 -0.1190
  518TIP3    H222970   6.418   1.385   4.634 -0.7308 -1.3695 -0.1549
  519TIP3   OH222971   6.044   3.859   0.465  0.0064  0.3183 -0.1172
  519TIP3    H122972   6.106   3.836   0.396  0.3420 -0.2144  0.3512
  519TIP3    H222973   6.072   3.944   0.497  1.3480 -0.5350  1.0357
  520TIP3   OH222974   3.696   2.429   3.805  0.3896  0.1208  0.5421
  520TIP3    H122975   3.626   2.364   3.808 -0.2938  0.7966 -0.3703
  520TIP3    H222976   3.777   2.377   3.806 -0.1414 -0.7155  0.4453
  521TIP3   OH222977   5.327   1.754  16.092  0.1678 -0.1132  0.3551
  521TIP3    H122978   5.347   1.743  16.185 -0.4951 -0.4436  0.4588
  521TIP3    H222979   5.413   1.752  16.049  0.3738 -1.5099  0.8025
  522TIP3   OH222980   3.868   4.585  13.121  0.1637  0.5781 -0.3795
  522TIP3    H122981   3.784   4.592  13.075  0.7557  0.9510 -1.4235
  522TIP3    H222982   3.900   4.498  13.101  1.3368  1.4229 -2.2986
  523TIP3   OH222983   4.011   5.002   0.307 -0.3346  0.4181 -0.6406
  523TIP3    H122984   3.952   5.075   0.328 -0.6904 -0.6152  2.0481
  523TIP3    H222985   3.963   4.924   0.335  1.6883 -0.5498  0.1787
  524TIP3   OH222986   4.626   4.378   1.080  0.4090 -0.3358 -0.0868
  524TIP3    H122987   4.708   4.329   1.078  0.0011 -1.1407  1.4420
  524TIP3    H222988   4.585   4.360   0.996  0.8679 -1.5979 -0.0546
  525TIP3   OH222989   3.956   1.653  11.803 -0.2374 -0.8384 -0.1240
  525TIP3    H122990   4.047   1.625  11.797  0.6703  1.9541  0.1542
  525TIP3    H222991   3.948   1.724  11.739 -2.4536 -1.5769 -0.7302
  526TIP3   OH222992   4.468   1.557   0.041  0.0991 -0.0494 -0.1304
  526TIP3    H122993   4.379   1.547   0.006 -0.4142 -0.2344  1.1892
  526TIP3    H222994   4.455   1.563   0.135  1.4178  0.9581 -0.0075
  527TIP3   OH222995   0.515   5.052  12.125  0.1521 -0.2209  0.2227
  527TIP3    H122996   0.558   5.122  12.077 -0.2246 -0.1556 -0.0199
  527TIP3    H222997   0.499   5.089  12.212 -1.6834  0.6313 -0.4545
  528TIP3   OH222998   2.965   4.841   5.217  0.4493  0.4555 -0.4978
  528TIP3    H122999   2.958   4.935   5.236  0.4567  0.6189 -1.3030
  528TIP3    H223000   2.924   4.831   5.131  1.7244 -0.0500 -1.0495
  529TIP3   OH223001   1.703   5.657  10.766 -0.3191 -0.1756 -0.0716
  529TIP3    H123002   1.731   5.748  10.755  3.0444 -1.3008 -1.2460
  529TIP3    H223003   1.608   5.660  10.754 -0.3504  3.2409  0.4875
  530TIP3   OH223004   6.519   4.154   0.222  0.0984 -0.6132  0.3868
  530TIP3    H123005   6.446   4.156   0.160  1.2213 -1.5877 -0.9814
  530TIP3    H223006   6.512   4.068   0.263  1.5842 -1.4788 -1.1181
  531TIP3   OH223007   0.813   5.323  14.200 -0.3700  0.2226  0.1150
  531TIP3    H123008   0.792   5.361  14.115 -0.1446 -1.0641 -0.5380
  531TIP3    H223009   0.729   5.291  14.234 -0.3186 -0.1015 -0.0569
  532TIP3   OH223010   0.637   0.033  11.204 -0.6546 -1.0421 -0.3363
  532TIP3    H123011   0.722   0.069  11.180 -1.1153 -0.3312 -0.9509
  532TIP3    H223012   0.636  -0.055  11.166 -1.2836 -0.0159 -2.7912
  533TIP3   OH223013   6.348   2.105   5.472 -0.1327 -0.1177  0.0432
  533TIP3    H123014   6.441   2.112   5.491 -0.1225 -0.2353  0.0410
  533TIP3    H223015   6.310   2.186   5.504  0.0208  0.0791 -0.2681
  534TIP3   OH223016   4.322   3.360   0.886  0.6140  0.4192  0.3266
  534TIP3    H123017   4.318   3.397   0.975 -1.2029 -0.1987  0.5300
  534TIP3    H223018   4.385   3.415   0.840 -0.1141  2.1918  1.3717
  535TIP3   OH223019   6.153   4.823  13.012 -0.1590 -0.0066 -0.2035
  535TIP3    H123020   6.090   4.799  13.080  1.8284 -0.4217  1.5441
  535TIP3    H223021   6.102   4.873  12.948 -2.2933 -0.5650  1.0252
  536TIP3   OH223022   6.329   2.424  11.855 -0.1752 -0.1391  0.1096
  536TIP3    H123023   6.323   2.350  11.794  2.6939 -1.3343  1.2031
  536TIP3    H223024   6.324   2.383  11.941  0.1569  1.0988  0.7157
  537TIP3   OH223025   0.878   5.715   1.585  0.3959  0.1965  0.0992
  537TIP3    H123026   0.950   5.778   1.592 -0.7487  1.8160 -1.9538
  537TIP3    H223027   0.806   5.756   1.633 -0.1911  0.1920 -0.7721
  538TIP3   OH223028   6.761   5.653   4.735 -0.7968  0.2751 -0.4110
  538TIP3    H123029   6.675   5.617   4.713  0.4690 -1.4624 -2.7297
  538TIP3    H223030   6.787   5.702   4.657  0.5857  0.2733  0.0308
  539TIP3   OH223031   6.398   1.197  14.950 -0.3194 -0.1773  0.1549
  539TIP3    H123032   6.345   1.212  15.028 -0.3190 -1.1757  0.3592
  539TIP3    H223033   6.466   1.265  14.953 -1.0390  0.5340  0.3758
  540TIP3   OH223034   3.128   4.862  16.058  0.2537 -0.0505  0.1880
  540TIP3    H123035   3.062   4.923  16.025  0.4461 -0.0032 -0.1142
  540TIP3    H223036   3.092   4.775  16.040  0.7736 -0.0353 -1.0300
  541TIP3   OH223037   4.735   4.645   5.465 -0.5801  0.5041 -0.5725
  541TIP3    H123038   4.814   4.600   5.496 -1.2362 -0.5859 -0.4576
  541TIP3    H223039   4.764   4.735   5.448  0.0362  0.8498  2.1202
  542TIP3   OH223040   2.179   1.605   4.049 -0.2737  0.0210 -0.2551
  542TIP3    H123041   2.253   1.578   3.994 -0.7453 -0.3139 -0.7264
  542TIP3    H223042   2.171   1.535   4.114 -0.4354 -0.1435 -0.4527
  543TIP3   OH223043   1.443   2.519   1.153  0.0124 -0.4558  0.2389
  543TIP3    H123044   1.410   2.450   1.096 -1.8408  0.4645  0.1572
  543TIP3    H223045   1.452   2.477   1.239  0.8705 -1.3084 -0.2505
  544TIP3   OH223046   0.539   2.558  16.854  0.0467 -0.7669  0.2601
  544TIP3    H123047   0.491   2.532  16.775  0.7434  0.8499 -0.7076
  544TIP3    H223048   0.514   2.649  16.869 -0.2320 -1.1217  2.0355
  545TIP3   OH223049   4.114   1.733   4.696  0.0580  0.1923 -0.7546
  545TIP3    H123050   4.064   1.681   4.633  0.5508 -0.2051 -0.8137
  545TIP3    H223051   4.148   1.806   4.645 -0.4805  0.4784 -0.7091
  546TIP3   OH223052   2.937   0.164  15.129  0.6719  0.0657 -0.0831
  546TIP3    H123053   2.968   0.237  15.076 -0.2250  0.4569 -0.0852
  546TIP3    H223054   2.850   0.192  15.159  1.0932 -0.2340  1.4280
  547TIP3   OH223055   1.320   1.260   0.990  0.6930 -0.4992  0.0418
  547TIP3    H123056   1.242   1.259   1.045  0.3003 -0.0400 -0.5014
  547TIP3    H223057   1.354   1.171   0.995  0.7973 -0.4032  1.2167
  548TIP3   OH223058   4.657   0.669   0.976 -0.2117 -0.5609 -0.6865
  548TIP3    H123059   4.563   0.651   0.985 -0.6588  0.8037 -2.2984
  548TIP3    H223060   4.698   0.583   0.968 -1.2198 -1.2082  0.7977
  549TIP3   OH223061   3.446   1.616  14.748 -0.1081  0.1659  0.5393
  549TIP3    H123062   3.521   1.568  14.783  1.1888  2.3608  0.8350
  549TIP3    H223063   3.460   1.706  14.775 -1.3337  1.1428 -1.9271
  550TIP3   OH223064   3.911   4.802   1.484 -0.5755 -0.0237 -0.3676
  550TIP3    H123065   3.906   4.893   1.512 -0.6121  0.1757 -1.0172
  550TIP3    H223066   3.823   4.781   1.451 -1.0845 -0.8445  1.4277
  551TIP3   OH223067   0.766   2.290  14.073  0.2222  0.0855  0.3922
  551TIP3    H123068   0.753   2.216  14.014 -0.9237  0.4148  0.2182
  551TIP3    H223069   0.825   2.257  14.140 -0.5071 -1.0728  0.4784
  552TIP3   OH223070   4.591   2.303  15.051  0.4493 -0.0332 -0.1255
  552TIP3    H123071   4.502   2.271  15.068  0.8965 -0.3601  1.6426
  552TIP3    H223072   4.626   2.242  14.986  0.1968 -1.3227  0.9143
  553TIP3   OH223073   4.268   4.781   4.176 -0.0785  0.6485  0.3827
  553TIP3    H123074   4.286   4.805   4.267 -2.7116 -0.1335  1.1352
  553TIP3    H223075   4.173   4.770   4.172  0.1622 -0.8386 -2.0993
  554TIP3   OH223076   3.899   5.530  14.269 -0.2550  0.0499 -0.2717
  554TIP3    H123077   3.812   5.518  14.307 -0.6828  1.8857 -0.6153
  554TIP3    H223078   3.908   5.458  14.207 -0.7593 -1.2420  1.1229
  555TIP3   OH223079   4.708   2.223   4.111  0.3815  0.0247 -0.2413
  555TIP3    H123080   4.777   2.253   4.170  0.9181 -1.2860 -0.1791
  555TIP3    H223081   4.747   2.148   4.065 -1.2980 -1.3008  0.4352
  556TIP3   OH223082   4.503   0.495   5.080  0.0996 -0.3018 -0.1083
  556TIP3    H123083   4.411   0.504   5.104 -0.0397  1.5547 -1.3105
  556TIP3    H223084   4.516   0.555   5.006  2.3210 -0.3768  0.1707
  557TIP3   OH223085   0.416   3.862   5.022 -0.6521 -0.5216  0.9778
  557TIP3    H123086   0.467   3.936   4.989 -0.9136 -0.7311  0.0951
  557TIP3    H223087   0.474   3.787   5.012 -1.4591 -0.9117 -0.8952
  558TIP3   OH223088   0.495   5.587  13.788  1.1278  0.1665  0.5036
  558TIP3    H123089   0.404   5.615  13.787  0.8084 -0.8441  0.5520
  558TIP3    H223090   0.514   5.561  13.698  2.3024  3.2542 -0.1958
  559TIP3   OH223091   0.244   1.966  14.276  0.4116 -0.0501  0.1514
  559TIP3    H123092   0.164   1.968  14.222 -0.2797  1.5239  1.2001
  559TIP3    H223093   0.212   1.956  14.366  1.3104  1.9265  0.7122
  560TIP3   OH223094   4.688   1.724  15.235  0.3053  0.1381  0.4887
  560TIP3    H123095   4.630   1.663  15.280  0.5997 -1.5762 -1.4006
  560TIP3    H223096   4.630   1.778  15.182  0.3252 -0.9205 -0.6318
  561TIP3   OH223097   1.041   4.422  14.956 -0.1889  0.2274 -0.5686
  561TIP3    H123098   1.111   4.419  14.891  0.7417  1.6152  0.3396
  561TIP3    H223099   1.066   4.355  15.020  0.2468  0.6161 -0.3240
  562TIP3   OH223100   4.008   0.803   1.193  0.0997  0.0724  0.0490
  562TIP3    H123101   4.069   0.729   1.188  1.0457  0.5799  3.1125
  562TIP3    H223102   3.922   0.762   1.203  0.3271 -0.6100 -0.6780
  563TIP3   OH223103   3.634   0.953  16.689 -0.3624  0.2502 -0.5884
  563TIP3    H123104   3.568   0.967  16.757  0.5324  0.2754  0.2795
  563TIP3    H223105   3.629   0.860  16.670  0.5903 -0.0727  0.7525
  564TIP3   OH223106   5.153   0.522   1.770 -0.2937 -0.0835  0.5438
  564TIP3    H123107   5.171   0.503   1.678 -0.0266  1.2557  0.3128
  564TIP3    H223108   5.217   0.469   1.818  1.0743  0.9281 -0.1220
  565TIP3   OH223109   2.044   4.771   2.423  0.0730  0.3422 -0.0344
  565TIP3    H123110   2.138   4.770   2.408  0.5649  0.8124  2.7034
  565TIP3    H223111   2.023   4.864   2.435 -0.7773  0.2559 -0.8205
  566TIP3   OH223112   1.849   0.603  16.027  0.0585 -0.2427 -0.0024
  566TIP3    H123113   1.872   0.561  16.110 -0.7807  0.5438  0.6219
  566TIP3    H223114   1.907   0.560  15.963  1.1257 -0.4408  1.0673
  567TIP3   OH223115   5.042   3.378   0.985 -0.2886  0.0367  0.5737
  567TIP3    H123116   5.022   3.285   0.975 -0.4583  0.1083  0.2488
  567TIP3    H223117   5.115   3.380   1.048  1.3278 -0.4751 -1.2541
  568TIP3   OH223118   3.676   3.503  16.588  0.3611  0.5988  0.1000
  568TIP3    H123119   3.661   3.514  16.494  1.2849  0.9511 -0.0076
  568TIP3    H223120   3.727   3.423  16.595  1.2620  1.1747  0.2109
  569TIP3   OH223121   1.236   4.200   5.608 -0.4394  0.8375 -0.0740
  569TIP3    H123122   1.160   4.203   5.551 -0.5870 -2.1818 -0.1078
  569TIP3    H223123   1.202   4.169   5.692  0.6972 -0.4463 -0.0603
  570TIP3   OH223124   5.435   4.534  15.354 -0.2816  0.0092  0.7380
  570TIP3    H123125   5.436   4.571  15.266 -0.1285 -0.4536  0.5456
  570TIP3    H223126   5.447   4.440  15.341 -0.7315 -0.1177  1.2232
  571TIP3   OH223127   5.634   3.817  11.897  0.3183 -0.3668  0.0429
  571TIP3    H123128   5.606   3.804  11.988 -0.2467  0.3749 -0.0220
  571TIP3    H223129   5.631   3.729  11.859  1.5696 -0.8598  1.0178
  572TIP3   OH223130   3.226   4.409   4.319  0.0988  0.7274  0.1968
  572TIP3    H123131   3.315   4.429   4.348  0.4536 -0.2961 -0.1464
  572TIP3    H223132   3.170   4.466   4.371  0.9229  0.9603  0.8341
  573TIP3   OH223133   0.464   6.239   2.693 -0.2782 -0.0955 -0.0952
  573TIP3    H123134   0.492   6.330   2.692  2.7326 -0.9369 -0.0066
  573TIP3    H223135   0.442   6.222   2.784  1.9014 -0.1595  0.4640
  574TIP3   OH223136   6.354   4.128  15.355  0.2811 -0.2512  0.0868
  574TIP3    H123137   6.427   4.174  15.314  0.1698 -0.3254 -0.1976
  574TIP3    H223138   6.285   4.194  15.360  0.2371 -0.2890 -0.0053
  575TIP3   OH223139   3.507   3.332  16.732  0.0928  0.3629 -0.2001
  575TIP3    H123140   3.553   3.415  16.725 -0.8051  0.9223  0.3531
  575TIP3    H223141   3.448   3.331  16.656  0.7224 -0.1693 -0.6843
  576TIP3   OH223142   5.239   3.621   0.535 -0.3587  0.2771 -0.4940
  576TIP3    H123143   5.217   3.551   0.474 -2.8326  1.8036 -1.4524
  576TIP3    H223144   5.205   3.591   0.619 -0.4124 -0.1405 -0.6620
  577TIP3   OH223145   2.321   5.077   3.630 -0.2122 -0.0306  0.8867
  577TIP3    H123146   2.280   5.109   3.550 -0.7072  0.7337  1.4349
  577TIP3    H223147   2.310   5.149   3.693 -0.3003 -0.8169  1.7845
  578TIP3   OH223148   2.468   2.662   2.583 -0.5023  0.3930 -0.5586
  578TIP3    H123149   2.539   2.684   2.643  0.9646 -0.3846 -1.9799
  578TIP3    H223150   2.447   2.745   2.539 -1.5242  0.9483  0.9158
  579TIP3   OH223151   1.632   6.068   6.245  0.0010  0.0315 -0.1493
  579TIP3    H123152   1.546   6.079   6.204  0.1578 -1.0656 -0.7817
  579TIP3    H223153   1.623   5.989   6.298  0.7208 -0.2741 -0.4836
  580TIP3   OH223154   1.278   5.604  12.732  0.5087 -0.3890 -0.0566
  580TIP3    H123155   1.352   5.544  12.744 -0.2127 -1.4432 -0.7532
  580TIP3    H223156   1.256   5.596  12.639 -1.2236 -0.9642  0.3855
  581TIP3   OH223157   4.439   1.350  17.065 -0.1481 -0.4806 -0.3704
  581TIP3    H123158   4.436   1.434  17.020 -0.3298  0.3358  1.1256
  581TIP3    H223159   4.370   1.298  17.024 -0.4362  0.3157 -0.9086
  582TIP3   OH223160   3.389   1.504   0.132  1.0661 -0.0083  0.1628
  582TIP3    H123161   3.347   1.527   0.049  0.1438 -0.5945  0.4512
  582TIP3    H223162   3.365   1.413   0.147  2.5206 -0.3849  0.3080
  583TIP3   OH223163   4.681   3.430  16.088 -0.0378  0.0360  0.6294
  583TIP3    H123164   4.741   3.486  16.136 -0.1026 -0.1496  0.9275
  583TIP3    H223165   4.720   3.342  16.093  0.1514  0.0793  0.0209
  584TIP3   OH223166   2.993   5.048   1.802  0.7376 -0.1436 -0.3622
  584TIP3    H123167   2.908   5.027   1.840 -1.0003  0.4211 -3.7091
  584TIP3    H223168   3.012   5.137   1.833  1.0437 -1.0002  1.9287
  585TIP3   OH223169   3.160   6.526  11.519  0.5480 -0.4789  0.0632
  585TIP3    H123170   3.163   6.601  11.579  0.7354  0.0358 -0.5804
  585TIP3    H223171   3.068   6.501  11.516  0.3084  0.4428 -0.5829
  586TIP3   OH223172   6.236   2.574   2.719  0.2133  0.1605 -0.0385
  586TIP3    H123173   6.172   2.556   2.788 -0.0693 -0.0666 -0.3565
  586TIP3    H223174   6.285   2.492   2.710  1.2517  0.6715  0.9358
  587TIP3   OH223175   3.058   0.014  12.705  0.4353 -0.2669 -0.2534
  587TIP3    H123176   3.057   0.103  12.741  0.9913  0.7609 -2.6890
  587TIP3    H223177   3.095  -0.039  12.775  0.9388  1.5737  0.9227
  588TIP3   OH223178   0.006   0.507  16.056 -0.1926  0.8840 -0.6231
  588TIP3    H123179   0.048   0.502  15.970 -0.1761 -0.2367 -0.5484
  588TIP3    H223180  -0.080   0.467  16.042  0.7115 -1.4996  0.4579
  589TIP3   OH223181   0.725   5.824  12.307 -0.2794 -0.1674  0.0280
  589TIP3    H123182   0.757   5.744  12.350  3.3817 -0.1277 -2.4363
  589TIP3    H223183   0.749   5.895  12.367  0.4356 -0.5140  0.1505
  590TIP3   OH223184   5.321   3.603  11.771 -0.9689 -0.5090 -0.2290
  590TIP3    H123185   5.349   3.687  11.733  0.4707 -0.7076  0.3397
  590TIP3    H223186   5.402   3.563  11.801 -2.0296 -0.2471  3.2660
  591TIP3   OH223187   5.983   3.030   2.173  0.2067 -0.1114 -0.1921
  591TIP3    H123188   5.961   3.003   2.084  0.4484 -0.3625 -0.1743
  591TIP3    H223189   5.898   3.038   2.217  0.0587  0.3751 -0.5475
  592TIP3   OH223190   1.019   2.678   2.426 -0.3071  0.5719 -0.7000
  592TIP3    H123191   0.968   2.753   2.458  1.0658  1.0457  0.4067
  592TIP3    H223192   1.108   2.695   2.456  0.0204 -1.5109 -0.4298
  593TIP3   OH223193   5.869   5.761   1.917 -0.4271  0.1701  0.2531
  593TIP3    H123194   5.942   5.739   1.859 -0.5589  0.4446 -0.0241
  593TIP3    H223195   5.905   5.754   2.005  0.2889  1.5499  0.0863
  594TIP3   OH223196   5.549   1.364  12.551  0.2884 -0.5035 -0.1074
  594TIP3    H123197   5.515   1.276  12.567  2.1510 -1.2694 -0.1406
  594TIP3    H223198   5.480   1.423  12.581 -2.5295 -1.9605 -3.5119
  595TIP3   OH223199   1.142   6.171  12.962 -0.0427 -0.5084 -0.0212
  595TIP3    H123200   1.120   6.257  12.925 -0.2752 -0.7021 -0.3390
  595TIP3    H223201   1.160   6.188  13.054  1.1764  0.0823 -0.3539
  596TIP3   OH223202   4.415   3.029   5.353 -0.2594 -0.0756  0.2831
  596TIP3    H123203   4.470   2.950   5.355 -0.1063  0.0096 -0.3351
  596TIP3    H223204   4.475   3.100   5.377  0.3913  0.2835 -2.2312
  597TIP3   OH223205   0.995   4.347   3.791  0.5369 -0.3166 -0.0529
  597TIP3    H123206   1.081   4.305   3.799  0.6329 -0.4363 -1.5680
  597TIP3    H223207   0.933   4.276   3.807  0.6877  0.1088  2.7083
  598TIP3   OH223208   5.679   3.632  14.998  0.5041  0.0888  0.4462
  598TIP3    H123209   5.709   3.687  15.070  1.2725  0.2259  0.0301
  598TIP3    H223210   5.584   3.639  15.000  0.5345  0.2327  1.3342
  599TIP3   OH223211   4.648   4.960  16.921  0.4554 -0.3706  0.1146
  599TIP3    H123212   4.646   5.055  16.907 -0.7188 -0.2164  1.1743
  599TIP3    H223213   4.569   4.942  16.973 -0.8802 -2.3207 -2.4656
  600TIP3   OH223214   0.817   3.074   5.439 -0.0943 -0.6029 -0.1449
  600TIP3    H123215   0.848   3.024   5.515 -1.8685  0.4092  1.2897
  600TIP3    H223216   0.855   3.162   5.452 -0.1940 -0.4979 -0.5666
  601TIP3   OH223217   6.072   2.196   5.015  0.2443 -0.4973  0.5739
  601TIP3    H123218   6.146   2.135   5.016 -1.0882 -2.1272  0.9389
  601TIP3    H223219   6.113   2.282   5.006  2.0905 -1.5137 -1.0772
  602TIP3   OH223220   0.800   4.244  15.588  0.2556  0.0554  0.3578
  602TIP3    H123221   0.742   4.307  15.631  1.8043  0.9287  1.2041
  602TIP3    H223222   0.769   4.158  15.619 -2.3316  0.3001 -1.3812
  603TIP3   OH223223   3.919   6.140   5.408  0.4162  0.3829  0.1222
  603TIP3    H123224   3.963   6.205   5.354 -0.7290  0.4714 -0.7318
  603TIP3    H223225   3.828   6.170   5.413  0.2369 -0.2889  1.0649
  604TIP3   OH223226   5.297   6.343   2.104  0.2884 -0.1191 -0.2777
  604TIP3    H123227   5.312   6.252   2.131 -0.2040 -0.5572 -1.4128
  604TIP3    H223228   5.384   6.383   2.107  0.4967 -0.6035  0.3214
  605TIP3   OH223229   2.172   2.535   2.340 -0.2290 -0.2717  0.4422
  605TIP3    H123230   2.232   2.503   2.273  0.5479 -1.2060  1.5632
  605TIP3    H223231   2.198   2.626   2.353 -1.1674  0.2818 -1.3566
  606TIP3   OH223232   4.415   0.610   1.793 -0.1975 -0.1392 -0.1273
  606TIP3    H123233   4.473   0.652   1.857  0.8029 -0.4351 -0.8238
  606TIP3    H223234   4.356   0.556   1.845  1.9333 -1.9956  0.4501
  607TIP3   OH223235   5.384   4.563   1.995  0.2339  0.6243  0.4571
  607TIP3    H123236   5.344   4.496   2.050 -0.0522  0.1767 -0.2923
  607TIP3    H223237   5.363   4.645   2.038 -0.9663  0.3573  0.4009
  608TIP3   OH223238   0.944   6.702   6.391 -0.7049  0.5323  0.4717
  608TIP3    H123239   0.945   6.782   6.444  1.5899  0.2559  0.8614
  608TIP3    H223240   0.920   6.633   6.452 -0.8037  0.6313  0.5440
  609TIP3   OH223241   4.049   1.377   0.251  0.4011 -0.0419  0.4241
  609TIP3    H123242   3.954   1.376   0.260  0.5937  1.2703  3.4467
  609TIP3    H223243   4.065   1.357   0.159 -2.8035  0.2527 -0.2570
  610TIP3   OH223244   1.286   5.119  15.805 -0.1888  0.0869  0.0940
  610TIP3    H123245   1.257   5.169  15.729 -0.0371 -0.9154 -0.6523
  610TIP3    H223246   1.207   5.075  15.837  0.0877 -0.9657 -0.6394
  611TIP3   OH223247   6.124   4.426  12.928  0.0360 -0.0632  0.1247
  611TIP3    H123248   6.094   4.352  12.876  0.2703 -0.0355 -0.0496
  611TIP3    H223249   6.085   4.503  12.887  0.3696 -0.0236 -0.1248
  612TIP3   OH223250   3.776   2.869   4.631 -0.0202 -0.1753 -0.1200
  612TIP3    H123251   3.779   2.774   4.618  4.5920 -0.1648  0.1618
  612TIP3    H223252   3.744   2.904   4.548 -1.5954 -1.9074 -0.2809
  613TIP3   OH223253   6.753   5.775   0.400 -0.3308  0.0522 -0.2771
  613TIP3    H123254   6.774   5.824   0.320 -1.3681 -0.8010 -1.0957
  613TIP3    H223255   6.797   5.691   0.389 -0.1466  0.0812  0.2398
  614TIP3   OH223256   3.857   1.686   3.155 -0.1988  0.1646  0.6588
  614TIP3    H123257   3.925   1.719   3.215  2.5676 -2.7176 -0.6951
  614TIP3    H223258   3.897   1.691   3.068 -2.0309 -0.8179 -0.2684
  615TIP3   OH223259   3.238   3.379   1.075  0.0577  0.0640  0.0187
  615TIP3    H123260   3.191   3.306   1.034 -1.7192  2.0300 -1.5963
  615TIP3    H223261   3.296   3.337   1.139 -0.1041 -2.8241 -1.6128
  616TIP3   OH223262   2.359   2.751   1.267 -0.1553 -0.2142  0.4231
  616TIP3    H123263   2.411   2.789   1.196 -1.9987  1.7611  0.0887
  616TIP3    H223264   2.271   2.744   1.231 -0.8207 -0.5013  2.0590
  617TIP3   OH223265   2.674   5.852  11.115 -0.0302 -0.1028  0.4848
  617TIP3    H123266   2.619   5.774  11.114 -0.8143  0.4397 -1.1492
  617TIP3    H223267   2.632   5.910  11.179 -1.7324  0.5282 -1.1405
  618TIP3   OH223268   5.178   4.896  15.949 -0.0394 -0.0586  0.6191
  618TIP3    H123269   5.259   4.866  15.991  0.6772  0.0712 -0.6742
  618TIP3    H223270   5.207   4.947  15.874 -1.3265 -0.1442  0.0533
  619TIP3   OH223271   5.451   2.775  16.230 -0.4389 -0.1061  0.4174
  619TIP3    H123272   5.373   2.745  16.183  0.4930 -1.1811 -0.4837
  619TIP3    H223273   5.426   2.773  16.322 -1.4415 -0.5595  0.1451
  620TIP3   OH223274   0.873   1.213  12.007 -0.2982 -0.2778  0.5796
  620TIP3    H123275   0.842   1.148  12.070 -1.1865  0.1297  0.5734
  620TIP3    H223276   0.867   1.297  12.054  0.1362 -0.1127  0.3415
  621TIP3   OH223277   1.157   1.525   2.410  0.3059 -0.2797  0.4103
  621TIP3    H123278   1.095   1.465   2.451 -0.8543 -0.2392 -1.2266
  621TIP3    H223279   1.120   1.543   2.324  1.3376  1.7135  0.3380
  622TIP3   OH223280   1.539   6.202   0.512  0.8003 -0.4560 -0.2014
  622TIP3    H123281   1.546   6.237   0.423 -1.2613 -1.9700 -0.9931
  622TIP3    H223282   1.450   6.223   0.539  2.1000  1.9571  2.3995
  623TIP3   OH223283   6.663   4.823  13.285 -0.0667  0.5786  0.5275
  623TIP3    H123284   6.576   4.812  13.245 -0.2413  1.0185  0.7781
  623TIP3    H223285   6.649   4.798  13.377 -0.2244  1.8859  0.8596
  624TIP3   OH223286   1.224   4.300  16.886 -0.0046  0.3732  0.4825
  624TIP3    H123287   1.211   4.216  16.932 -1.0830  0.9774  1.3189
  624TIP3    H223288   1.217   4.366  16.955 -0.3592  1.2226 -0.3529
  625TIP3   OH223289   4.333   6.712  12.936 -0.6219  0.2195  0.2429
  625TIP3    H123290   4.395   6.768  12.888 -0.1030  0.8182  1.5609
  625TIP3    H223291   4.309   6.643  12.874 -0.8505  1.5984 -1.2418
  626TIP3   OH223292   1.545   1.519   3.969 -0.3542  0.0380 -0.2962
  626TIP3    H123293   1.546   1.520   3.873  0.4764 -2.5027 -0.3446
  626TIP3    H223294   1.461   1.481   3.992 -1.3579  2.3696  0.0615
  627TIP3   OH223295   3.342   5.048  11.672  0.1448 -0.6347  0.2253
  627TIP3    H123296   3.386   5.133  11.677  0.8008 -1.0260  1.1670
  627TIP3    H223297   3.249   5.070  11.676  0.2782  0.0949 -0.4144
  628TIP3   OH223298   3.066   4.705   2.559  0.3674 -0.0213 -0.4909
  628TIP3    H123299   3.080   4.644   2.486  0.2922 -1.4602  0.6783
  628TIP3    H223300   2.973   4.728   2.553  0.2694 -0.4444 -0.6051
  629TIP3   OH223301   1.441   3.560  13.071  0.0236 -0.2777 -0.4145
  629TIP3    H123302   1.371   3.547  13.007 -2.2913  0.4613  1.8577
  629TIP3    H223303   1.419   3.500  13.142  0.3705  1.6073  1.3480
  630TIP3   OH223304   5.117   2.493  13.654  0.3281  0.2017  0.2282
  630TIP3    H123305   5.201   2.539  13.658  0.8575 -0.6057 -1.0287
  630TIP3    H223306   5.108   2.469  13.562 -1.0574 -0.1476  0.4468
  631TIP3   OH223307   1.658   4.174   2.569  0.5063  0.2702  0.0242
  631TIP3    H123308   1.567   4.201   2.561 -0.0675 -1.8703 -1.0755
  631TIP3    H223309   1.660   4.118   2.646  0.9479  0.4757  0.1660
  632TIP3   OH223310   0.483   4.395  11.747  0.3865  0.5637 -0.2513
  632TIP3    H123311   0.509   4.461  11.682 -2.7679 -0.4129 -2.6084
  632TIP3    H223312   0.443   4.325  11.696 -2.4499 -0.1262  2.7570
  633TIP3   OH223313   4.501   2.810   4.395 -0.2871  0.5199  0.2216
  633TIP3    H123314   4.421   2.767   4.423 -0.3603  0.4202 -0.1328
  633TIP3    H223315   4.539   2.847   4.475  0.1101 -0.7490  0.6352
  634TIP3   OH223316   4.431   6.049   5.009  0.1218  0.3856  0.2925
  634TIP3    H123317   4.460   5.991   4.939  0.9228 -0.5065  1.3413
  634TIP3    H223318   4.336   6.040   5.010  0.2356 -0.8598  0.3978
  635TIP3   OH223319   4.202   0.956  16.450 -0.0864  0.0360  0.2552
  635TIP3    H123320   4.290   0.991  16.460  0.0933 -0.8325  1.8209
  635TIP3    H223321   4.213   0.879  16.395  0.1531 -0.1500  0.5611
  636TIP3   OH223322   5.991   6.596  14.924 -0.1292 -0.1128 -0.0696
  636TIP3    H123323   6.072   6.602  14.873 -0.5814 -0.9033 -0.9066
  636TIP3    H223324   6.011   6.535  14.995  0.1766  0.1284  0.0492
  637TIP3   OH223325   0.898   2.080   0.000  0.3619  0.7416 -0.1418
  637TIP3    H123326   0.834   2.041   0.060  1.9301  0.1858  1.1766
  637TIP3    H223327   0.924   2.162   0.043  0.4281  1.0480 -0.7567
  638TIP3   OH223328   0.637   1.350  12.363 -0.3286  0.1311  0.6109
  638TIP3    H123329   0.657   1.322  12.452  1.4956  1.0589  0.5107
  638TIP3    H223330   0.711   1.321  12.310 -1.0109  0.2940 -0.4740
  639TIP3   OH223331   3.230   1.572   3.283 -0.2499  0.2236  0.2780
  639TIP3    H123332   3.187   1.611   3.360 -0.2539 -1.0161  0.9066
  639TIP3    H223333   3.312   1.620   3.276 -0.5031  0.7347  0.7160
  640TIP3   OH223334   1.457   2.151  16.356  0.0705 -0.0651 -0.1380
  640TIP3    H123335   1.376   2.118  16.396  0.0951 -2.5754 -2.0275
  640TIP3    H223336   1.444   2.246  16.350 -2.9503 -0.4765 -0.8577
  641TIP3   OH223337   1.310   5.463   2.115 -0.5288  0.1135  0.5219
  641TIP3    H123338   1.288   5.397   2.050  0.2961 -0.8637  1.2377
  641TIP3    H223339   1.337   5.414   2.193 -0.8941  1.2701  1.4044
  642TIP3   OH223340   2.793   1.204   4.059 -0.1060  0.6251  0.0138
  642TIP3    H123341   2.744   1.160   4.129  1.1729 -2.2971 -0.8652
  642TIP3    H223342   2.735   1.202   3.984 -0.0553  0.4762 -0.0206
  643TIP3   OH223343   0.904   4.144   0.086  0.1203  0.2049 -0.3131
  643TIP3    H123344   0.930   4.056   0.115  0.2077  0.1324 -0.6146
  643TIP3    H223345   0.953   4.203   0.144  3.3637  0.1168 -2.8375
  644TIP3   OH223346   2.511   5.808   3.727  0.0984 -0.5235 -0.3693
  644TIP3    H123347   2.539   5.809   3.635  0.8588 -0.1073 -0.1358
  644TIP3    H223348   2.592   5.818   3.777 -0.4431  0.5269  0.3220
  645TIP3   OH223349   6.661   0.095  16.451 -0.2455 -0.1788 -0.2502
  645TIP3    H123350   6.752   0.123  16.461 -0.5161  0.4501  0.5723
  645TIP3    H223351   6.640   0.113  16.359  0.3075  0.1378 -0.3190
  646TIP3   OH223352   5.356   0.998   1.433  0.0188  0.2952  0.5353
  646TIP3    H123353   5.265   1.028   1.437 -0.7523 -1.5170 -2.1272
  646TIP3    H223354   5.355   0.912   1.475  0.5092  0.2624  0.4868
  647TIP3   OH223355   4.947   2.662   5.863 -0.0033 -0.1600  0.5474
  647TIP3    H123356   5.012   2.600   5.830  1.0875  1.6271 -0.7306
  647TIP3    H223357   4.865   2.613   5.862  0.5880 -1.1598 -1.8048
  648TIP3   OH223358   5.828   0.926   5.196 -0.0072 -0.2859  0.1288
  648TIP3    H123359   5.903   0.913   5.253 -0.5872 -1.5738  0.6275
  648TIP3    H223360   5.837   0.858   5.129  1.0477  1.6472 -1.7429
  649TIP3   OH223361   1.939   2.736   6.341  0.7596  0.2531 -1.1448
  649TIP3    H123362   1.899   2.823   6.344  0.8977  0.3006 -0.5032
  649TIP3    H223363   2.032   2.753   6.325  1.3831  0.4300  2.2733
  650TIP3   OH223364   3.500   2.492   4.389  0.4739  0.4455  0.0584
  650TIP3    H123365   3.530   2.411   4.348  0.3050  0.5867 -0.3435
  650TIP3    H223366   3.405   2.490   4.381  0.3893  0.1837  0.9925
  651TIP3   OH223367   0.832   4.327   4.971 -0.2900 -0.1495 -0.0420
  651TIP3    H123368   0.788   4.325   5.056 -0.8660  1.6164 -0.2884
  651TIP3    H223369   0.923   4.306   4.991 -0.9035 -2.2299  0.6707
  652TIP3   OH223370   1.159   1.471   6.076 -0.5557 -0.0121  0.0203
  652TIP3    H123371   1.218   1.482   6.151  0.6304 -0.9258 -0.7570
  652TIP3    H223372   1.158   1.377   6.060 -0.3320  0.2243 -1.4668
  653TIP3   OH223373   2.568   0.968  17.230 -0.3715 -0.0334  0.3513
  653TIP3    H123374   2.648   1.013  17.204 -0.0757  0.7718  2.5715
  653TIP3    H223375   2.596   0.879  17.250  0.0490  0.3550  1.5138
  654TIP3   OH223376   5.760   1.586  15.135 -0.3599 -0.1602  0.3319
  654TIP3    H123377   5.817   1.578  15.211 -1.6291 -1.5014  1.1737
  654TIP3    H223378   5.814   1.560  15.061  0.3410 -0.6543  1.0196
  655TIP3   OH223379   4.475   1.407  16.538 -0.4985 -0.1965  0.2763
  655TIP3    H123380   4.514   1.432  16.455  1.9122 -0.4884  1.2711
  655TIP3    H223381   4.430   1.486  16.568 -0.5677  0.1977 -0.8505
  656TIP3   OH223382   6.137   5.430  14.424  0.0741  0.3971 -0.1500
  656TIP3    H123383   6.195   5.471  14.360  0.3350 -1.5781 -1.2211
  656TIP3    H223384   6.103   5.352  14.380  1.3059 -1.7867  2.5166
  657TIP3   OH223385   6.094   6.084  11.322 -0.3335 -0.4603  0.6010
  657TIP3    H123386   6.058   6.019  11.382 -0.6205  1.3201  2.4125
  657TIP3    H223387   6.175   6.113  11.365 -1.6353  2.3695  1.2210
  658TIP3   OH223388   2.535   3.797  16.706  0.8139 -0.1905 -0.1223
  658TIP3    H123389   2.459   3.850  16.731  0.3856 -0.9283  0.1304
  658TIP3    H223390   2.504   3.743  16.633  0.8205 -1.1928  0.6169
  659TIP3   OH223391   1.631   5.278   5.875  0.1387  0.4920  0.3302
  659TIP3    H123392   1.595   5.230   5.950 -1.5866  0.0688 -0.7399
  659TIP3    H223393   1.711   5.319   5.909 -0.1316 -0.4260  2.1513
  660TIP3   OH223394   3.747   2.026   4.869  0.5512  0.3259 -0.0098
  660TIP3    H123395   3.825   2.058   4.914 -0.3744  1.1401  1.0701
  660TIP3    H223396   3.756   2.058   4.779  1.5442  0.2711  0.0741
  661TIP3   OH223397   4.665   6.230  15.691  0.1937 -0.0414 -0.5189
  661TIP3    H123398   4.638   6.139  15.679  1.6056 -0.4716 -0.4847
  661TIP3    H223399   4.760   6.228  15.685  0.3510  1.1654  1.3530
  662TIP3   OH223400   1.235   3.241   0.557  0.1999 -0.1264  0.4215
  662TIP3    H123401   1.145   3.274   0.554  0.2084 -0.0932  0.5400
  662TIP3    H223402   1.272   3.267   0.473  1.4729  3.7742  2.0350
  663TIP3   OH223403   1.729   4.057   2.109  0.1450 -0.3965  0.3429
  663TIP3    H123404   1.732   4.130   2.170 -0.0794 -0.9492  1.0161
  663TIP3    H223405   1.816   4.017   2.113 -0.1789 -1.0376  1.0443
  664TIP3   OH223406   4.579   1.289  11.020 -0.0395  0.4982  0.5101
  664TIP3    H123407   4.554   1.221  11.082  0.9090  0.0592  0.4244
  664TIP3    H223408   4.608   1.240  10.943 -0.7764  1.0306 -0.1110
  665TIP3   OH223409   1.766   5.825  11.241  0.0176 -0.7773  0.0949
  665TIP3    H123410   1.674   5.834  11.219 -0.3275 -1.3407  1.2768
  665TIP3    H223411   1.768   5.765  11.316  1.3982 -1.3895 -0.4034
  666TIP3   OH223412   2.787   5.890  16.819  0.3223  0.6230  0.5014
  666TIP3    H123413   2.879   5.899  16.793  0.3715 -0.4246  0.2684
  666TIP3    H223414   2.761   5.978  16.846  1.2216  1.0585  0.0041
  667TIP3   OH223415   4.568   6.079   4.478 -0.0764 -0.3000 -0.3854
  667TIP3    H123416   4.646   6.029   4.505 -0.0885 -0.2099 -0.1796
  667TIP3    H223417   4.495   6.028   4.513 -0.0538  0.3590  0.6649
  668TIP3   OH223418   4.546   5.561  14.561 -0.4779  0.3774 -0.2568
  668TIP3    H123419   4.460   5.556  14.520 -0.1464 -1.7913 -0.7671
  668TIP3    H223420   4.532   5.529  14.650 -0.4369  1.2528  0.0673
  669TIP3   OH223421   4.065   4.343  12.823 -0.2776 -0.0082  0.1043
  669TIP3    H123422   3.976   4.349  12.858  0.0019  0.6305  0.7206
  669TIP3    H223423   4.120   4.385  12.890  0.5918 -1.1754  0.1456
  670TIP3   OH223424   0.998   2.019  16.271 -0.2275 -0.1947  0.6637
  670TIP3    H123425   1.083   2.006  16.229 -0.7650 -0.5295 -0.3364
  670TIP3    H223426   0.977   2.111  16.253  0.5059  0.2495  2.0128
  671TIP3   OH223427   4.531   3.993  13.798 -0.1445  0.4412  0.2124
  671TIP3    H123428   4.496   3.909  13.770 -1.0371  0.5402  1.0107
  671TIP3    H223429   4.462   4.056  13.775 -0.3419  0.6883  1.4201
  672TIP3   OH223430   3.366   6.176  15.710 -0.0531 -0.0585  0.3920
  672TIP3    H123431   3.424   6.214  15.644 -1.3049 -1.0027 -1.3059
  672TIP3    H223432   3.354   6.085  15.681 -0.2444 -0.6256  2.1989
  673TIP3   OH223433   1.598   5.235  12.593 -0.3562 -0.0455  0.4093
  673TIP3    H123434   1.570   5.163  12.538  2.1272 -0.6395 -0.1071
  673TIP3    H223435   1.562   5.214  12.680 -1.7969 -0.5717 -0.2965
  674TIP3   OH223436   1.399   1.007   0.944 -0.4798  0.4099  0.6331
  674TIP3    H123437   1.466   0.966   0.999 -0.4375  0.1177  0.3670
  674TIP3    H223438   1.327   0.944   0.944 -0.3698  0.2782  0.1321
  675TIP3   OH223439   0.758   5.445   5.554  0.1377  0.3016  0.4741
  675TIP3    H123440   0.708   5.488   5.485 -0.0526  0.9329  1.0092
  675TIP3    H223441   0.718   5.358   5.561  0.4178  0.0885 -0.4861
  676TIP3   OH223442   5.215   5.135   1.909 -0.0073 -0.2533 -0.4796
  676TIP3    H123443   5.154   5.140   1.836 -0.8727 -0.2417  0.2229
  676TIP3    H223444   5.165   5.171   1.983  0.5903 -0.9597  0.2737
  677TIP3   OH223445   5.691   2.662   5.851  0.3783 -0.2798 -0.1523
  677TIP3    H123446   5.611   2.685   5.897 -0.3256 -1.2180 -0.8853
  677TIP3    H223447   5.685   2.707   5.767  1.4860  1.1258  0.5096
  678TIP3   OH223448   4.541   4.337  13.613 -0.3151 -0.2970  0.0414
  678TIP3    H123449   4.481   4.282  13.664 -0.0566 -0.0937  0.5675
  678TIP3    H223450   4.623   4.288  13.612 -0.3633 -0.3723 -0.3123
  679TIP3   OH223451   3.048   5.687  14.883 -0.8376 -0.1399  0.6112
  679TIP3    H123452   3.015   5.597  14.887 -0.3748 -0.3805 -0.7719
  679TIP3    H223453   3.119   5.683  14.819  0.1812  0.9032  1.6637
  680TIP3   OH223454   3.937   5.600  16.714 -0.0677 -0.1106  0.1520
  680TIP3    H123455   3.881   5.632  16.786 -0.8475 -2.1056  0.4624
  680TIP3    H223456   4.022   5.584  16.755  0.1211  0.8306  0.1445
  681TIP3   OH223457   5.529   4.501  13.339  0.1575  0.3897 -0.4515
  681TIP3    H123458   5.444   4.460  13.321  0.4270  0.9700 -3.3200
  681TIP3    H223459   5.582   4.431  13.377 -0.4966 -0.9683 -1.9748
  682TIP3   OH223460   5.534   0.835   0.608 -0.2887  0.0900 -0.2838
  682TIP3    H123461   5.582   0.788   0.676 -1.4173  1.5954  1.5911
  682TIP3    H223462   5.450   0.789   0.601 -0.6317  0.6280  0.1922
  683TIP3   OH223463   2.974   4.720  15.309 -0.4175  0.7543  0.4285
  683TIP3    H123464   3.002   4.673  15.388 -0.6712  0.3956  0.3088
  683TIP3    H223465   2.973   4.653  15.240  1.5992  1.4330 -0.3011
  684TIP3   OH223466   2.868   4.376   1.502 -0.1254  0.3365  0.1169
  684TIP3    H123467   2.803   4.340   1.562  0.2527 -0.0217  0.3126
  684TIP3    H223468   2.871   4.314   1.429  1.8991 -1.0215  1.3532
  685TIP3   OH223469   1.790   2.247  16.415  0.8010 -0.7970  0.5183
  685TIP3    H123470   1.803   2.153  16.405 -0.1032 -0.8666 -0.0192
  685TIP3    H223471   1.877   2.284  16.404  0.7900 -1.3809 -1.6012
  686TIP3   OH223472   6.724   3.161   3.907  0.1187  0.5000 -0.1930
  686TIP3    H123473   6.669   3.082   3.903  0.3749  0.2672  0.9122
  686TIP3    H223474   6.666   3.232   3.879 -0.9285  0.3402  1.5198
  687TIP3   OH223475   3.308   1.737   2.718 -0.6487 -0.2139 -0.1866
  687TIP3    H123476   3.238   1.802   2.707  0.0460  0.8320  1.3645
  687TIP3    H223477   3.289   1.695   2.802 -0.3569 -1.1196 -0.5682
  688TIP3   OH223478   2.528   3.200  17.096  0.2220  0.2364 -0.3322
  688TIP3    H123479   2.501   3.252  17.172 -0.4777  0.0870 -0.4761
  688TIP3    H223480   2.616   3.169  17.119 -0.2965 -0.4685  0.7574
  689TIP3   OH223481   2.703   0.643   4.033 -0.3361 -0.3432 -0.0853
  689TIP3    H123482   2.707   0.548   4.034  0.4626 -0.3188 -0.7263
  689TIP3    H223483   2.644   0.664   3.960 -1.5470 -0.3696  0.8696
  690TIP3   OH223484   1.588   5.803  10.475  0.0636  0.2273 -0.2808
  690TIP3    H123485   1.615   5.717  10.444 -1.2427  0.7283 -2.9445
  690TIP3    H223486   1.666   5.858  10.462  1.0317 -0.6017  1.8132
  691TIP3   OH223487   3.354   3.427   0.168 -0.0855  0.7726 -0.2143
  691TIP3    H123488   3.419   3.414   0.237  1.2207  0.8253 -1.4199
  691TIP3    H223489   3.275   3.383   0.201  0.2217  1.6029  1.7188
  692TIP3   OH223490   3.934   1.700  14.251 -0.0254 -0.6313 -0.5413
  692TIP3    H123491   3.872   1.750  14.198 -0.9449  0.6657  1.7286
  692TIP3    H223492   4.007   1.760  14.266  0.8904 -1.4780 -1.4906
  693TIP3   OH223493   4.799   0.664  11.899  0.7128  0.4376 -0.3160
  693TIP3    H123494   4.728   0.694  11.842 -0.8114 -1.1403  0.6820
  693TIP3    H223495   4.857   0.740  11.906 -0.4795  1.5301 -1.7660
  694TIP3   OH223496   4.124   0.862  14.188  0.1994 -0.4917 -0.1167
  694TIP3    H123497   4.148   0.824  14.273  0.5335 -1.7173 -0.7445
  694TIP3    H223498   4.029   0.861  14.187  0.1945 -0.4470  0.2663
  695TIP3   OH223499   0.606   3.331   5.386 -0.2761  0.1132 -0.1465
  695TIP3    H123500   0.598   3.414   5.433 -1.2512  0.1279 -0.3353
  695TIP3    H223501   0.655   3.353   5.307  0.4671  0.2844  0.3536
  696TIP3   OH223502   1.464   5.900   2.803 -0.2332 -0.1018  0.0436
  696TIP3    H123503   1.468   5.968   2.735  0.7169 -0.6902 -0.4968
  696TIP3    H223504   1.551   5.898   2.841 -0.4809 -0.4790  0.5988
  697TIP3   OH223505   1.954   5.054  10.422 -0.3924 -0.8654 -0.1860
  697TIP3    H123506   1.880   5.088  10.473 -0.6496 -1.4758 -0.1518
  697TIP3    H223507   2.028   5.106  10.451 -0.5410 -1.2066  0.8144
  698TIP3   OH223508   5.181   2.463  12.103  0.3129 -0.4292 -0.2156
  698TIP3    H123509   5.103   2.481  12.052  1.0775  0.3310 -1.1532
  698TIP3    H223510   5.164   2.380  12.147 -2.0604  0.9852  1.6727
  699TIP3   OH223511   0.236   3.271  11.576 -0.0423 -0.8538 -0.9721
  699TIP3    H123512   0.176   3.346  11.583  0.1267 -0.5196 -2.8402
  699TIP3    H223513   0.235   3.249  11.483  2.8071 -0.7765 -1.0583
  700TIP3   OH223514   2.517   3.611  14.063 -0.7665  0.0007 -0.6388
  700TIP3    H123515   2.532   3.663  13.985  0.6811 -0.3744 -0.6149
  700TIP3    H223516   2.424   3.586  14.058 -0.8584  0.5768 -1.8495
  701TIP3   OH223517   3.824   5.355  12.446 -0.6845 -0.1578 -0.4925
  701TIP3    H123518   3.842   5.343  12.352  0.2448  0.0448 -0.3486
  701TIP3    H223519   3.771   5.280  12.470  0.2593 -0.9599 -0.8708
  702TIP3   OH223520   0.944   4.110  14.432 -0.2828 -0.1370 -0.0220
  702TIP3    H123521   0.917   4.184  14.377  0.6739  0.0794 -0.2063
  702TIP3    H223522   0.904   4.128  14.517 -0.6134  0.2483 -0.2567
  703TIP3   OH223523   0.320   4.545   0.626  0.6887  0.6437  0.3131
  703TIP3    H123524   0.311   4.477   0.692 -1.7609  0.2490 -0.3783
  703TIP3    H223525   0.343   4.497   0.546  3.1930  1.0718  0.7616
  704TIP3   OH223526   1.897   0.650  10.791 -0.1112  0.5214  0.2543
  704TIP3    H123527   1.938   0.702  10.722 -0.4792 -0.3158 -0.5957
  704TIP3    H223528   1.833   0.595  10.746 -0.0180 -0.3806  1.1998
  705TIP3   OH223529   4.051   2.025  13.465 -0.5626 -0.0250 -0.3410
  705TIP3    H123530   4.134   2.053  13.425  0.6489 -1.4565  1.0694
  705TIP3    H223531   4.009   1.971  13.399  0.8552 -1.3815 -0.1850
  706TIP3   OH223532   0.893   3.563   2.420  0.2078 -0.4018  0.2467
  706TIP3    H123533   0.962   3.628   2.408  0.7745 -0.9053  0.8052
  706TIP3    H223534   0.924   3.507   2.490  0.6811 -2.5946 -1.6627
  707TIP3   OH223535   3.394   4.114  15.970 -0.3264 -0.3093 -0.3096
  707TIP3    H123536   3.473   4.121  16.024 -0.9687 -0.3324  0.6434
  707TIP3    H223537   3.326   4.083  16.031 -1.5355  1.5966 -0.6657
  708TIP3   OH223538   2.907   5.201   6.368  0.7347  0.6664  0.5489
  708TIP3    H123539   2.814   5.219   6.378  0.6136  0.8859 -0.8624
  708TIP3    H223540   2.949   5.255   6.435 -0.2408 -0.7268  2.3311
  709TIP3   OH223541   2.974   1.968  12.932 -0.4188 -0.5919  0.1264
  709TIP3    H123542   3.067   1.947  12.920 -0.6196 -1.5157  0.1505
  709TIP3    H223543   2.967   1.992  13.024 -0.3143 -1.1157  0.2721
  710TIP3   OH223544   0.723   6.363   3.492  0.2302  0.3497 -0.1309
  710TIP3    H123545   0.766   6.287   3.533 -1.0329 -0.4739 -0.2839
  710TIP3    H223546   0.634   6.362   3.528 -0.1212  1.1292 -0.9569
  711TIP3   OH223547   3.209   2.948  16.979 -0.1234  0.3178 -0.1977
  711TIP3    H123548   3.152   3.019  16.949 -1.0686 -1.1174 -1.9484
  711TIP3    H223549   3.153   2.870  16.977  1.2895 -0.7305  0.2456
  712TIP3   OH223550   4.655   3.822   1.670  0.2972  0.1062 -0.0822
  712TIP3    H123551   4.599   3.775   1.731 -0.7580  1.0408 -0.3212
  712TIP3    H223552   4.652   3.913   1.699  0.9197  0.3274 -0.6819
  713TIP3   OH223553   3.662   0.794  12.337  0.5148 -0.0869 -0.0219
  713TIP3    H123554   3.722   0.856  12.296  1.2963 -0.6101  0.3415
  713TIP3    H223555   3.715   0.718  12.358 -0.0334 -0.1112  1.3356
  714TIP3   OH223556   4.379   1.841  11.420  0.1365 -0.1412 -0.2137
  714TIP3    H123557   4.440   1.895  11.371  1.4868 -1.2209  0.2550
  714TIP3    H223558   4.321   1.804  11.354 -0.8776  1.9486 -0.5296
  715TIP3   OH223559   1.136   4.959  13.597  0.4102  0.2632  0.2242
  715TIP3    H123560   1.228   4.966  13.571  0.3349  3.1480  0.5858
  715TIP3    H223561   1.089   4.948  13.515  0.9192  0.6888 -0.1304
  716TIP3   OH223562   5.822   3.084   4.015  0.4760  0.0815  0.1569
  716TIP3    H123563   5.796   3.037   3.936  0.1719  0.3129  0.1161
  716TIP3    H223564   5.916   3.067   4.024  0.0155 -2.0588  1.1844
  717TIP3   OH223565   4.249   0.047   5.668 -0.7411  0.7403  0.0928
  717TIP3    H123566   4.268  -0.045   5.689 -1.7886  0.6169  0.5009
  717TIP3    H223567   4.332   0.092   5.684 -0.1991 -0.1389 -0.1648
  718TIP3   OH223568   0.335   3.997   0.697  0.3821  0.4355 -0.1049
  718TIP3    H123569   0.248   4.036   0.688  0.1141  0.4347  2.1556
  718TIP3    H223570   0.392   4.071   0.720  0.4433  0.0145  1.1563
  719TIP3   OH223571   2.256   5.973  14.892  0.4744  0.0120  0.3947
  719TIP3    H123572   2.326   5.909  14.877  0.0996 -0.2355 -0.2853
  719TIP3    H223573   2.281   6.049  14.839 -0.4578 -0.5780 -0.8952
  720TIP3   OH223574   0.882   4.960   2.548 -0.5412  0.7133 -0.2759
  720TIP3    H123575   0.869   4.867   2.570  1.4749  0.3620 -0.5262
  720TIP3    H223576   0.827   5.007   2.612 -0.7217 -0.6049  0.5665
  721TIP3   OH223577   4.791   1.973   4.338  0.1936 -0.1652 -0.6938
  721TIP3    H123578   4.851   2.027   4.389  0.1675 -0.9181  0.1450
  721TIP3    H223579   4.709   1.975   4.388  0.8291 -2.7519  0.5199
  722TIP3   OH223580   3.138   3.193   6.589  0.0768 -0.1558 -0.2166
  722TIP3    H123581   3.218   3.240   6.567 -0.9564  1.1574 -1.2529
  722TIP3    H223582   3.080   3.210   6.515 -1.8056  0.4178  1.3677
  723TIP3   OH223583   4.891   2.552  11.244  0.4994  0.5830  0.1882
  723TIP3    H123584   4.892   2.490  11.171 -1.3928 -0.7463  1.2433
  723TIP3    H223585   4.877   2.637  11.203 -1.3252 -0.2382 -0.9638
  724TIP3   OH223586   0.434   2.976  13.224  0.4972 -0.0252 -0.1120
  724TIP3    H123587   0.348   2.936  13.221  1.0121 -1.0362 -2.6540
  724TIP3    H223588   0.493   2.904  13.248  0.7883  0.3724  0.3726
  725TIP3   OH223589   3.627   3.814   0.700 -0.2879  0.2926  0.4587
  725TIP3    H123590   3.570   3.890   0.709 -1.9789 -0.9114  0.2695
  725TIP3    H223591   3.712   3.850   0.675 -0.9517  2.1322  0.7818
  726TIP3   OH223592   4.957   3.872   0.868 -0.1079 -0.2180 -0.2481
  726TIP3    H123593   4.937   3.819   0.791 -1.7021 -1.2293  0.8519
  726TIP3    H223594   4.920   3.823   0.942 -1.1137  2.1317  0.8504
  727TIP3   OH223595   2.033   1.886  13.049 -0.6075  0.4702 -0.6452
  727TIP3    H123596   1.940   1.885  13.071 -0.5699 -0.2981 -0.5242
  727TIP3    H223597   2.047   1.806  12.999 -0.2598  1.1847 -1.7020
  728TIP3   OH223598   5.449   4.589   4.462  0.5453  0.1280  0.0622
  728TIP3    H123599   5.418   4.528   4.395  2.4432  0.6011 -1.3014
  728TIP3    H223600   5.485   4.533   4.531  1.4901 -0.3154 -0.7862
  729TIP3   OH223601   2.980   1.166   4.294 -0.2847  0.5089  0.2341
  729TIP3    H123602   2.889   1.154   4.269 -0.6585 -0.2037  1.8939
  729TIP3    H223603   3.019   1.078   4.286  0.0877  0.6770  0.1781
  730TIP3   OH223604   4.935   2.003   4.787 -0.3786 -0.2295  0.1600
  730TIP3    H123605   4.984   1.924   4.764 -0.6025 -0.5702  0.8432
  730TIP3    H223606   4.844   1.974   4.794 -0.3943 -0.0209  0.8960
  731TIP3   OH223607   4.251   1.640  15.916 -0.0805 -0.2928 -0.4290
  731TIP3    H123608   4.306   1.716  15.935  0.3680 -0.8857  0.7297
  731TIP3    H223609   4.269   1.579  15.988 -0.5078 -1.4558 -1.2845
  732TIP3   OH223610   2.740   3.260  12.026 -0.1647  0.1889 -0.2989
  732TIP3    H123611   2.757   3.207  12.104  2.7275  1.5609  0.0928
  732TIP3    H223612   2.785   3.343  12.043 -1.2419  1.2900 -2.5636
  733TIP3   OH223613   4.449   1.355   1.141 -0.3963  0.3879  0.2574
  733TIP3    H123614   4.355   1.336   1.134 -0.0148 -1.9174  1.0595
  733TIP3    H223615   4.455   1.417   1.214 -1.0309 -1.7950  2.2216
  734TIP3   OH223616   3.281   1.545   4.138 -0.2534  0.5902 -0.6298
  734TIP3    H123617   3.310   1.494   4.214 -1.8221  0.4407 -0.1203
  734TIP3    H223618   3.332   1.626   4.143  1.1331 -0.2672 -0.5837
  735TIP3   OH223619   4.452   3.505  14.195 -0.2149  0.2615 -0.0669
  735TIP3    H123620   4.514   3.449  14.148 -1.4469 -1.1335 -0.0595
  735TIP3    H223621   4.470   3.593  14.162  0.2938 -0.4181 -1.6733
  736TIP3   OH223622   5.942   1.570  12.065  0.0587 -0.0148 -0.0459
  736TIP3    H123623   5.925   1.664  12.077  0.0466  0.0325 -0.4053
  736TIP3    H223624   5.960   1.561  11.971 -0.8629 -0.5152 -0.1763
  737TIP3   OH223625   3.108   0.000   2.643 -0.4505 -0.1965  0.0671
  737TIP3    H123626   3.051   0.050   2.702  0.7404  1.7799 -0.3984
  737TIP3    H223627   3.184  -0.022   2.697 -1.2878 -2.2020  0.4810
  738TIP3   OH223628   4.398   5.736   4.401  0.0308 -0.0794  0.0615
  738TIP3    H123629   4.369   5.765   4.487  0.9792  1.7804 -0.2277
  738TIP3    H223630   4.493   5.740   4.405  0.1146 -0.9947 -0.7346
  739TIP3   OH223631   5.710   3.072   3.437 -0.7738 -0.6663  0.0840
  739TIP3    H123632   5.703   3.035   3.349 -3.8673 -1.5214  0.6376
  739TIP3    H223633   5.664   3.156   3.431  0.0232 -0.1895  0.6048
  740TIP3   OH223634   5.359   0.082  13.952  0.1296 -0.2697  0.1215
  740TIP3    H123635   5.272   0.076  13.913  0.3323  0.5341 -0.4753
  740TIP3    H223636   5.351   0.149  14.020 -0.2984 -1.8793  1.6992
  741TIP3   OH223637   0.914   1.536   1.917  0.1381 -0.3665  0.3885
  741TIP3    H123638   0.879   1.620   1.889  2.0514  0.2575 -0.2040
  741TIP3    H223639   0.935   1.490   1.836  1.4128 -0.3983  0.7208
  742TIP3   OH223640   5.916   2.148   1.640  0.3678 -0.1005 -0.1609
  742TIP3    H123641   5.855   2.074   1.637  0.6548 -0.3459  0.0302
  742TIP3    H223642   5.981   2.129   1.573 -0.9103  1.1763 -1.7909
  743TIP3   OH223643   2.853   5.088   5.372 -0.0437  0.5667 -0.0730
  743TIP3    H123644   2.794   5.046   5.309 -1.5891  1.8687  0.4687
  743TIP3    H223645   2.889   5.162   5.325 -0.8035  1.2426  0.3995
  744TIP3   OH223646   0.447   6.050   5.301  0.5193 -0.0385  0.3884
  744TIP3    H123647   0.539   6.069   5.287  1.1657 -1.6217  2.3573
  744TIP3    H223648   0.416   6.123   5.355  1.2228 -0.7351  1.7586
  745TIP3   OH223649   6.589   6.550   4.363  0.3315  0.2104 -0.3277
  745TIP3    H123650   6.618   6.618   4.301  0.1351  0.7918  0.2144
  745TIP3    H223651   6.494   6.559   4.366  0.4194  0.8584  0.8240
  746TIP3   OH223652   2.734   5.809   3.889 -0.5106  0.1946  0.3025
  746TIP3    H123653   2.810   5.866   3.875 -1.1767  1.1619  0.6567
  746TIP3    H223654   2.712   5.819   3.981 -2.5635  1.7795 -0.3280
  747TIP3   OH223655   1.465   2.180  13.968  0.0231 -0.1911 -0.0545
  747TIP3    H123656   1.475   2.146  14.057 -0.8660  2.0269  0.9304
  747TIP3    H223657   1.389   2.135  13.933  0.6562 -1.4171  0.1202
  748TIP3   OH223658   3.256   3.324   1.686  0.5043 -0.0679  0.4058
  748TIP3    H123659   3.223   3.402   1.730  0.2098  0.3888 -0.6249
  748TIP3    H223660   3.330   3.355   1.634 -0.3262 -0.2549 -0.9211
  749TIP3   OH223661   6.143   2.078   2.636  0.1384  0.3344 -0.2004
  749TIP3    H123662   6.094   2.138   2.693  0.9620  0.3470  0.4969
  749TIP3    H223663   6.137   2.118   2.550  0.2897  1.1856  0.1793
  750TIP3   OH223664   2.851   1.815  15.771 -0.4494  0.1264  0.7369
  750TIP3    H123665   2.794   1.740  15.758  1.5746 -1.3191 -0.1732
  750TIP3    H223666   2.933   1.777  15.803  0.5267  1.9834  0.5258
  751TIP3   OH223667   5.092   3.453  11.800 -0.0438 -0.9731 -0.3454
  751TIP3    H123668   5.181   3.486  11.811 -0.8940  0.6957  2.1423
  751TIP3    H223669   5.054   3.509  11.732  0.0561 -0.0397  0.3556
  752TIP3   OH223670   0.189   0.117  15.280 -0.0433  0.5222 -0.0076
  752TIP3    H123671   0.110   0.172  15.278 -0.2577  0.2192 -0.0019
  752TIP3    H223672   0.177   0.057  15.206  0.5793  1.0192 -0.5195
  753TIP3   OH223673   2.184   6.434   0.546  0.5337 -0.4250  0.1146
  753TIP3    H123674   2.196   6.340   0.559  1.5757 -0.3637 -0.3058
  753TIP3    H223675   2.094   6.451   0.573  1.2906 -1.0006  3.3036
  754TIP3   OH223676   6.086   0.798   5.778  0.2001 -0.1135 -0.3435
  754TIP3    H123677   6.045   0.882   5.759  0.4193 -0.3117 -1.7744
  754TIP3    H223678   6.053   0.740   5.709 -0.2347 -1.2880  0.8505
  755TIP3   OH223679   2.580   3.926   4.217 -0.4480  0.7611 -0.1031
  755TIP3    H123680   2.657   3.963   4.173  0.2952  0.2544  0.7442
  755TIP3    H223681   2.592   3.949   4.309  0.0364 -1.5490  0.4559
  756TIP3   OH223682   5.978   3.476   1.444 -0.1322  0.1878  0.0217
  756TIP3    H123683   6.019   3.554   1.406  0.5228  0.2328  0.8003
  756TIP3    H223684   6.008   3.476   1.535 -0.9459 -0.4176  0.2906
  757TIP3   OH223685   4.645   4.224   5.684  0.0249 -0.0530  0.2597
  757TIP3    H123686   4.588   4.169   5.737  2.5527 -1.8438  1.1957
  757TIP3    H223687   4.665   4.299   5.740 -0.0870 -0.2472  0.5616
  758TIP3   OH223688   4.548   4.173   3.423 -0.2805 -0.2582  0.2918
  758TIP3    H123689   4.623   4.204   3.475 -0.3904 -0.1090  0.3595
  758TIP3    H223690   4.507   4.253   3.390  0.1036 -0.3690 -0.4682
  759TIP3   OH223691   0.969   3.241   0.515  0.0355  0.7180  0.6574
  759TIP3    H123692   0.927   3.321   0.484 -2.0022  0.1078  1.8114
  759TIP3    H223693   0.979   3.187   0.437  0.8890  1.8400 -0.0265
  760TIP3   OH223694   6.243   6.744   3.055 -0.2001  0.5451  0.3050
  760TIP3    H123695   6.198   6.664   3.080  0.4241 -0.2804 -1.2074
  760TIP3    H223696   6.191   6.814   3.095 -1.0916 -0.5586  1.1056
  761TIP3   OH223697   3.244   0.094  15.964  0.5112  0.5583  0.3494
  761TIP3    H123698   3.161   0.053  15.938  0.9846 -0.3632  0.2532
  761TIP3    H223699   3.248   0.082  16.059  0.1297  1.3736  0.4716
  762TIP3   OH223700   3.587   6.560   1.850  0.5980 -0.0868  0.6744
  762TIP3    H123701   3.605   6.616   1.926 -0.2758 -1.5277  1.9749
  762TIP3    H223702   3.585   6.471   1.886  0.2027 -0.7889 -1.0501
  763TIP3   OH223703   1.694   4.375  11.876  0.1388 -0.0889  0.0001
  763TIP3    H123704   1.675   4.297  11.928 -1.1650  0.0610 -0.2293
  763TIP3    H223705   1.701   4.446  11.940  0.8583 -0.2976  0.1641
  764TIP3   OH223706   5.471   2.567  14.493  0.9837  0.1994 -0.4166
  764TIP3    H123707   5.382   2.601  14.492  0.4536 -1.1920 -1.7269
  764TIP3    H223708   5.506   2.593  14.579 -0.7211  0.6040  0.1654
  765TIP3   OH223709   5.732   2.516  14.024 -0.7844 -0.1708 -0.2120
  765TIP3    H123710   5.759   2.424  14.026  0.0810  0.0945  1.2381
  765TIP3    H223711   5.746   2.544  13.934  0.2294 -1.0966 -0.3425
  766TIP3   OH223712   1.170   4.358   4.472 -0.1994 -0.4690 -0.1427
  766TIP3    H123713   1.257   4.321   4.485 -0.1036 -0.9256 -1.8480
  766TIP3    H223714   1.144   4.392   4.557  1.6361 -0.3652  0.3855
  767TIP3   OH223715   2.771   0.081  13.730 -0.6376  0.1390 -0.5225
  767TIP3    H123716   2.763  -0.013  13.712 -0.5315  0.3636 -1.7776
  767TIP3    H223717   2.699   0.100  13.789  0.6411 -1.1723  1.5541
  768TIP3   OH223718   4.789   2.941  14.998  0.0081 -0.5613  0.1645
  768TIP3    H123719   4.742   2.872  14.951  1.0002 -0.8816 -0.3576
  768TIP3    H223720   4.858   2.895  15.045  1.5554  0.2453 -1.2960
  769TIP3   OH223721   1.077   3.043   3.898  0.2207 -0.2099  0.6912
  769TIP3    H123722   1.156   3.086   3.866 -0.7693  0.5583 -0.7722
  769TIP3    H223723   1.011   3.059   3.830 -1.2241 -0.7599  1.9221
  770TIP3   OH223724   2.457   3.273  14.097  0.3923 -0.2764 -0.3075
  770TIP3    H123725   2.436   3.292  14.006 -0.7138 -1.3964 -0.2994
  770TIP3    H223726   2.381   3.303  14.146  0.5320 -0.6389  0.1372
  771TIP3   OH223727   0.031   4.977  15.094  0.2289 -0.0968 -0.6065
  771TIP3    H123728   0.059   5.052  15.042 -0.3762 -1.0805 -2.4409
  771TIP3    H223729  -0.025   5.013  15.163  0.2615  1.1657 -1.2377
  772TIP3   OH223730   4.121   0.075   2.292 -0.0570 -0.2871  0.0706
  772TIP3    H123731   4.158   0.147   2.240 -1.6030  0.5324  0.0777
  772TIP3    H223732   4.126  -0.001   2.235 -0.2306  0.2598 -0.6841
  773TIP3   OH223733   4.621   5.338  13.710  0.3258 -0.3381  0.1283
  773TIP3    H123734   4.536   5.369  13.678  0.0427 -0.9557  0.2819
  773TIP3    H223735   4.627   5.372  13.799  1.1030  1.3580 -0.5475
  774TIP3   OH223736   2.369   2.719  15.031 -0.2335  0.0762 -0.3807
  774TIP3    H123737   2.410   2.764  15.104  0.9396 -1.3802 -0.1172
  774TIP3    H223738   2.439   2.708  14.967 -0.3250 -1.9011 -0.1739
  775TIP3   OH223739   5.094   1.707   4.209 -0.3013 -0.5703  0.1227
  775TIP3    H123740   5.178   1.671   4.236 -0.7967 -1.3538  0.6330
  775TIP3    H223741   5.116   1.785   4.159  0.7164 -0.6126  0.5087
  776TIP3   OH223742   4.765   4.056  12.405 -0.0049 -0.4888  0.1523
  776TIP3    H123743   4.799   4.143  12.383  0.8314 -0.7318  0.4601
  776TIP3    H223744   4.716   4.069  12.486  1.9128 -0.6812  1.3751
  777TIP3   OH223745   0.674   0.422  13.345  0.0645 -0.0008 -0.0378
  777TIP3    H123746   0.641   0.495  13.293  1.3695  0.6659  0.0187
  777TIP3    H223747   0.599   0.364  13.357 -1.0307  1.3917  0.0067
  778TIP3   OH223748   1.911   1.182   0.922 -0.4108  0.3448  0.2280
  778TIP3    H123749   1.823   1.158   0.950 -0.7565  1.2612 -0.0515
  778TIP3    H223750   1.931   1.261   0.971 -0.3491  0.9960 -0.8392
  779TIP3   OH223751   4.390   0.576  16.726 -1.0323  0.3889  0.4723
  779TIP3    H123752   4.447   0.651  16.742 -1.3505  0.8241 -0.3509
  779TIP3    H223753   4.325   0.580  16.796 -1.8035  1.6501 -0.2824
  780TIP3   OH223754   0.615   6.296   0.901 -0.4970  0.0805  0.6891
  780TIP3    H123755   0.600   6.369   0.961 -1.2859 -0.7701  1.5327
  780TIP3    H223756   0.530   6.252   0.894 -0.5267  0.4340 -1.4077
  781TIP3   OH223757   0.494   3.663   3.451  0.0437 -0.7917 -0.1183
  781TIP3    H123758   0.510   3.573   3.482 -0.4975 -1.2700 -1.1919
  781TIP3    H223759   0.465   3.652   3.360  1.0296  0.5585 -0.6004
  782TIP3   OH223760   4.709   5.588  12.610  0.4663 -1.0055  0.1871
  782TIP3    H123761   4.660   5.537  12.674 -2.2521  0.9319 -0.2890
  782TIP3    H223762   4.721   5.673  12.651 -1.0467  0.1701 -1.7535
  783TIP3   OH223763   1.372   1.156   2.385 -0.5569  0.0212 -0.0025
  783TIP3    H123764   1.388   1.249   2.368 -1.9010  0.8573  2.8907
  783TIP3    H223765   1.454   1.124   2.423 -0.7096  0.4956  0.7320
  784TIP3   OH223766   1.454   5.123   0.556 -0.3652 -0.2063 -0.4527
  784TIP3    H123767   1.446   5.213   0.522 -1.2414  0.6960  2.0384
  784TIP3    H223768   1.453   5.134   0.651  0.4599 -2.7984 -0.1314
  785TIP3   OH223769   3.478   3.285  13.127 -0.4709 -0.4329 -0.0721
  785TIP3    H123770   3.494   3.373  13.161 -0.6337 -0.4125 -0.0463
  785TIP3    H223771   3.406   3.252  13.180 -0.7154 -0.4070 -0.3844
  786TIP3   OH223772   4.772   0.518   0.639  0.1165 -0.0598 -0.0949
  786TIP3    H123773   4.827   0.593   0.662  1.8830 -1.6024  0.8985
  786TIP3    H223774   4.692   0.531   0.690  1.1801  0.1862  1.5546
  787TIP3   OH223775   1.362   3.643   3.447 -0.2199 -0.2193 -0.4113
  787TIP3    H123776   1.401   3.571   3.398 -0.4751 -0.5000 -0.1992
  787TIP3    H223777   1.329   3.604   3.528  0.0788  0.2201 -0.0734
  788TIP3   OH223778   3.887   3.859  15.553  0.3200 -0.2444 -0.3855
  788TIP3    H123779   3.884   3.892  15.463 -0.0283  1.3181  0.1850
  788TIP3    H223780   3.813   3.799  15.560  0.1433 -0.0968 -1.0327
  789TIP3   OH223781   2.070   0.316  14.796  0.2220  0.4522  0.2669
  789TIP3    H123782   2.146   0.368  14.821 -0.4606  1.7493 -0.3110
  789TIP3    H223783   2.002   0.341  14.858 -1.1575  2.8881 -2.1295
  790TIP3   OH223784   6.281   5.220  16.770  0.6386  0.0602  0.1174
  790TIP3    H123785   6.357   5.254  16.818  1.6002 -1.0480 -0.6059
  790TIP3    H223786   6.248   5.296  16.721  0.9177  0.6812  0.8724
  791TIP3   OH223787   3.678   5.641  11.964 -0.1125 -0.0757 -0.3819
  791TIP3    H123788   3.632   5.592  12.032  1.1200 -2.3376 -1.1273
  791TIP3    H223789   3.742   5.579  11.928 -0.0101  1.3854 -2.8803
  792TIP3   OH223790   0.751   3.404  14.262 -0.5400 -0.4715  0.2544
  792TIP3    H123791   0.723   3.494  14.245  1.5661 -0.2731 -2.4555
  792TIP3    H223792   0.833   3.413  14.311 -1.3928 -0.9654  1.8042
  793TIP3   OH223793   0.201   3.170  14.196 -0.1091  0.5422 -0.1673
  793TIP3    H123794   0.288   3.207  14.179 -0.1239  0.1308 -1.1655
  793TIP3    H223795   0.142   3.219  14.138 -0.3182 -0.1788 -0.5627
  794TIP3   OH223796   1.877   2.498  15.545 -0.6587  0.6100 -0.0978
  794TIP3    H123797   1.958   2.509  15.496 -1.9629 -0.3233 -2.5538
  794TIP3    H223798   1.903   2.453  15.625  1.3284  0.9792 -0.5143
  795TIP3   OH223799   1.297   0.889   4.260  0.3627 -0.3775  0.2301
  795TIP3    H123800   1.228   0.899   4.326 -0.9643  1.7476 -1.4316
  795TIP3    H223801   1.261   0.830   4.195  1.0851 -1.2385  0.5937
  796TIP3   OH223802   3.804   2.143   1.927 -0.1299 -0.3634  0.2228
  796TIP3    H123803   3.897   2.117   1.927 -0.6179 -2.1901 -0.4988
  796TIP3    H223804   3.793   2.190   2.010  1.3526 -0.4877  0.5116
  797TIP3   OH223805   3.180   1.100   5.319 -0.2235  0.3713  0.2259
  797TIP3    H123806   3.171   1.174   5.379  1.7842  1.8997 -1.2610
  797TIP3    H223807   3.190   1.024   5.376 -0.8176  1.4364  1.8015
  798TIP3   OH223808   4.929   6.783   0.677 -0.0458 -0.1451  0.7109
  798TIP3    H123809   4.996   6.810   0.615 -1.1589 -0.6394 -0.7443
  798TIP3    H223810   4.868   6.857   0.680  0.3493  0.1398  1.7113
  799TIP3   OH223811   4.184   5.135  10.833 -0.3178 -0.3329 -0.2494
  799TIP3    H123812   4.278   5.120  10.824  0.4999  2.9567  1.7567
  799TIP3    H223813   4.158   5.179  10.752  0.5312  1.2881  0.3229
  800TIP3   OH223814   3.060   1.713   1.179  0.1439 -0.4650  0.0456
  800TIP3    H123815   3.087   1.706   1.087 -1.3833 -2.2883 -0.2818
  800TIP3    H223816   3.100   1.637   1.222  0.1652 -0.0766  0.7212
  801TIP3   OH223817   0.858   0.469   2.060  0.2147  0.4137 -0.7443
  801TIP3    H123818   0.807   0.410   2.005  0.2821  0.9413 -1.3728
  801TIP3    H223819   0.794   0.528   2.099  0.1866  0.1601 -0.4128
  802TIP3   OH223820   2.754   2.588  14.250 -0.3132  0.3925 -0.3886
  802TIP3    H123821   2.698   2.666  14.252 -0.6261  0.1530  1.4753
  802TIP3    H223822   2.700   2.520  14.211 -0.9264  0.4542  0.3525
  803TIP3   OH223823   0.470   6.225  14.121  0.4357  0.6524 -0.2171
  803TIP3    H123824   0.553   6.231  14.167 -1.1376  0.4070  2.7292
  803TIP3    H223825   0.430   6.144  14.153 -1.1699  1.0230 -1.2169
  804TIP3   OH223826   2.840   6.641   2.227  0.1472  0.4331 -0.2043
  804TIP3    H123827   2.922   6.644   2.277  0.4155  0.1918 -0.6229
  804TIP3    H223828   2.868   6.626   2.136 -0.3618  0.3708 -0.3537
  805TIP3   OH223829   3.226   4.822  12.009 -0.3358 -0.1509  0.0736
  805TIP3    H123830   3.159   4.797  12.073  0.3809 -0.6104  0.6443
  805TIP3    H223831   3.211   4.763  11.936 -2.0083  1.2366 -0.7665
  806TIP3   OH223832   3.250   5.387  10.968 -1.0452 -0.1094 -0.1222
  806TIP3    H123833   3.203   5.316  11.013 -1.7671  1.0324  0.9860
  806TIP3    H223834   3.343   5.368  10.984 -1.2066 -1.1831 -0.4342
  807TIP3   OH223835   6.199   4.898   3.136 -1.0572  0.2063  0.1711
  807TIP3    H123836   6.189   4.826   3.073  0.3620  1.3943 -1.4879
  807TIP3    H223837   6.236   4.970   3.084  2.0411  0.6103  2.7285
  808TIP3   OH223838   4.770   5.163  10.733 -0.2268 -0.4491 -0.0599
  808TIP3    H123839   4.737   5.078  10.764 -2.2848  0.8497  1.4392
  808TIP3    H223840   4.864   5.150  10.724 -0.9059 -4.0420 -3.6652
  809TIP3   OH223841   2.030   0.503  15.841 -0.0029  0.4524  0.2372
  809TIP3    H123842   2.052   0.521  15.750 -0.8172  1.2759  0.1917
  809TIP3    H223843   2.109   0.525  15.890 -0.2868  2.1708 -0.0446
  810TIP3   OH223844   4.444   3.938  16.957 -0.0733 -0.2505 -0.0977
  810TIP3    H123845   4.388   3.983  16.893  2.9316  1.1358 -1.8404
  810TIP3    H223846   4.462   3.853  16.918  0.6705  0.0906 -0.5219
  811TIP3   OH223847   0.702   2.564  13.011  0.1590  0.4628 -0.1311
  811TIP3    H123848   0.795   2.565  13.032 -0.1665 -0.3640  1.4346
  811TIP3    H223849   0.658   2.573  13.096 -1.1923  0.1871 -0.7859
  812TIP3   OH223850   4.540   3.902  13.184 -0.0929  0.2023 -0.2485
  812TIP3    H123851   4.540   3.921  13.277 -2.0027 -1.3236  0.0955
  812TIP3    H223852   4.633   3.893  13.161  0.3497 -0.2593  1.6862
  813TIP3   OH223853   1.948   2.414  12.637  0.7474 -0.4355  0.0560
  813TIP3    H123854   1.902   2.497  12.651 -0.4155 -1.3283  1.6761
  813TIP3    H223855   1.888   2.347  12.671  1.3507 -2.0175 -1.8886
  814TIP3   OH223856   0.526   4.810  16.124 -0.1121  0.3729 -0.3483
  814TIP3    H123857   0.569   4.851  16.049 -1.0282  1.0387 -0.5181
  814TIP3    H223858   0.597   4.796  16.187  0.2919  1.7717 -0.4783
  815TIP3   OH223859   2.397   6.201  17.125  0.0419  0.7086  0.3404
  815TIP3    H123860   2.455   6.252  17.181 -0.8531  1.1799  0.8594
  815TIP3    H223861   2.372   6.261  17.055  2.6803 -0.4580 -1.6821
  816TIP3   OH223862   2.772   3.506  11.204  0.0989 -0.2339  0.2673
  816TIP3    H123863   2.755   3.498  11.110 -0.4509 -1.3438  0.4480
  816TIP3    H223864   2.796   3.418  11.232  1.9968  0.4308  0.8526
  817TIP3   OH223865   5.893   4.149  15.578 -0.2863  0.1551  0.3353
  817TIP3    H123866   5.954   4.075  15.582 -0.2222  0.1469 -0.7937
  817TIP3    H223867   5.949   4.225  15.562 -0.4718  0.2897  0.3268
  818TIP3   OH223868   1.620   2.397  15.700 -0.3503  0.2652 -0.4355
  818TIP3    H123869   1.626   2.343  15.779 -1.5717 -1.8911 -1.7565
  818TIP3    H223870   1.660   2.480  15.725  2.5060 -1.5342  1.4318
  819TIP3   OH223871   4.116   6.231   6.186  0.2216 -0.6160  0.2265
  819TIP3    H123872   4.098   6.144   6.222 -1.3744 -0.7925 -0.9175
  819TIP3    H223873   4.035   6.280   6.202  0.9274  0.4919  0.3963
  820TIP3   OH223874   4.933   3.824  11.319 -0.1634 -0.7199 -0.3452
  820TIP3    H123875   4.898   3.840  11.406  1.9880 -0.7844  0.5725
  820TIP3    H223876   5.003   3.889  11.309  0.1785 -1.2697 -1.6720
  821TIP3   OH223877   1.475   3.154  14.204  0.1126  0.0627 -0.1520
  821TIP3    H123878   1.424   3.091  14.153 -1.5917  0.3441  1.1563
  821TIP3    H223879   1.493   3.109  14.287 -2.0002  1.6251  1.2041
  822TIP3   OH223880   1.185   3.069  16.018  0.1148  0.7697 -0.2669
  822TIP3    H123881   1.116   3.056  16.082  0.2833  0.6055 -0.1178
  822TIP3    H223882   1.140   3.072  15.934 -0.3078  2.8503  0.0126
  823TIP3   OH223883   4.415   6.078  16.526  0.1068  0.2183  0.5741
  823TIP3    H123884   4.340   6.030  16.561 -0.3649  1.1335  0.8605
  823TIP3    H223885   4.468   6.098  16.604  0.2677  0.2089  0.4671
  824TIP3   OH223886   3.120   5.025  13.354 -0.0799 -0.3801 -0.0988
  824TIP3    H123887   3.155   5.100  13.306 -0.0764 -0.6214 -0.4732
  824TIP3    H223888   3.194   4.994  13.407 -0.2482  0.2456  0.5093
  825TIP3   OH223889   3.998   3.905   1.048  0.2078  0.1349  0.0524
  825TIP3    H123890   4.087   3.871   1.052 -0.9380 -3.3754 -1.9692
  825TIP3    H223891   4.006   3.989   1.002  2.2366 -1.2944 -2.3429
  826TIP3   OH223892   2.998   2.053   4.752  0.6756 -0.4256  0.4689
  826TIP3    H123893   3.039   2.060   4.666 -1.1807  0.3149 -0.3705
  826TIP3    H223894   3.061   2.094   4.812  0.3187  2.5268 -1.0931
  827TIP3   OH223895   2.001   3.418   0.372  0.2671 -0.5513 -1.0086
  827TIP3    H123896   2.039   3.352   0.429 -0.8452  0.8805  1.4780
  827TIP3    H223897   2.075   3.469   0.340  0.7279  0.3279  1.3673
  828TIP3   OH223898   6.585   0.735  11.349 -0.2397  0.2642  0.4731
  828TIP3    H123899   6.574   0.767  11.259 -1.2481  0.1676  0.5568
  828TIP3    H223900   6.497   0.708  11.375  0.3862 -1.4891  0.8167
  829TIP3   OH223901   2.488   0.034  11.296 -0.2294  0.6766 -0.4013
  829TIP3    H123902   2.552   0.073  11.356  1.6967 -1.5578 -0.9536
  829TIP3    H223903   2.404   0.070  11.325  0.7763  0.5397  2.9003
  830TIP3   OH223904   4.066   1.305  12.790  0.1554 -0.1225 -0.6835
  830TIP3    H123905   4.074   1.223  12.839 -0.5879  0.6049  0.6779
  830TIP3    H223906   4.149   1.351  12.807  0.8888 -0.8849 -2.0496
  831TIP3   OH223907   2.971   5.099   1.108 -0.2803 -0.1262 -0.3539
  831TIP3    H123908   2.909   5.049   1.162 -0.1856 -0.3304 -0.4326
  831TIP3    H223909   3.015   5.157   1.170  1.4195 -1.9184  0.2022
  832TIP3   OH223910   2.226   5.722   1.137  0.2046 -0.2063 -0.0629
  832TIP3    H123911   2.185   5.804   1.161 -0.5287 -0.8354  0.8658
  832TIP3    H223912   2.283   5.744   1.063 -1.0501  0.8582 -0.7277
  833TIP3   OH223913   2.029   2.037   6.080 -0.0417  0.8060 -0.0984
  833TIP3    H123914   2.041   1.942   6.082 -0.4977  0.6934 -1.8556
  833TIP3    H223915   1.985   2.057   6.163 -1.8818 -0.7978 -0.6355
  834TIP3   OH223916   2.125   2.462  12.122 -0.6343  0.9780 -0.0728
  834TIP3    H123917   2.077   2.394  12.075  0.7141  0.9498 -1.4422
  834TIP3    H223918   2.116   2.438  12.214 -2.4248  0.4458 -0.3622
  835TIP3   OH223919   3.526   2.483   5.079 -1.0717  0.1481 -0.4909
  835TIP3    H123920   3.495   2.406   5.030 -1.1186  1.2140 -2.1901
  835TIP3    H223921   3.622   2.475   5.076 -1.0917 -1.1620  1.5260
  836TIP3   OH223922   3.403   6.319   1.307 -0.3856 -0.4739 -0.3898
  836TIP3    H123923   3.352   6.254   1.354 -3.8140  0.6604 -2.3391
  836TIP3    H223924   3.397   6.292   1.215  0.7905  0.8691 -0.8810
  837TIP3   OH223925   1.620   6.261  12.981  0.5764 -0.4247  0.2810
  837TIP3    H123926   1.699   6.214  12.952  1.0900  1.0244 -0.7420
  837TIP3    H223927   1.649   6.352  12.992 -0.5421 -0.2103  1.6518
  838TIP3   OH223928   1.163   3.026  11.791  0.5065 -0.3858  0.3930
  838TIP3    H123929   1.201   2.963  11.730 -0.3349 -0.7430  0.2273
  838TIP3    H223930   1.116   3.088  11.736  0.6962 -0.0510  0.6046
  839TIP3   OH223931   4.147   4.609  16.124  0.6055 -0.1424  0.0053
  839TIP3    H123932   4.057   4.616  16.153  0.7608  1.1431  0.1987
  839TIP3    H223933   4.178   4.699  16.117  1.1660 -0.4680 -2.2898
  840TIP3   OH223934   0.218   2.778   3.072 -0.6207 -0.3864  0.4215
  840TIP3    H123935   0.212   2.739   3.159 -1.8791 -0.6289  0.2354
  840TIP3    H223936   0.196   2.706   3.013 -1.6623  0.2548  0.0102
  841TIP3   OH223937   2.189   1.333  16.888  0.6400  0.5765  0.1933
  841TIP3    H123938   2.186   1.428  16.899  1.8770  0.4777  1.4619
  841TIP3    H223939   2.155   1.298  16.970 -0.8359 -0.0762 -0.6831
  842TIP3   OH223940   4.276   2.217   4.816  0.4964  0.2025  0.1865
  842TIP3    H123941   4.306   2.253   4.899 -1.1642 -0.0649  0.9314
  842TIP3    H223942   4.339   2.147   4.796 -0.5104 -1.4313  2.5189
  843TIP3   OH223943   6.112   2.357  14.120 -0.2739  0.4298  0.1486
  843TIP3    H123944   6.050   2.422  14.153  0.0932  0.6175  0.4730
  843TIP3    H223945   6.105   2.362  14.025  0.3806  1.5605  0.1496
  844TIP3   OH223946   1.673   4.928   3.230 -0.1497 -0.4208 -0.0159
  844TIP3    H123947   1.612   4.864   3.193 -0.0547  0.8545 -2.4607
  844TIP3    H223948   1.757   4.882   3.233 -0.4209 -0.9353 -0.1706
  845TIP3   OH223949   0.292   1.703  15.797 -0.4722 -0.6379 -0.3895
  845TIP3    H123950   0.232   1.692  15.723 -1.6040  0.3874  0.3686
  845TIP3    H223951   0.280   1.794  15.824  0.7032 -0.7151  0.3994
  846TIP3   OH223952   3.749   4.841   3.073 -0.2527  0.4906 -0.0551
  846TIP3    H123953   3.748   4.910   3.138 -0.5453 -0.2287  0.7136
  846TIP3    H223954   3.753   4.760   3.124 -1.9825 -0.1411 -0.8763
  847TIP3   OH223955   4.871   5.333   4.528 -0.2633 -0.8253 -0.4523
  847TIP3    H123956   4.830   5.358   4.611  1.5085 -0.4733  0.3455
  847TIP3    H223957   4.824   5.383   4.462 -0.2063  0.6277  0.5883
  848TIP3   OH223958   2.000   4.283   1.520  0.5425 -0.5471  0.5451
  848TIP3    H123959   1.990   4.346   1.592 -0.7338  1.4622 -1.3209
  848TIP3    H223960   2.089   4.298   1.487  0.8382 -0.9106  1.1586
  849TIP3   OH223961   0.953   2.409  15.060  0.4462 -0.1686  0.1613
  849TIP3    H123962   0.866   2.407  15.100  0.3002 -2.0149 -0.2127
  849TIP3    H223963   0.939   2.449  14.974  0.4785  2.2428  1.2547
  850TIP3   OH223964   1.391   4.370   0.537 -0.2486 -0.0157 -0.6631
  850TIP3    H123965   1.389   4.315   0.459  1.2458 -1.5908  0.3657
  850TIP3    H223966   1.462   4.333   0.591  0.1238  2.2862  0.5141
  851TIP3   OH223967   5.806   5.897  11.859 -0.3442 -0.4853  0.1471
  851TIP3    H123968   5.821   5.805  11.838  2.4281 -0.0234 -0.0659
  851TIP3    H223969   5.825   5.903  11.953 -0.1891 -0.0734  0.0917
  852TIP3   OH223970   5.133   0.090  12.588  0.0413  0.1004  0.4121
  852TIP3    H123971   5.146   0.183  12.568 -2.7009  0.1231 -1.4564
  852TIP3    H223972   5.163   0.044  12.510  0.2333 -0.5098  0.8458
  853TIP3   OH223973   3.937   6.130   4.249 -0.2234  0.0565  0.7705
  853TIP3    H123974   3.845   6.142   4.273 -0.3022 -0.2613  0.6323
  853TIP3    H223975   3.986   6.166   4.322 -0.4609 -0.6394  1.2764
  854TIP3   OH223976   4.718   5.871  14.190 -0.0757  0.3708 -0.2838
  854TIP3    H123977   4.742   5.821  14.268 -0.3234 -2.7419 -2.0764
  854TIP3    H223978   4.742   5.961  14.210  0.4408 -0.4537  3.1125
  855TIP3   OH223979   2.635   2.818  16.414  0.1494  0.1904  0.8948
  855TIP3    H123980   2.563   2.875  16.388  1.2467  1.1331 -0.1102
  855TIP3    H223981   2.596   2.730  16.417 -0.6979  0.4725 -1.1177
  856TIP3   OH223982   3.379   3.596  13.391 -0.3930  0.2169  0.2153
  856TIP3    H123983   3.451   3.541  13.358 -0.9589 -0.7894  0.6530
  856TIP3    H223984   3.415   3.638  13.469 -0.4160 -0.6356  0.6931
  857TIP3   OH223985   4.529   3.264   2.255  0.2096 -0.4642 -0.3399
  857TIP3    H123986   4.593   3.314   2.305 -0.9551  0.2214  0.4735
  857TIP3    H223987   4.534   3.300   2.166  1.2997 -0.7580 -0.4069
  858TIP3   OH223988   6.137   3.681   5.186 -0.0472  0.0765  0.4918
  858TIP3    H123989   6.120   3.642   5.272  0.0105 -1.6041 -0.2317
  858TIP3    H223990   6.099   3.768   5.191 -2.0476 -0.8304  1.4705
  859TIP3   OH223991   5.744   2.486   4.704 -0.4328  0.1895 -0.1565
  859TIP3    H123992   5.779   2.397   4.712 -2.3819 -0.6234 -0.5788
  859TIP3    H223993   5.822   2.540   4.688  1.0705 -1.0823  2.4896
  860TIP3   OH223994   5.540   3.718   0.855  0.0205 -0.3870  0.0558
  860TIP3    H123995   5.573   3.778   0.922  1.7561 -0.5795 -0.6043
  860TIP3    H223996   5.462   3.679   0.895 -0.9766  2.0480  0.6037
  861TIP3   OH223997   2.151   5.689   2.642  0.0505  0.3272 -0.5502
  861TIP3    H123998   2.173   5.691   2.549 -0.6819  1.8091 -0.7100
  861TIP3    H223999   2.119   5.600   2.657  0.4212 -0.0024 -1.6514
  862TIP3   OH224000   2.432   0.106   1.748  0.3320  0.1875 -0.4602
  862TIP3    H124001   2.400   0.061   1.669  0.7590  1.4495 -1.3712
  862TIP3    H224002   2.509   0.154   1.719  0.7379  0.3328  0.8292
  863TIP3   OH224003   0.588   3.333   4.422  0.1901 -0.1043  1.0552
  863TIP3    H124004   0.596   3.425   4.447  1.8364  0.0274  0.1078
  863TIP3    H224005   0.580   3.286   4.506  0.6383  0.7737  1.5914
  864TIP3   OH224006   0.409   1.246  15.967 -0.3894 -0.7568  0.0439
  864TIP3    H124007   0.338   1.181  15.964  0.1430 -1.3407 -0.0386
  864TIP3    H224008   0.489   1.194  15.964  0.0465 -0.0474 -0.7985
  865TIP3   OH224009   0.358   2.611  10.556  0.0083 -0.1071  0.0336
  865TIP3    H124010   0.271   2.572  10.556 -0.3318  0.6357 -1.0098
  865TIP3    H224011   0.343   2.706  10.554  0.8283  0.0286 -0.2400
  866TIP3   OH224012   0.081   6.523   4.915  0.6174 -0.1640 -0.2941
  866TIP3    H124013   0.160   6.499   4.964  1.6699  2.6852 -0.4988
  866TIP3    H224014   0.114   6.574   4.841 -1.3740  0.2195 -0.9304
  867TIP3   OH224015   0.397   3.113  11.334 -0.4195  0.1740  0.5998
  867TIP3    H124016   0.465   3.074  11.280 -0.9682  1.7402 -1.2699
  867TIP3    H224017   0.315   3.085  11.294 -0.8287  1.3898  0.5613
  868TIP3   OH224018   4.720   4.854  13.100 -0.2528 -0.0163  0.4136
  868TIP3    H124019   4.791   4.856  13.036  0.3020 -1.6427  0.9709
  868TIP3    H224020   4.705   4.946  13.121 -0.1048  0.5120 -1.6722
  869TIP3   OH224021   6.699   2.159  13.863 -0.4708  0.5983  0.3365
  869TIP3    H124022   6.708   2.068  13.891  3.8027  1.0744  0.8713
  869TIP3    H224023   6.668   2.154  13.773  0.3881 -1.4507  0.1235
  870TIP3   OH224024   0.383   3.241   0.262 -0.4660 -0.7355  0.3022
  870TIP3    H124025   0.336   3.245   0.345  3.4908 -1.0348  2.7199
  870TIP3    H224026   0.401   3.333   0.240 -0.2866 -0.7129  0.5392
  871TIP3   OH224027   1.568   2.735   6.304  0.1823  0.0650 -0.3603
  871TIP3    H124028   1.620   2.807   6.342 -0.1411 -0.5098  1.2146
  871TIP3    H224029   1.501   2.779   6.251  0.8069  0.8813 -0.4766
  872TIP3   OH224030   2.933   1.684   1.476  0.5431  0.0565  0.7546
  872TIP3    H124031   2.978   1.747   1.420 -0.6250 -0.6422 -0.9793
  872TIP3    H224032   2.885   1.627   1.416  0.2283 -1.4499  2.3912
  873TIP3   OH224033   6.475   1.159   3.927 -0.3023  0.1665  0.1042
  873TIP3    H124034   6.428   1.242   3.922 -0.8830 -0.0147  2.1288
  873TIP3    H224035   6.477   1.128   3.836 -1.1364  1.7987 -0.5016
  874TIP3   OH224036   3.206   0.423  12.270 -0.2621 -0.1069  0.3358
  874TIP3    H124037   3.266   0.368  12.220 -0.6426  1.7236 -2.2592
  874TIP3    H224038   3.230   0.513  12.246 -2.8144  0.7122  0.6667
  875TIP3   OH224039   3.501   4.904   1.010  0.2739 -0.0715  0.1015
  875TIP3    H124040   3.479   4.811   1.009 -0.3055  0.0624  0.3021
  875TIP3    H224041   3.513   4.928   0.918 -1.1382  0.0255 -0.0620
  876TIP3   OH224042   2.161   0.076  13.627  0.2879 -0.0203 -0.3766
  876TIP3    H124043   2.118   0.156  13.598 -0.2367  0.4874  1.6864
  876TIP3    H224044   2.096   0.032  13.682  0.2607 -2.3082 -2.1694
  877TIP3   OH224045   2.047   6.716   5.346  0.3550 -0.1979 -0.0343
  877TIP3    H124046   2.094   6.646   5.391  0.8506 -0.4969 -1.0070
  877TIP3    H224047   2.079   6.713   5.256 -1.7144 -0.5594 -0.7775
  878TIP3   OH224048   0.144   5.562  11.635 -0.2600 -0.3305  0.0652
  878TIP3    H124049   0.124   5.595  11.548  0.8950  2.9218  0.9674
  878TIP3    H224050   0.062   5.525  11.666 -1.0062 -0.3754 -1.9139
  879TIP3   OH224051   3.614   0.777   1.707 -0.7001  0.0537 -0.1016
  879TIP3    H124052   3.573   0.751   1.790 -1.0792 -0.1258 -0.3451
  879TIP3    H224053   3.549   0.833   1.665 -0.4301  0.2958 -0.1950
  880TIP3   OH224054   1.682   4.704  10.885 -0.3483  0.6203  0.0441
  880TIP3    H124055   1.708   4.757  10.809 -2.6247  0.5629 -0.8169
  880TIP3    H224056   1.670   4.616  10.850  2.8251 -0.3892  1.3620
  881TIP3   OH224057   0.643   4.625   4.675  0.2085 -0.0461 -0.0483
  881TIP3    H124058   0.709   4.691   4.693  0.2438  0.5660 -2.2893
  881TIP3    H224059   0.566   4.675   4.646 -1.1401 -0.7674  2.1357
  882TIP3   OH224060   1.955   2.271   1.872 -0.3291  0.1108 -0.6210
  882TIP3    H124061   2.010   2.290   1.796 -0.0112 -0.0954 -0.4413
  882TIP3    H224062   1.913   2.355   1.893 -0.0690  0.2715 -0.7459
  883TIP3   OH224063   6.485   5.761  15.971 -0.1521 -0.4053  0.6920
  883TIP3    H124064   6.474   5.760  16.066  0.9750 -1.9414  0.8162
  883TIP3    H224065   6.428   5.691  15.939 -0.0711 -0.2885  0.2797
  884TIP3   OH224066   4.069   2.511  14.237 -0.8013 -0.4807 -0.3107
  884TIP3    H124067   4.159   2.493  14.264 -0.3873 -0.5214 -1.7178
  884TIP3    H224068   4.059   2.606  14.249 -0.9177 -0.6213  0.8294
  885TIP3   OH224069   1.291   1.443   3.954  0.3519 -0.0252  0.0250
  885TIP3    H124070   1.226   1.438   4.024  0.8267 -0.4616  0.4345
  885TIP3    H224071   1.261   1.516   3.899  0.0901  0.4584  0.7941
  886TIP3   OH224072   4.956   6.227   5.302  0.0007 -0.1838 -0.0902
  886TIP3    H124073   4.895   6.251   5.372  0.2182  1.4252 -0.4420
  886TIP3    H224074   5.032   6.191   5.347 -1.1869 -2.2176  0.3584
  887TIP3   OH224075   0.948   2.084   5.570 -0.2394  0.0896 -0.3534
  887TIP3    H124076   0.942   2.162   5.515  1.3554 -1.1549 -2.3618
  887TIP3    H224077   0.959   2.119   5.659  0.7395  2.1737 -1.2352
  888TIP3   OH224078   4.888   4.169   0.448 -0.1659  0.0290  0.8597
  888TIP3    H124079   4.867   4.260   0.430 -1.2778 -0.1886  0.9862
  888TIP3    H224080   4.810   4.135   0.492 -0.2613 -1.3090 -0.3002
  889TIP3   OH224081   3.510   0.802  16.452 -0.4959  0.4565  0.3636
  889TIP3    H124082   3.432   0.823  16.503 -0.1921 -0.7167  1.3147
  889TIP3    H224083   3.511   0.707  16.447  0.3729  0.4959 -0.4492
  890TIP3   OH224084   6.175   4.879  15.405  0.5556 -0.1245 -0.3039
  890TIP3    H124085   6.151   4.843  15.319 -3.1724  0.2553  0.4892
  890TIP3    H224086   6.203   4.968  15.387 -0.1794 -0.0544 -1.1422
  891TIP3   OH224087   2.996   4.557  14.234 -0.0104 -0.0013 -0.0493
  891TIP3    H124088   2.960   4.504  14.305 -2.4659 -0.1647 -1.3459
  891TIP3    H224089   3.016   4.642  14.274 -3.1497  0.5382  0.4637
  892TIP3   OH224090   3.240   5.699  15.985 -0.2084 -0.0898  0.4586
  892TIP3    H124091   3.220   5.776  16.038  0.9681  0.6046 -0.0894
  892TIP3    H224092   3.277   5.734  15.904 -0.7257 -1.1959 -0.2725
  893TIP3   OH224093   4.184   0.731  14.435  0.0644  0.4423 -0.1570
  893TIP3    H124094   4.219   0.770  14.515  0.1253  2.6527 -1.2157
  893TIP3    H224095   4.249   0.665  14.411  0.7293  0.7000  0.8881
  894TIP3   OH224096   1.224   0.707   5.714 -0.2685  0.1441  0.2490
  894TIP3    H124097   1.217   0.611   5.717  0.1228  0.1511  1.8193
  894TIP3    H224098   1.281   0.729   5.787 -0.9977  1.6407  0.3874
  895TIP3   OH224099   2.671   0.359   4.035  0.3806  0.5654 -0.2275
  895TIP3    H124100   2.716   0.324   3.959  0.6698  1.5830 -0.5350
  895TIP3    H224101   2.598   0.299   4.050  0.2893  0.3994 -1.3290
  896TIP3   OH224102   4.916   4.064   3.413  0.1446 -0.5635 -0.1445
  896TIP3    H124103   4.877   4.128   3.354 -0.7912  0.6099  1.7036
  896TIP3    H224104   4.992   4.030   3.365  0.4528  1.6652 -1.2783
  897TIP3   OH224105   6.450   4.694  14.385 -0.6805 -0.9896 -0.4383
  897TIP3    H124106   6.407   4.754  14.324 -1.5927 -0.8682  0.3142
  897TIP3    H224107   6.538   4.682  14.349 -1.8886 -2.5961 -2.9550
  898TIP3   OH224108   0.295   5.226   1.915 -0.2932 -0.2758 -0.6351
  898TIP3    H124109   0.343   5.249   1.994 -2.2612 -0.5668  0.6872
  898TIP3    H224110   0.362   5.212   1.849  1.3288  1.0833  0.6857
  899TIP3   OH224111   3.306   3.067   0.951  0.3573  0.1513  0.4352
  899TIP3    H124112   3.251   3.143   0.929  0.7384  1.1061  2.6260
  899TIP3    H224113   3.244   2.995   0.961  0.0088  0.0878 -1.8414
  900TIP3   OH224114   6.464   6.245  14.864  0.3325 -0.1257  0.0721
  900TIP3    H124115   6.535   6.277  14.919  0.3934  0.6551 -0.4575
  900TIP3    H224116   6.394   6.310  14.874 -0.3263 -0.9030  0.6130
  901TIP3   OH224117   1.560   5.175   3.431 -0.2411  0.3797 -0.1543
  901TIP3    H124118   1.518   5.253   3.395 -1.0402 -0.4797 -1.1018
  901TIP3    H224119   1.628   5.153   3.368 -0.3748  0.0010 -0.1686
  902TIP3   OH224120   4.631   6.560   4.881 -0.1411  0.3610  0.0791
  902TIP3    H124121   4.640   6.482   4.826  0.3202 -0.8725  1.8616
  902TIP3    H224122   4.689   6.624   4.841  1.6479 -1.1469  0.1911
  903TIP3   OH224123   0.984   6.430  16.620 -0.4612 -0.1946  1.2454
  903TIP3    H124124   0.943   6.397  16.539 -0.7524  1.2573  0.7825
  903TIP3    H224125   1.043   6.359  16.647 -1.1292 -1.1273  0.3310
  904TIP3   OH224126   4.245   6.577  17.163 -0.1674  0.9094 -0.1358
  904TIP3    H124127   4.162   6.616  17.190 -0.1116 -0.8018  2.6890
  904TIP3    H224128   4.237   6.485  17.187  2.6571  0.7736  0.4415
  905TIP3   OH224129   5.630   1.000  15.276  0.1931 -0.1489 -0.2414
  905TIP3    H124130   5.621   0.914  15.235  0.6283 -0.2804 -0.0650
  905TIP3    H224131   5.720   1.001  15.310  0.0729  0.2375  0.0682
  906TIP3   OH224132   1.755   5.430  10.125  0.3179 -0.1341 -0.1994
  906TIP3    H124133   1.805   5.366  10.175  0.9207 -0.2509 -0.9426
  906TIP3    H224134   1.818   5.497  10.101 -0.7462  1.8207  2.3379
  907TIP3   OH224135   0.194   1.758  10.701  0.0719 -0.0062  0.3303
  907TIP3    H124136   0.242   1.711  10.770  1.1813  1.3907  0.5494
  907TIP3    H224137   0.261   1.810  10.657 -1.0408  0.9766 -0.2237
  908TIP3   OH224138   2.509   6.164  15.504 -0.9133  0.2193 -0.4781
  908TIP3    H124139   2.487   6.103  15.574  1.4583  1.7273  1.6558
  908TIP3    H224140   2.534   6.108  15.430  0.0299 -1.4148  1.0404
  909TIP3   OH224141   3.245   5.296   2.310 -1.2182  0.0508 -0.1458
  909TIP3    H124142   3.163   5.265   2.349  0.6838 -1.7842  2.5272
  909TIP3    H224143   3.314   5.251   2.359  1.4387  2.2111 -1.7613
  910TIP3   OH224144   3.257   6.705  13.809  0.3501  0.1506 -0.0827
  910TIP3    H124145   3.216   6.714  13.723  1.0011 -1.3390 -0.5654
  910TIP3    H224146   3.187   6.724  13.871 -0.5103 -0.1857 -0.9350
  911TIP3   OH224147   3.051   0.041   1.256 -0.0045 -0.2452 -0.0571
  911TIP3    H124148   3.080   0.131   1.270 -0.7422 -0.0137 -0.0002
  911TIP3    H224149   3.131  -0.007   1.232  0.7321  0.0405  1.7020
  912TIP3   OH224150   4.094   1.917  13.726 -0.4190 -0.5140 -0.2449
  912TIP3    H124151   4.079   1.935  13.633 -2.2180  1.0616  0.3318
  912TIP3    H224152   4.056   1.830  13.740  0.6234 -1.1406 -1.1399
  913TIP3   OH224153   0.847   4.622  16.041 -0.4321  0.0440 -0.2643
  913TIP3    H124154   0.778   4.588  15.985 -1.1469  1.3770 -0.2142
  913TIP3    H224155   0.821   4.712  16.059  0.3834 -0.0013  1.2541
  914TIP3   OH224156   0.305   3.774  13.679 -0.3281 -0.4060  0.3434
  914TIP3    H124157   0.246   3.698  13.688 -0.8335 -0.1842 -1.0051
  914TIP3    H224158   0.254   3.839  13.631  0.5275  0.3410  0.4270
  915TIP3   OH224159   6.723   5.224  12.636 -0.6245  0.3837  0.5411
  915TIP3    H124160   6.667   5.168  12.583  0.5739  1.9512 -2.5093
  915TIP3    H224161   6.791   5.165  12.668 -0.6083 -0.3750 -0.8198
  916TIP3   OH224162   5.901   0.212   2.504 -0.1069 -0.5655  0.2992
  916TIP3    H124163   5.908   0.205   2.408 -0.2605 -2.3305  0.3987
  916TIP3    H224164   5.926   0.126   2.536  0.1816  0.0925  1.8832
  917TIP3   OH224165   0.141   5.596   3.544 -0.0207  0.1789  0.6801
  917TIP3    H124166   0.213   5.648   3.579  1.2204 -1.4851  0.6522
  917TIP3    H224167   0.180   5.544   3.474 -0.6966 -2.4933  2.2029
  918TIP3   OH224168   3.214   6.326   4.580 -0.2828 -0.3572 -0.4472
  918TIP3    H124169   3.193   6.419   4.581 -1.0514 -0.5250  0.8439
  918TIP3    H224170   3.129   6.282   4.583  0.0927 -1.0956 -0.5218
  919TIP3   OH224171   1.342   0.207   2.522 -0.2836  0.2277 -0.2461
  919TIP3    H124172   1.413   0.197   2.458  1.3968 -0.5499  1.6703
  919TIP3    H224173   1.360   0.140   2.588 -3.2990 -0.5303 -0.1195
  920TIP3   OH224174   1.244   1.026   3.919  0.3429  0.2109  0.6706
  920TIP3    H124175   1.314   1.067   3.869  1.4598  0.3976  2.3292
  920TIP3    H224176   1.259   1.054   4.009 -1.6807 -0.0206  1.1146
  921TIP3   OH224177   2.798   5.425   0.734 -0.4786 -0.8793  0.1910
  921TIP3    H124178   2.839   5.351   0.779 -1.0474  0.1693  2.5252
  921TIP3    H224179   2.862   5.496   0.743 -1.4870 -0.0808  1.2156
  922TIP3   OH224180   1.582   2.965  12.555 -0.0024 -0.2102 -0.9360
  922TIP3    H124181   1.562   3.052  12.590 -0.7117 -0.7744  0.0774
  922TIP3    H224182   1.641   2.926  12.619 -0.0133 -0.6328 -1.1811
  923TIP3   OH224183   1.958   4.171   2.607 -0.2948 -0.1034  0.7388
  923TIP3    H124184   2.010   4.201   2.682 -1.5492  0.4117  1.4323
  923TIP3    H224185   1.867   4.173   2.639 -0.9930  1.5155 -1.2333
  924TIP3   OH224186   5.909   2.995   5.905  0.3316  0.2473  0.1605
  924TIP3    H124187   5.884   2.910   5.942  0.0407  0.8630  1.4049
  924TIP3    H224188   6.005   2.994   5.905  0.3575  0.7950  2.2764
  925TIP3   OH224189   0.833   2.873  12.952 -0.8104  0.7541 -0.0341
  925TIP3    H124190   0.880   2.887  12.869 -0.2893 -0.7256  0.0052
  925TIP3    H224191   0.743   2.902  12.933 -0.4369  1.4721 -0.7822
  926TIP3   OH224192   3.481   5.436   1.349 -0.1156 -0.0459  0.1693
  926TIP3    H124193   3.504   5.387   1.428  0.9384  0.4899  0.1960
  926TIP3    H224194   3.430   5.374   1.297 -0.9496 -0.3534  1.3337
  927TIP3   OH224195   4.444   2.404   0.555 -0.7908 -0.0400  0.4514
  927TIP3    H124196   4.493   2.480   0.586 -0.2571  0.5016 -1.6660
  927TIP3    H224197   4.451   2.408   0.460 -1.2020 -2.4515  0.2956
  928TIP3   OH224198   4.562   3.073  10.773  0.0061 -0.2986  0.4877
  928TIP3    H124199   4.568   3.092  10.679  2.3971 -1.7723  0.2975
  928TIP3    H224200   4.488   3.125  10.803 -1.0310 -0.0721 -2.2861
  929TIP3   OH224201   4.146   5.776   5.069  0.5791 -0.3508  0.1464
  929TIP3    H124202   4.139   5.718   5.145  1.5506 -0.0550  0.4567
  929TIP3    H224203   4.091   5.734   5.002 -2.0308  0.4743  1.6692
  930TIP3   OH224204   4.631   1.804   3.866 -0.4920  0.2704 -0.0485
  930TIP3    H124205   4.557   1.863   3.853  0.0817  1.3118  1.3422
  930TIP3    H224206   4.590   1.719   3.883 -1.3858  0.8351  0.7360
  931TIP3   OH224207   3.262   5.056  14.513 -0.4465 -0.1241  0.0195
  931TIP3    H124208   3.214   5.136  14.493 -1.1570 -0.6067 -0.2578
  931TIP3    H224209   3.337   5.057  14.454 -0.1535  0.6014  0.3984
  932TIP3   OH224210   2.908   6.357  11.942 -0.5338  0.1792 -0.5009
  932TIP3    H124211   2.888   6.426  12.005  1.6418 -0.9668  1.5284
  932TIP3    H224212   2.860   6.280  11.975  0.1390 -0.2652 -0.5398
  933TIP3   OH224213   4.458   4.095   2.583 -0.7610  0.2607 -0.1083
  933TIP3    H124214   4.540   4.142   2.600 -0.3889  0.1074 -1.4791
  933TIP3    H224215   4.433   4.060   2.669  0.6108  0.2881  0.3211
  934TIP3   OH224216   0.562   4.050   3.159 -0.6325 -0.2273 -0.1743
  934TIP3    H124217   0.579   4.134   3.116 -1.3192  0.5476  1.0308
  934TIP3    H224218   0.614   3.987   3.110  0.4434  1.0214 -0.6663
  935TIP3   OH224219   0.616   3.239  13.518 -0.3664  0.4129  0.6687
  935TIP3    H124220   0.696   3.238  13.465 -0.7870 -2.1531  0.0243
  935TIP3    H224221   0.594   3.332  13.525  3.0275  1.2380  1.4452
  936TIP3   OH224222   5.326   5.977  11.764  0.2077  0.4232 -0.1035
  936TIP3    H124223   5.301   5.909  11.701 -0.2717  1.1381 -0.6972
  936TIP3    H224224   5.259   6.044  11.754  0.8296  1.1066  0.2791
  937TIP3   OH224225   1.918   6.458   1.888  0.2059  0.0169 -0.9526
  937TIP3    H124226   1.884   6.529   1.942  0.6111 -0.0278 -0.6409
  937TIP3    H224227   1.991   6.422   1.938 -0.4638 -1.1078 -0.7615
  938TIP3   OH224228   0.036   3.931  11.324 -0.3784 -0.0063 -0.2353
  938TIP3    H124229   0.108   3.900  11.380  2.3071  1.5534 -2.6700
  938TIP3    H224230   0.023   3.861  11.260 -0.0620  0.2932 -0.6312
  939TIP3   OH224231   0.574   4.559   1.018  0.4368  0.0811 -0.6314
  939TIP3    H124232   0.642   4.491   1.016 -0.8928 -1.3457  0.8494
  939TIP3    H224233   0.498   4.515   1.058 -0.8284  2.1067 -0.7709
  940TIP3   OH224234   1.072   2.831  10.666 -0.7064 -0.3762  0.3759
  940TIP3    H124235   1.137   2.804  10.601  0.7538  0.9867  1.2752
  940TIP3    H224236   1.002   2.871  10.614  0.3562  0.5101 -0.3919
  941TIP3   OH224237   4.418   0.391  13.953 -0.2349  0.2563 -0.1988
  941TIP3    H124238   4.327   0.409  13.976 -0.5312 -2.3858  0.9170
  941TIP3    H224239   4.421   0.297  13.936  2.0712  0.4772 -1.3252
  942TIP3   OH224240   0.385   0.378  10.910 -0.1273 -0.1826 -0.1497
  942TIP3    H124241   0.416   0.456  10.864  0.7549 -0.1491  0.4995
  942TIP3    H224242   0.291   0.376  10.892 -0.0557  0.6888 -0.6703
  943TIP3   OH224243   4.126   0.561   4.978  0.3157 -0.4120 -0.0809
  943TIP3    H124244   4.111   0.646   4.936 -0.1454 -0.7853 -0.6807
  943TIP3    H224245   4.166   0.583   5.062  0.5019  0.3843 -0.3697
  944TIP3   OH224246   0.586   4.143  14.690 -0.0458 -0.6612  0.0281
  944TIP3    H124247   0.565   4.194  14.612 -0.6093 -2.4893 -1.0683
  944TIP3    H224248   0.680   4.157  14.704  0.5744 -2.0651 -2.3599
  945TIP3   OH224249   1.080   6.107   3.196 -0.0547 -0.1632  0.7000
  945TIP3    H124250   1.160   6.092   3.146 -1.2452 -0.6519 -1.1240
  945TIP3    H224251   1.075   6.202   3.206  0.6841 -0.1258  0.7288
  946TIP3   OH224252   1.696   6.092   2.824 -0.0260  0.1337 -0.0932
  946TIP3    H124253   1.751   6.091   2.902  1.1974 -2.2907 -0.9507
  946TIP3    H224254   1.618   6.141   2.850 -0.5077 -2.2948  3.2536
  947TIP3   OH224255   2.136   0.829  10.905  0.1490 -0.4369  0.0893
  947TIP3    H124256   2.097   0.846  10.820  0.5166  1.7297  0.3181
  947TIP3    H224257   2.217   0.782  10.886  0.0553 -0.2750 -0.7209
  948TIP3   OH224258   0.347   2.669  11.963  0.5639 -0.0834 -0.6846
  948TIP3    H124259   0.431   2.675  11.919 -0.2641 -0.6417 -2.3721
  948TIP3    H224260   0.282   2.676  11.893 -0.8402  2.3668  0.8119
  949TIP3   OH224261   1.622   4.336  16.452 -0.3413 -0.3674  0.2312
  949TIP3    H124262   1.572   4.270  16.500 -0.0289 -0.4222  0.4821
  949TIP3    H224263   1.698   4.353  16.508 -0.1656 -0.1620 -0.0735
  950TIP3   OH224264   4.077   5.202  14.457 -0.0337  0.1830 -0.4043
  950TIP3    H124265   4.120   5.193  14.372 -0.7915  0.8417 -0.8753
  950TIP3    H224266   4.059   5.112  14.485  1.9592 -0.1113 -0.0270
  951TIP3   OH224267   3.720   3.134   5.630 -0.1142  0.7123 -0.0701
  951TIP3    H124268   3.678   3.079   5.696 -0.8910 -0.0016 -1.1178
  951TIP3    H224269   3.647   3.168   5.578  0.6351 -3.0108 -3.8606
  952TIP3   OH224270   6.469   5.905  15.411  0.1188 -0.9336  0.0749
  952TIP3    H124271   6.527   5.834  15.384  1.1309 -0.1123  0.0632
  952TIP3    H224272   6.488   5.976  15.350  0.4653 -0.0065  1.2388
  953TIP3   OH224273   3.871   6.688   3.912  0.2879 -0.2979  0.3276
  953TIP3    H124274   3.815   6.722   3.981  0.7826  1.5543 -0.1309
  953TIP3    H224275   3.879   6.761   3.850  0.9014 -1.4796 -1.0205
  954TIP3   OH224276   2.877   1.763   6.101  0.2193  0.2181 -0.2507
  954TIP3    H124277   2.878   1.814   6.020  0.1837  1.5172  0.5656
  954TIP3    H224278   2.860   1.673   6.072 -1.1996  0.8902 -1.5611
  955TIP3   OH224279   2.785   6.154   2.713 -0.0615 -0.5549 -0.3779
  955TIP3    H124280   2.709   6.178   2.661 -0.4472  0.9177  0.8160
  955TIP3    H224281   2.749   6.127   2.798  0.6642 -1.1393 -0.2501
  956TIP3   OH224282   6.530   2.576   5.782 -0.4959 -0.2185 -0.3363
  956TIP3    H124283   6.506   2.646   5.842  0.5508 -0.8714  0.8701
  956TIP3    H224284   6.568   2.622   5.706 -0.3262  0.5419  0.2028
  957TIP3   OH224285   6.524   4.094  16.194  0.0653 -0.3889 -0.3295
  957TIP3    H124286   6.488   4.061  16.112 -0.2038  1.5092 -1.0045
  957TIP3    H224287   6.451   4.142  16.235  1.8037  3.9429 -1.9542
  958TIP3   OH224288   2.201   2.435   1.788  0.5554  0.3862 -0.7345
  958TIP3    H124289   2.284   2.395   1.813 -0.3097 -0.3077  1.1182
  958TIP3    H224290   2.199   2.518   1.837 -0.4715 -0.2703  0.3652
  959TIP3   OH224291   2.387   2.073   2.160 -0.6202 -0.4500 -0.1853
  959TIP3    H124292   2.459   2.133   2.140 -1.7148  0.3561 -1.8614
  959TIP3    H224293   2.379   2.018   2.082 -2.0000 -0.3409 -0.1329
  960TIP3   OH224294   3.599   5.828   2.629 -0.5945  0.5379  0.4066
  960TIP3    H124295   3.653   5.897   2.591  0.1544  0.0621  0.5806
  960TIP3    H224296   3.565   5.779   2.555  0.5288 -0.1382  0.3170
  961TIP3   OH224297   4.827   1.983  11.352 -0.6664 -0.2911  0.0093
  961TIP3    H124298   4.868   2.035  11.283  0.3840 -0.9617  0.1247
  961TIP3    H224299   4.896   1.972  11.418 -1.1224 -1.1700  0.3458
  962TIP3   OH224300   4.708   4.552   5.091  0.2736  0.0791 -0.6261
  962TIP3    H124301   4.671   4.640   5.098  1.0199  0.2936  0.8443
  962TIP3    H224302   4.797   4.567   5.058  0.2447 -0.1573 -0.8108
  963TIP3   OH224303   2.545   4.347   1.733  0.3136  0.6645  0.2933
  963TIP3    H124304   2.562   4.431   1.690  0.1262  0.2452 -0.6000
  963TIP3    H224305   2.598   4.284   1.685 -0.7554  0.0025 -0.0279
  964TIP3   OH224306   4.018   6.423   2.022 -0.1989  0.0080 -0.0759
  964TIP3    H124307   3.970   6.358   1.970  0.7193  0.3100 -1.3378
  964TIP3    H224308   3.959   6.498   2.027 -0.2278  0.0381 -0.8263
  965TIP3   OH224309   0.005   2.453   2.679 -0.0812  0.3562  0.4403
  965TIP3    H124310  -0.073   2.455   2.734  0.6077  1.7971  1.3761
  965TIP3    H224311  -0.018   2.506   2.603 -0.6563 -0.7648 -0.1889
  966TIP3   OH224312   5.935   0.799  14.626 -0.1363  0.3579 -0.4240
  966TIP3    H124313   5.858   0.800  14.569  0.5723  0.4935 -1.3850
  966TIP3    H224314   6.010   0.799  14.567  0.6214  0.9416  0.5062
  967TIP3   OH224315   1.961   6.329   3.605  0.1440 -0.3051 -0.2122
  967TIP3    H124316   1.912   6.384   3.544 -0.0991  1.5702  1.6338
  967TIP3    H224317   2.024   6.282   3.549 -0.8547  0.4621 -2.0419
  968TIP3   OH224318   2.096   0.242   5.708  0.1700 -0.0199  0.5432
  968TIP3    H124319   2.082   0.286   5.624 -1.3936  0.4547  1.0260
  968TIP3    H224320   2.176   0.281   5.743  0.7489 -0.1147 -0.6570
  969TIP3   OH224321   3.788   2.313   5.696  0.1690 -0.4202 -0.0243
  969TIP3    H124322   3.840   2.353   5.765 -0.9383  1.7028 -0.3737
  969TIP3    H224323   3.698   2.319   5.727 -0.1044 -1.8540 -0.4930
  970TIP3   OH224324   6.500   1.377  13.901  0.5003 -0.1437  0.2576
  970TIP3    H124325   6.439   1.450  13.910 -1.3290 -1.4995 -0.7749
  970TIP3    H224326   6.542   1.392  13.816 -2.3631 -2.0417 -1.5851
  971TIP3   OH224327   5.246   6.673  16.782  0.6887  0.3203 -0.7142
  971TIP3    H124328   5.247   6.732  16.707 -0.0253  1.0675 -0.1425
  971TIP3    H224329   5.297   6.719  16.849 -0.7676  0.7930  0.0981
  972TIP3   OH224330   1.302   4.991   0.080  0.3539 -0.5997 -0.2890
  972TIP3    H124331   1.257   4.918   0.122  0.3078 -3.1231 -4.4161
  972TIP3    H224332   1.369   4.949   0.025  2.5974  2.6679 -0.1824
  973TIP3   OH224333   2.502   6.176  11.842  0.1798  0.0317 -0.2600
  973TIP3    H124334   2.578   6.198  11.895  0.5604 -0.6585 -0.5105
  973TIP3    H224335   2.536   6.121  11.772  0.1460  3.2436 -2.9234
  974TIP3   OH224336   0.465   6.588   6.334 -0.5473  0.3247 -0.1042
  974TIP3    H124337   0.383   6.626   6.366 -0.4699 -0.1383  0.6617
  974TIP3    H224338   0.507   6.659   6.286 -1.2377  0.6672 -0.2087
  975TIP3   OH224339   3.925   5.283  14.176 -0.1195 -0.0506 -0.1149
  975TIP3    H124340   3.877   5.247  14.250 -2.6828  0.4961 -1.4637
  975TIP3    H224341   4.009   5.237  14.177 -1.4517 -2.5488  1.0565
  976TIP3   OH224342   1.134   5.128   0.662 -0.5891  0.1369 -0.6721
  976TIP3    H124343   1.091   5.074   0.596  0.4719 -0.4343 -0.9086
  976TIP3    H224344   1.109   5.088   0.745  2.0351 -2.1597 -0.9222
  977TIP3   OH224345   5.286   4.124  12.877  0.2085 -0.0203 -0.0712
  977TIP3    H124346   5.303   4.187  12.948  0.6319  0.8322 -0.9167
  977TIP3    H224347   5.371   4.113  12.834  0.1438 -1.2112  0.0929
  978TIP3   OH224348   0.687   1.388  14.712  0.4871  0.5796  0.2285
  978TIP3    H124349   0.640   1.382  14.629 -2.1014  1.3216  1.5797
  978TIP3    H224350   0.731   1.304  14.720 -0.2063  0.0306 -1.3432
  979TIP3   OH224351   5.029   2.037  13.811 -0.6252 -0.1222 -0.2558
  979TIP3    H124352   5.032   2.132  13.801  2.5981 -0.1545 -0.0400
  979TIP3    H224353   4.981   2.023  13.892 -1.1361  1.3066 -0.2973
  980TIP3   OH224354   4.716   0.065   5.105 -0.4252  0.1176  0.0966
  980TIP3    H124355   4.710   0.120   5.027  0.4469  1.6853  1.1155
  980TIP3    H224356   4.710  -0.025   5.071 -0.6823  0.7912 -1.7008
  981TIP3   OH224357   0.408   5.508  16.612 -0.3342 -0.5964 -0.1438
  981TIP3    H124358   0.436   5.556  16.534  0.6197 -1.1745 -0.1692
  981TIP3    H224359   0.466   5.540  16.681  0.2633 -1.6475 -0.1484
  982TIP3   OH224360   3.464   0.745  17.146  0.6353  0.2154  0.1023
  982TIP3    H124361   3.454   0.704  17.232  1.0820  0.8047  0.4377
  982TIP3    H224362   3.473   0.839  17.164 -0.3300  0.4738 -0.6609
  983TIP3   OH224363   6.335   0.302   3.294  0.0334  0.4981 -0.3079
  983TIP3    H124364   6.280   0.299   3.372 -0.2713  2.8250 -0.4126
  983TIP3    H224365   6.402   0.235   3.310 -2.2428 -1.7277  0.2302
  984TIP3   OH224366   6.487   2.423  13.550  0.0038 -0.9698  0.1663
  984TIP3    H124367   6.406   2.458  13.587  0.9590 -0.5859  1.9619
  984TIP3    H224368   6.488   2.455  13.460 -1.7442 -0.8430  0.1612
  985TIP3   OH224369   6.335   1.781   5.587 -0.3634 -0.0784 -0.2671
  985TIP3    H124370   6.357   1.751   5.675  0.3587  0.9186 -0.0903
  985TIP3    H224371   6.274   1.853   5.601 -0.1943  0.1287 -0.5726
  986TIP3   OH224372   5.736   0.852  13.479 -0.2150 -0.3590 -0.5902
  986TIP3    H124373   5.771   0.871  13.566 -0.5992  0.6940 -0.6599
  986TIP3    H224374   5.814   0.846  13.423  0.0805 -1.8691 -0.0203
  987TIP3   OH224375   4.721   5.980  17.234 -0.2147  0.4223  0.0649
  987TIP3    H124376   4.730   5.901  17.180 -1.7562  0.8737 -0.9012
  987TIP3    H224377   4.685   5.949  17.317  0.4167 -0.0493  0.1650
  988TIP3   OH224378   0.817   6.751  10.999  0.1401  0.1781  0.2594
  988TIP3    H124379   0.773   6.677  11.040 -1.0960  0.0479 -1.2379
  988TIP3    H224380   0.905   6.718  10.978  0.0231 -0.4555  0.7559
  989TIP3   OH224381   3.573   0.401  10.806 -0.5814  0.1082 -0.1010
  989TIP3    H124382   3.510   0.446  10.750 -1.6163 -0.1142  0.8480
  989TIP3    H224383   3.658   0.433  10.777 -1.1327  0.5105 -1.3306
  990TIP3   OH224384   4.686   5.022  16.030  0.1287  0.2092  0.6967
  990TIP3    H124385   4.691   5.078  15.953 -1.1510 -0.5064  0.0777
  990TIP3    H224386   4.613   5.057  16.080  0.7296  0.4452  1.4125
  991TIP3   OH224387   3.857   4.385   0.061  0.2401 -0.5835 -0.3523
  991TIP3    H124388   3.835   4.293   0.047  0.3546 -0.7035  0.2411
  991TIP3    H224389   3.928   4.402  -0.001 -0.1365 -0.7491 -0.8345
  992TIP3   OH224390   5.876   6.342  11.144  0.4839  0.0609 -0.1026
  992TIP3    H124391   5.883   6.279  11.072 -1.4723 -2.5173  1.8820
  992TIP3    H224392   5.795   6.389  11.128  0.0896 -0.4563  0.3632
  993TIP3   OH224393   6.466   2.437   5.482  0.5025  0.6282  0.2541
  993TIP3    H124394   6.539   2.393   5.524 -0.5154 -0.1440  1.2221
  993TIP3    H224395   6.480   2.423   5.388  0.4096 -1.3936  0.5308
  994TIP3   OH224396   1.021   4.360  13.041 -0.0519 -0.3193  0.0951
  994TIP3    H124397   1.015   4.392  13.131  0.7103  0.0244  0.0297
  994TIP3    H224398   1.039   4.438  12.989  2.2109 -0.8730 -0.0201
  995TIP3   OH224399   5.710   5.178  12.956  0.1091 -0.3592  0.5236
  995TIP3    H124400   5.742   5.137  13.036  0.7556  1.6617  1.3290
  995TIP3    H224401   5.718   5.109  12.889  2.0019 -1.2743  1.6412
  996TIP3   OH224402   4.373   0.360  17.198 -0.0767 -0.1186  0.2245
  996TIP3    H124403   4.441   0.297  17.219  0.2460  0.4034  0.7640
  996TIP3    H224404   4.352   0.402  17.281 -1.2859 -0.4949  0.1261
  997TIP3   OH224405   5.585   5.974   1.257  0.2409 -0.1477 -0.2589
  997TIP3    H124406   5.583   5.913   1.330  0.3425 -0.0040 -0.1366
  997TIP3    H224407   5.604   5.920   1.181  1.0815 -0.1574 -0.0446
  998TIP3   OH224408   5.707   4.605  13.137  0.3016  0.0957 -0.1916
  998TIP3    H124409   5.658   4.597  13.219 -1.5142  0.3361 -1.2239
  998TIP3    H224410   5.688   4.524  13.090  0.5837  0.3645 -0.7750
  999TIP3   OH224411   1.358   5.875  16.799 -0.8749  0.3493 -0.3151
  999TIP3    H124412   1.334   5.923  16.878  0.0975  0.6430 -0.1830
  999TIP3    H224413   1.415   5.804  16.831 -0.9050  0.1519 -0.6961
 1000TIP3   OH224414   5.556   5.956  16.556 -0.4127  0.4018  0.4822
 1000TIP3    H124415   5.467   5.930  16.579 -0.2231 -0.5562  0.1361
 1000TIP3    H224416   5.545   6.034  16.501 -1.0382  0.1491  0.2503
 1001TIP3   OH224417   5.782   3.265  11.930  0.3429  0.1505 -0.1800
 1001TIP3    H124418   5.765   3.285  12.022 -0.9398  1.8455 -0.7665
 1001TIP3    H224419   5.878   3.267  11.923  0.6547 -3.0868  1.7380
 1002TIP3   OH224420   2.067   0.283  13.931 -0.4190 -0.4446  0.0890
 1002TIP3    H124421   2.123   0.359  13.915 -0.6957 -0.5520 -1.4995
 1002TIP3    H224422   1.987   0.319  13.969  0.2243 -0.1559  1.1792
 1003TIP3   OH224423   4.816   1.606   2.063 -0.4097 -0.1490 -0.2745
 1003TIP3    H124424   4.834   1.572   2.151  1.1567  1.5611  0.0962
 1003TIP3    H224425   4.750   1.675   2.078  0.9016  1.1165 -0.2429
 1004TIP3   OH224426   5.210   2.432  13.147  0.0449  0.1904 -0.2535
 1004TIP3    H124427   5.305   2.423  13.141  0.0887  0.5560 -0.1186
 1004TIP3    H224428   5.195   2.526  13.152 -0.1687  0.0574  2.0622
 1005TIP3   OH224429   0.285   5.943  16.616 -0.3581  0.1652 -0.6433
 1005TIP3    H124430   0.226   5.869  16.602  1.2992 -1.8545  2.4720
 1005TIP3    H224431   0.328   5.956  16.531 -0.9261 -2.2595 -1.3349
 1006TIP3   OH224432   5.351   3.916   6.472 -0.0483 -0.1387  0.4282
 1006TIP3    H124433   5.271   3.920   6.419  0.2769  0.7838  0.0116
 1006TIP3    H224434   5.319   3.917   6.563 -0.4834  0.7367  0.2645
 1007TIP3   OH224435   1.121   0.194   2.345 -0.1952 -0.2184  0.5859
 1007TIP3    H124436   1.191   0.245   2.304  0.2257 -0.4399  1.0097
 1007TIP3    H224437   1.153   0.177   2.434 -0.4969 -0.8855  0.5722
 1008TIP3   OH224438   6.768   5.944   5.358 -0.2051 -0.4940  0.2879
 1008TIP3    H124439   6.746   6.037   5.360 -0.8401 -0.6265 -0.1961
 1008TIP3    H224440   6.690   5.901   5.394  0.9890 -0.6856  2.7141
 1009TIP3   OH224441   5.225   4.410  15.924  0.2498 -0.3069  0.1867
 1009TIP3    H124442   5.175   4.411  16.007  0.8643 -1.5551  0.5753
 1009TIP3    H224443   5.316   4.399  15.951  0.4886 -0.3977 -0.6506
 1010TIP3   OH224444   3.284   2.220  16.698 -0.3779  0.2895  0.2621
 1010TIP3    H124445   3.277   2.242  16.605  1.9105  1.3218  0.3156
 1010TIP3    H224446   3.371   2.181  16.707 -0.1799  1.1303  2.1476
 1011TIP3   OH224447   1.130   1.558  12.599  0.3682  0.4648 -0.1022
 1011TIP3    H124448   1.204   1.500  12.617 -0.5338 -0.7590 -0.2193
 1011TIP3    H224449   1.079   1.511  12.532  0.6625  2.3142 -1.6709
 1012TIP3   OH224450   2.110   6.735   6.373  0.3567 -0.6065  0.6556
 1012TIP3    H124451   2.180   6.694   6.424 -0.2475 -0.0391  1.9702
 1012TIP3    H224452   2.152   6.762   6.292  1.4369 -1.1719  1.0215
 1013TIP3   OH224453   1.107   1.703  15.753  0.4068  0.4426  1.1243
 1013TIP3    H124454   1.104   1.799  15.746  3.6365  0.5234  0.4930
 1013TIP3    H224455   1.054   1.673  15.679  2.7707  1.7235 -1.1508
 1014TIP3   OH224456   0.512   4.104  12.791 -0.0645  0.0355 -0.4539
 1014TIP3    H124457   0.470   4.181  12.831  0.4918  0.5141 -0.7815
 1014TIP3    H224458   0.448   4.034  12.802  0.6200 -0.1988  2.5453
 1015TIP3   OH224459   3.001   1.376  14.782 -0.2160 -0.4352 -0.4697
 1015TIP3    H124460   3.043   1.451  14.824  1.7260 -1.6044 -0.2482
 1015TIP3    H224461   2.917   1.366  14.827  0.1791  0.6597  0.5189
 1016TIP3   OH224462   1.132   3.345   3.517 -0.3836 -0.2010 -0.3440
 1016TIP3    H124463   1.212   3.349   3.464 -0.9658  0.3065 -1.2054
 1016TIP3    H224464   1.061   3.339   3.453 -1.1677  1.5010  0.3188
 1017TIP3   OH224465   3.469   4.276  16.456  0.2170 -0.7168  0.3389
 1017TIP3    H124466   3.450   4.185  16.434  0.1626 -0.9619  1.3672
 1017TIP3    H224467   3.385   4.321  16.446  0.1068 -0.9012  0.4307
 1018TIP3   OH224468   6.387   4.458   1.140  0.6531 -0.1494  0.4344
 1018TIP3    H124469   6.439   4.539   1.143  1.1786 -0.5206  1.6611
 1018TIP3    H224470   6.407   4.414   1.223 -1.5457 -0.3501  0.8780
 1019TIP3   OH224471   6.566   3.663  15.499  0.3740 -0.3421  0.1465
 1019TIP3    H124472   6.498   3.725  15.471  0.8222 -0.0740 -0.3716
 1019TIP3    H224473   6.624   3.656  15.423 -0.8651 -3.1100 -0.6111
 1020TIP3   OH224474   6.052   0.859  11.254  0.3190  0.6247  0.1706
 1020TIP3    H124475   5.991   0.819  11.316 -1.2105  2.7058  0.0301
 1020TIP3    H224476   6.085   0.937  11.299  1.5803  0.4666 -0.4453
 1021TIP3   OH224477   4.554   4.619   5.918  0.0542  0.4553  0.6152
 1021TIP3    H124478   4.595   4.543   5.877 -0.5551  0.2639  0.3457
 1021TIP3    H224479   4.474   4.634   5.866 -0.1985  0.8367  1.1086
 1022TIP3   OH224480   0.800   0.272   5.864 -0.1185  0.3513  0.3604
 1022TIP3    H124481   0.860   0.314   5.925 -0.3202 -0.2239  0.9687
 1022TIP3    H224482   0.747   0.343   5.829  0.6206  0.8032  0.1540
 1023TIP3   OH224483   0.961   1.968  13.932 -0.4492 -0.0774 -0.0216
 1023TIP3    H124484   0.943   1.928  14.017  1.3570  0.8862  0.8328
 1023TIP3    H224485   0.876   1.968  13.887 -1.0445 -2.3702  0.9982
 1024TIP3   OH224486   3.698   0.808   1.206 -0.3719 -0.1421 -0.4633
 1024TIP3    H124487   3.726   0.848   1.124 -3.7960 -2.0551 -2.7273
 1024TIP3    H224488   3.629   0.865   1.239  0.4605  0.2079  0.7185
 1025TIP3   OH224489   0.877   0.808   0.579 -0.0630 -0.5461  0.3014
 1025TIP3    H124490   0.931   0.729   0.584  1.6272  0.7093  2.3155
 1025TIP3    H224491   0.803   0.790   0.637  1.3375  0.1048  2.3141
 1026TIP3   OH224492   4.933   2.970  16.803 -0.5045 -0.1061  0.3265
 1026TIP3    H124493   4.863   3.035  16.792  1.4958  1.8350 -1.5488
 1026TIP3    H224494   4.927   2.916  16.724 -0.0100 -0.0221  0.2275
 1027TIP3   OH224495   6.216   5.431  12.657 -0.0795 -0.2711  0.1353
 1027TIP3    H124496   6.250   5.501  12.714 -0.8397  0.6532 -0.5226
 1027TIP3    H224497   6.174   5.478  12.585 -0.1209 -1.4267 -0.6035
 1028TIP3   OH224498   0.278   0.313   3.789 -0.1741 -0.0096  0.7451
 1028TIP3    H124499   0.209   0.248   3.806 -0.7992  0.4134 -0.1471
 1028TIP3    H224500   0.277   0.324   3.694  1.1137  0.0228  0.7282
 1029TIP3   OH224501   5.764   0.478   0.528 -0.4018  1.0479  0.1130
 1029TIP3    H124502   5.773   0.412   0.459  0.1034  2.8068 -1.5412
 1029TIP3    H224503   5.677   0.515   0.514 -0.8854  0.4361  1.3501
 1030TIP3   OH224504   6.324   0.938  14.414  0.0268  0.0322  0.3258
 1030TIP3    H124505   6.363   0.851  14.404  0.2086 -0.0447  1.5830
 1030TIP3    H224506   6.365   0.974  14.493 -0.9619  0.7699  0.5165
 1031TIP3   OH224507   5.207   3.859  11.241 -0.2442  0.3796 -0.0193
 1031TIP3    H124508   5.207   3.841  11.148 -1.2172  0.1016  0.0310
 1031TIP3    H224509   5.252   3.784  11.281  0.3894  0.6185 -0.2833
 1032TIP3   OH224510   2.361   0.707   1.196  0.4808 -0.2874  0.0401
 1032TIP3    H124511   2.335   0.654   1.271  1.3813 -0.2120  0.4119
 1032TIP3    H224512   2.431   0.764   1.229  0.4735  0.1647 -0.6996
 1033TIP3   OH224513   2.297   3.553  15.579 -0.6330  0.1700 -0.1294
 1033TIP3    H124514   2.332   3.575  15.666 -0.7920 -0.7978  0.1868
 1033TIP3    H224515   2.291   3.637  15.534  2.0698  0.3654 -0.1789
 1034TIP3   OH224516   4.130   5.526   0.640  0.2534  0.6769  0.4534
 1034TIP3    H124517   4.211   5.529   0.590  0.6074  0.5327  1.0041
 1034TIP3    H224518   4.137   5.599   0.702  1.4203 -1.2709  2.6749
 1035TIP3   OH224519   6.121   3.708  15.195  0.1369  0.0704 -0.4007
 1035TIP3    H124520   6.138   3.615  15.180 -1.0726  0.0352 -1.6785
 1035TIP3    H224521   6.053   3.710  15.262 -0.2076  0.0130 -0.7462
 1036TIP3   OH224522   2.680   4.630  16.178 -0.7642  0.6951  0.3843
 1036TIP3    H124523   2.640   4.566  16.119 -1.0152  0.9904  0.2226
 1036TIP3    H224524   2.660   4.598  16.266 -1.4852  0.9092  0.3082
 1037TIP3   OH224525   5.795   0.210   5.007  0.1230  0.2254  0.3028
 1037TIP3    H124526   5.723   0.234   5.064 -0.0285 -0.6459  0.4919
 1037TIP3    H224527   5.814   0.119   5.029  0.7763  0.2113 -0.2769
 1038TIP3   OH224528   3.244   2.731   3.224  0.2769  0.3272 -0.2719
 1038TIP3    H124529   3.320   2.679   3.199  0.5485  1.1454 -1.1577
 1038TIP3    H224530   3.260   2.755   3.315  0.5279 -0.4610 -0.1000
 1039TIP3   OH224531   5.594   6.767   0.911  0.2268 -0.3022  0.1551
 1039TIP3    H124532   5.649   6.842   0.932 -0.7298  0.3915  0.2432
 1039TIP3    H224533   5.653   6.692   0.911  0.8983  0.2170  1.6622
 1040TIP3   OH224534   2.928   5.330  11.612 -0.3466  0.0908 -0.3690
 1040TIP3    H124535   2.857   5.266  11.609 -1.1790  1.0025 -0.1853
 1040TIP3    H224536   2.955   5.339  11.521 -1.0018  0.3322 -0.5424
 1041TIP3   OH224537   0.673   3.772   2.193 -0.1366 -0.2249 -0.0114
 1041TIP3    H124538   0.666   3.867   2.181  0.2324 -0.3269 -1.1547
 1041TIP3    H224539   0.685   3.738   2.104  0.2159 -1.2985  0.4398
 1042TIP3   OH224540   1.668   2.118  12.477 -0.0417  0.0822 -0.1565
 1042TIP3    H124541   1.677   2.023  12.466 -0.9318 -0.0927  0.6775
 1042TIP3    H224542   1.666   2.152  12.387 -1.6756 -0.8629 -0.4879
 1043TIP3   OH224543   4.659   5.701  16.175  0.5049 -0.5107 -0.0424
 1043TIP3    H124544   4.670   5.735  16.086  0.6297 -1.4650 -0.3869
 1043TIP3    H224545   4.574   5.658  16.174  0.7753 -1.0557  0.1275
 1044TIP3   OH224546   4.741   2.530  12.520 -0.2221  0.1686  0.1239
 1044TIP3    H124547   4.736   2.439  12.492 -1.4508  0.1809  0.2868
 1044TIP3    H224548   4.736   2.581  12.439 -0.5773  0.1226  0.1190
 1045TIP3   OH224549   6.715   0.847   3.796 -0.0508  0.0445 -1.0941
 1045TIP3    H124550   6.678   0.800   3.722 -0.0853 -0.0015 -1.0479
 1045TIP3    H224551   6.806   0.818   3.800 -0.5280 -1.3696  0.0139
 1046TIP3   OH224552   5.898   1.160  13.247 -0.0673  1.1485 -0.1475
 1046TIP3    H124553   5.967   1.200  13.300 -0.4369  1.4907  0.0821
 1046TIP3    H224554   5.866   1.088  13.300 -0.7536  1.7791  0.2969
 1047TIP3   OH224555   4.075   5.622   4.839 -0.6450 -0.0417 -0.0479
 1047TIP3    H124556   4.151   5.585   4.793  0.6098  1.4162  0.7709
 1047TIP3    H224557   4.041   5.688   4.778 -1.6743 -1.1729 -0.6967
 1048TIP3   OH224558   4.696   4.919   0.674  0.2511  0.9209  0.0238
 1048TIP3    H124559   4.737   4.924   0.588 -1.4604  1.0319 -0.7963
 1048TIP3    H224560   4.610   4.960   0.663 -0.7341 -0.7172  1.3336
 1049TIP3   OH224561   6.408   3.218   2.522  0.4880  0.7009  0.0523
 1049TIP3    H124562   6.398   3.143   2.464 -0.8069  2.1591 -1.6831
 1049TIP3    H224563   6.335   3.212   2.583  0.8558  0.1131  0.4369
 1050TIP3   OH224564   5.012   4.375  16.108  0.2466  0.0993  0.4694
 1050TIP3    H124565   4.917   4.382  16.102 -0.0711 -2.4920  1.7595
 1050TIP3    H224566   5.037   4.443  16.171 -0.5179  1.9608 -1.1858
 1051TIP3   OH224567   2.854   4.513  12.413 -0.0024 -0.1801 -0.2351
 1051TIP3    H124568   2.839   4.423  12.385  0.8366 -1.0434  2.0046
 1051TIP3    H224569   2.943   4.513  12.449  0.1223  1.6108 -0.4997
 1052TIP3   OH224570   3.281   4.611  11.770 -0.2543  0.0397 -0.0818
 1052TIP3    H124571   3.282   4.516  11.769  0.6140  0.0475 -0.8234
 1052TIP3    H224572   3.192   4.634  11.796 -0.5379 -0.9717 -0.1336
 1053TIP3   OH224573   2.045   3.731   2.790 -0.0492  0.2267  0.0139
 1053TIP3    H124574   2.102   3.796   2.831  0.1988  0.4119 -0.6126
 1053TIP3    H224575   2.100   3.653   2.782  0.6394  0.8736 -2.0064
 1054TIP3   OH224576   5.232   5.759  14.538 -0.2671  0.3173 -0.2599
 1054TIP3    H124577   5.155   5.802  14.574 -0.8840 -1.5197  0.7155
 1054TIP3    H224578   5.264   5.819  14.470 -0.1253  2.9937  2.1004
 1055TIP3   OH224579   1.192   1.259  13.770 -0.1087  0.0429  0.4493
 1055TIP3    H124580   1.245   1.284  13.846 -1.8087 -0.5519  1.8738
 1055TIP3    H224581   1.219   1.170  13.750  1.4125  0.7200 -0.6220
 1056TIP3   OH224582   4.929   5.739   1.710  0.2919 -0.2596  0.3363
 1056TIP3    H124583   4.845   5.784   1.704  0.5827  0.0406 -1.8968
 1056TIP3    H224584   4.918   5.677   1.782 -0.8949  1.7297  1.9308
 1057TIP3   OH224585   4.227   0.295   2.163 -0.1793  0.8884 -0.2100
 1057TIP3    H124586   4.228   0.364   2.098  0.7738 -0.2369 -1.4150
 1057TIP3    H224587   4.288   0.324   2.230  1.8226  0.2890 -1.7226
 1058TIP3   OH224588   0.539   0.113  16.321 -0.3036  0.0542  0.3607
 1058TIP3    H124589   0.588   0.069  16.251 -0.7275  1.4500 -0.8301
 1058TIP3    H224590   0.586   0.195  16.335  0.0472 -0.4262  2.0475
 1059TIP3   OH224591   4.304   3.522  14.764  0.2568  0.0406 -0.6133
 1059TIP3    H124592   4.299   3.573  14.845 -0.4467  1.4766 -1.5358
 1059TIP3    H224593   4.392   3.537  14.731 -0.2358  1.4239 -1.3477
 1060TIP3   OH224594   1.399   0.215  14.868 -0.6005 -0.4033 -0.0666
 1060TIP3    H124595   1.348   0.268  14.807  0.8840  1.6312  0.4134
 1060TIP3    H224596   1.474   0.186  14.816 -0.3942 -0.3903  0.2264
 1061TIP3   OH224597   0.475   5.995   2.889  0.1378 -0.1592 -0.2626
 1061TIP3    H124598   0.380   5.989   2.896  0.2025 -0.3328  0.5672
 1061TIP3    H224599   0.498   6.075   2.936  0.4016 -0.1071 -0.4761
 1062TIP3   OH224600   3.661   2.337  11.399 -0.4612 -0.0525 -0.1925
 1062TIP3    H124601   3.580   2.386  11.381 -0.8398 -1.0976 -1.3577
 1062TIP3    H224602   3.697   2.379  11.478 -2.2540  0.2793  0.4699
 1063TIP3   OH224603   6.016   3.221  11.597 -0.3734  0.1992  0.1401
 1063TIP3    H124604   6.026   3.274  11.676 -0.9332  2.6264 -1.3527
 1063TIP3    H224605   6.020   3.284  11.525 -0.4746 -1.8768 -1.7553
 1064TIP3   OH224606   0.065   4.346   3.345  0.2674  0.1197 -0.3750
 1064TIP3    H124607   0.161   4.337   3.348  0.3352  1.2311  2.1952
 1064TIP3    H224608   0.036   4.273   3.290  2.4865 -1.0661 -0.0371
 1065TIP3   OH224609   3.009   6.004  11.177  0.3844 -0.3673 -0.2296
 1065TIP3    H124610   3.035   6.089  11.212  2.3741 -1.2829  0.5460
 1065TIP3    H224611   2.965   5.960  11.250 -1.5595  0.3531 -0.9238
 1066TIP3   OH224612   5.659   0.638   4.685 -0.2645  0.1784  0.4555
 1066TIP3    H124613   5.598   0.635   4.611  0.4824  0.3366 -0.1708
 1066TIP3    H224614   5.740   0.600   4.652 -0.7741 -2.3744  2.0320
 1067TIP3   OH224615   0.276   4.795  13.899 -0.0079  0.1574 -0.4356
 1067TIP3    H124616   0.361   4.839  13.890  0.9082 -1.5025 -0.3215
 1067TIP3    H224617   0.271   4.772  13.992 -0.2252 -0.4157 -0.5831
 1068TIP3   OH224618   1.699   6.023   5.979 -0.0053 -0.1086  0.1834
 1068TIP3    H124619   1.675   6.059   6.064  0.4655 -1.1567  0.7687
 1068TIP3    H224620   1.787   5.986   5.992 -0.5411 -1.6025 -0.3446
 1069TIP3   OH224621   0.506   1.121  15.620 -0.1268  0.4507 -0.2656
 1069TIP3    H124622   0.481   1.212  15.604 -0.8679  0.3078  0.0405
 1069TIP3    H224623   0.442   1.090  15.684  0.2065 -0.2446 -0.2702
 1070TIP3   OH224624   0.152   1.954  16.111  0.8918 -0.1452  0.2803
 1070TIP3    H124625   0.163   1.906  16.192  2.2750 -0.4930 -0.1004
 1070TIP3    H224626   0.070   1.922  16.074  0.7123 -0.6187  1.1036
 1071TIP3   OH224627   4.580   6.495  15.188  0.0591  0.1477  0.1307
 1071TIP3    H124628   4.603   6.511  15.279 -0.8080 -1.5426  0.6738
 1071TIP3    H224629   4.638   6.424  15.161  1.4806  1.7520 -1.1807
 1072TIP3   OH224630   6.770   2.328   4.737 -0.3880 -0.2504  0.2953
 1072TIP3    H124631   6.709   2.355   4.668 -0.1981 -0.9856 -0.1621
 1072TIP3    H224632   6.714   2.309   4.813 -0.6025  0.4643  0.3197
 1073TIP3   OH224633   4.331   0.611   4.637  0.2159 -0.0367 -0.1858
 1073TIP3    H124634   4.260   0.574   4.690 -1.4250  0.2505 -2.1132
 1073TIP3    H224635   4.355   0.540   4.577 -0.2709  0.7274 -1.2988
 1074TIP3   OH224636   3.152   6.583  14.961  0.2509  0.0088 -0.1147
 1074TIP3    H124637   3.181   6.638  15.034  0.4667  0.0636 -0.2398
 1074TIP3    H224638   3.061   6.608  14.947 -0.5332 -1.6924  1.6994
 1075TIP3   OH224639   5.470   4.738  15.812  0.1696  0.6114 -1.0355
 1075TIP3    H124640   5.488   4.703  15.725 -1.8646  1.7489 -1.9546
 1075TIP3    H224641   5.467   4.833  15.800  1.5891  0.8999  0.6357
 1076TIP3   OH224642   3.590   6.230  14.506  0.1317 -0.4297 -0.4277
 1076TIP3    H124643   3.613   6.181  14.427 -1.3938 -1.3453 -0.3149
 1076TIP3    H224644   3.495   6.239  14.502  0.2873  1.7758 -0.0008
 1077TIP3   OH224645   0.007   4.886   4.701  0.3131 -0.2288  0.5790
 1077TIP3    H124646   0.011   4.794   4.729  0.5409 -0.9873 -1.7718
 1077TIP3    H224647  -0.083   4.912   4.716  0.3862 -0.6694  1.7943
 1078TIP3   OH224648   3.973   0.315  11.563 -0.3523  0.5620 -0.1005
 1078TIP3    H124649   3.975   0.384  11.497  2.6320  0.2155 -0.4362
 1078TIP3    H224650   4.049   0.260  11.543 -1.2011 -1.3411  1.7238
 1079TIP3   OH224651   5.387   2.660   3.900  0.9142  0.3577  0.5746
 1079TIP3    H124652   5.412   2.663   3.992 -0.9519 -1.2174  1.1564
 1079TIP3    H224653   5.340   2.577   3.890 -1.0293  1.6187 -1.2094
 1080TIP3   OH224654   1.298   3.934   5.167  0.0101 -0.7723  0.3739
 1080TIP3    H124655   1.242   3.954   5.241 -2.9084 -1.5547 -1.5380
 1080TIP3    H224656   1.387   3.951   5.199 -1.3581  1.8143  3.0659
 1081TIP3   OH224657   5.313   0.745   2.520 -0.1725 -0.0228  0.2766
 1081TIP3    H124658   5.301   0.683   2.448 -0.5665  2.3624 -1.7925
 1081TIP3    H224659   5.236   0.733   2.576 -0.3106 -1.2815 -0.1859
 1082TIP3   OH224660   4.140   0.790  15.916 -0.2251 -0.1719  0.5770
 1082TIP3    H124661   4.146   0.786  15.820 -1.3914  0.2243  0.4816
 1082TIP3    H224662   4.048   0.771  15.935  0.0254 -0.3542  1.6296
 1083TIP3   OH224663   5.901   2.170  12.980  0.2759  0.1770  0.0144
 1083TIP3    H124664   5.853   2.088  12.991  0.2405 -0.0709 -1.8240
 1083TIP3    H224665   5.993   2.145  12.990  0.4296 -0.5349 -2.6828
 1084TIP3   OH224666   3.827   5.615  12.968 -0.1081 -0.6557  0.3350
 1084TIP3    H124667   3.880   5.605  12.889  0.9261  0.0790  0.9294
 1084TIP3    H224668   3.747   5.660  12.938 -0.8820 -2.6776 -0.7429
 1085TIP3   OH224669   2.738   1.955  17.214 -0.5973  0.2454  0.2854
 1085TIP3    H124670   2.769   2.036  17.172  0.9015 -1.0503 -1.1651
 1085TIP3    H224671   2.780   1.956  17.300 -0.9843  1.2369  0.4772
 1086TIP3   OH224672   3.906   3.024   3.435 -0.3549 -0.1489 -0.8227
 1086TIP3    H124673   3.978   3.086   3.424 -1.0609  1.0727  1.0945
 1086TIP3    H224674   3.852   3.035   3.357  0.2686  0.6649 -1.1430
 1087TIP3   OH224675   0.850   2.907  17.133  0.6525 -0.8697  0.1025
 1087TIP3    H124676   0.801   2.975  17.086  0.6622 -3.2161 -3.5089
 1087TIP3    H224677   0.936   2.946  17.149  1.0427 -0.3703 -2.9434
 1088TIP3   OH224678   6.239   4.345   6.074 -0.4126 -0.4136 -0.2633
 1088TIP3    H124679   6.193   4.265   6.047  0.1454  0.2654 -3.3900
 1088TIP3    H224680   6.322   4.342   6.027  0.5451  0.9728  1.2772
 1089TIP3   OH224681   4.186   4.629  12.665  0.5836  0.0137 -0.8518
 1089TIP3    H124682   4.118   4.572  12.627  0.1937 -0.1978  0.1450
 1089TIP3    H224683   4.150   4.717  12.656 -0.4937 -0.2217  1.0143
 1090TIP3   OH224684   2.696   1.412  14.194  0.0064 -0.0037 -0.1211
 1090TIP3    H124685   2.630   1.459  14.143  0.3844  0.4067 -0.2429
 1090TIP3    H224686   2.650   1.336  14.229 -0.5786  0.3744 -0.0523
 1091TIP3   OH224687   1.145   3.495   0.811  0.5696  0.2530  0.7839
 1091TIP3    H124688   1.152   3.591   0.813 -0.4926  0.3315  0.7811
 1091TIP3    H224689   1.052   3.477   0.816  0.6754 -0.7555 -0.6098
 1092TIP3   OH224690   2.819   0.489  14.039  0.2568  0.0545 -0.2106
 1092TIP3    H124691   2.774   0.441  14.109 -2.0042 -0.3177 -1.8638
 1092TIP3    H224692   2.912   0.479  14.059 -0.3308 -0.0900  2.7020
 1093TIP3   OH224693   3.504   2.988   4.592 -0.6721  0.1942  0.1410
 1093TIP3    H124694   3.427   2.932   4.589 -1.2298  0.9973 -0.9696
 1093TIP3    H224695   3.561   2.954   4.523 -0.2772 -0.0421  0.5804
 1094TIP3   OH224696   5.449   2.236   1.488 -0.1038  0.1937 -0.0728
 1094TIP3    H124697   5.532   2.275   1.461 -0.7058  1.4949 -0.0860
 1094TIP3    H224698   5.453   2.233   1.583 -0.5492  1.4128 -0.0124
 1095TIP3   OH224699   1.315   0.774  16.237  0.3734  0.0447  0.6570
 1095TIP3    H124700   1.259   0.752  16.312  0.5081  0.2793  0.8284
 1095TIP3    H224701   1.259   0.824  16.178  0.0819 -0.7021  0.2955
 1096TIP3   OH224702   2.544   4.835  13.096  0.2380  0.4705  0.3193
 1096TIP3    H124703   2.518   4.917  13.138 -1.8100 -1.0446  2.1283
 1096TIP3    H224704   2.476   4.819  13.030  2.2574  1.7166 -2.1389
 1097TIP3   OH224705   5.918   3.252   5.998  0.3064  0.2313  0.2866
 1097TIP3    H124706   5.889   3.262   6.089 -0.5736  0.3994 -0.0006
 1097TIP3    H224707   5.917   3.158   5.983  2.7119  0.0403  1.1501
 1098TIP3   OH224708   2.606   6.246  15.775 -0.7618  0.5013  0.7153
 1098TIP3    H124709   2.602   6.226  15.682  0.1727 -4.1892  1.5486
 1098TIP3    H224710   2.693   6.215  15.802 -0.1005  3.8779  2.7619
 1099TIP3   OH224711   1.354   3.278  11.027  0.3662  0.3269 -0.4777
 1099TIP3    H124712   1.432   3.222  11.031 -0.9271 -1.4007  1.5554
 1099TIP3    H224713   1.312   3.253  10.944 -0.0580 -1.6006  0.2744
 1100TIP3   OH224714   0.290   4.067  11.192  0.1868  0.1742 -0.4754
 1100TIP3    H124715   0.197   4.053  11.177  0.3746 -0.4763 -1.0635
 1100TIP3    H224716   0.328   3.979  11.196  0.6305  0.4091  0.7318
 1101TIP3   OH224717   6.167   5.356   2.918 -0.2845 -0.9654  0.4205
 1101TIP3    H124718   6.209   5.307   2.846 -1.5456 -1.5699  0.0914
 1101TIP3    H224719   6.092   5.303   2.942  0.1169 -0.7392  2.1902
 1102TIP3   OH224720   1.649   1.072  14.811 -0.4167  0.1762  0.6205
 1102TIP3    H124721   1.680   1.065  14.901 -0.3625 -0.2312  0.5709
 1102TIP3    H224722   1.557   1.043  14.815 -0.5924  0.7400  0.6521
 1103TIP3   OH224723   3.305   4.753  16.242 -0.2088  0.6598  0.0366
 1103TIP3    H124724   3.376   4.807  16.275 -1.5684  0.3005  3.8696
 1103TIP3    H224725   3.239   4.816  16.212  1.3535  0.9910 -2.9159
 1104TIP3   OH224726   5.809   2.223   4.763  0.3507  0.5768 -0.3878
 1104TIP3    H124727   5.810   2.164   4.688 -2.2009  0.7388 -0.5750
 1104TIP3    H224728   5.744   2.187   4.822  1.2246  1.3175  1.0718
 1105TIP3   OH224729   2.724   6.148  10.645 -0.3198 -0.6280 -0.2971
 1105TIP3    H124730   2.641   6.127  10.601 -0.7688  1.8477 -0.6968
 1105TIP3    H224731   2.709   6.125  10.736 -2.0722  1.3345 -0.0451
 1106TIP3   OH224732   5.669   0.860   1.965 -0.4987  0.0913 -0.3098
 1106TIP3    H124733   5.747   0.833   2.014 -2.5832 -0.1762  3.0490
 1106TIP3    H224734   5.619   0.779   1.955 -1.9628  0.8442  0.7041
 1107TIP3   OH224735   3.309   6.442  14.278  0.2266 -0.2018 -0.0463
 1107TIP3    H124736   3.364   6.486  14.343 -0.9741  1.6918 -0.2715
 1107TIP3    H224737   3.224   6.434  14.321 -0.2136 -0.1456 -0.9115
 1108TIP3   OH224738   6.077   1.698   5.044  0.3325 -0.1464  0.0724
 1108TIP3    H124739   6.130   1.685   4.966 -1.7897 -0.4383 -1.3746
 1108TIP3    H224740   6.040   1.612   5.062 -0.5125  0.2752  0.3877
 1109TIP3   OH224741   3.444   1.056  11.492 -0.3705  0.1796 -0.4468
 1109TIP3    H124742   3.402   0.984  11.445 -0.1096 -1.2740  1.4718
 1109TIP3    H224743   3.373   1.114  11.518 -0.7304 -0.1156 -0.7834
 1110TIP3   OH224744   6.512   0.645   4.946  0.7081 -0.1831 -0.4197
 1110TIP3    H124745   6.574   0.691   5.003  1.0638 -1.5255  0.2853
 1110TIP3    H224746   6.568   0.590   4.890  0.2560 -0.1146 -0.9428
 1111TIP3   OH224747   3.681   2.001   3.353 -0.2892  0.0471 -0.2217
 1111TIP3    H124748   3.745   2.016   3.284  2.2906 -2.7851  1.4373
 1111TIP3    H224749   3.638   1.920   3.328  1.1643 -1.3776  1.8128
 1112TIP3   OH224750   5.276   3.216  14.241  0.7117  0.4591 -0.0424
 1112TIP3    H124751   5.303   3.305  14.264  0.3237  0.9867 -1.5710
 1112TIP3    H224752   5.342   3.186  14.179  0.6988 -0.2376  0.2718
 1113TIP3   OH224753   0.937   0.648   5.973  0.5160 -0.6350 -0.0984
 1113TIP3    H124754   0.948   0.626   5.881  0.8247  2.1984 -0.7770
 1113TIP3    H224755   0.845   0.672   5.981  0.3170 -1.5729  0.4987
 1114TIP3   OH224756   1.944   0.915  12.066  0.5519 -0.1166  0.2040
 1114TIP3    H124757   1.931   0.897  12.159 -1.5031  1.8441  0.3744
 1114TIP3    H224758   1.911   0.837  12.021 -1.5743  0.2349  1.0670
 1115TIP3   OH224759   4.956   4.958   4.608  0.4241 -0.1790  0.6273
 1115TIP3    H124760   4.918   4.881   4.568 -1.6433  0.7226  0.8105
 1115TIP3    H224761   5.013   4.924   4.678  0.6106 -1.5605 -0.1911
 1116TIP3   OH224762   0.828   4.952   1.349 -0.6619 -0.7562 -0.0894
 1116TIP3    H124763   0.851   4.865   1.381 -1.6972 -1.1314 -0.3220
 1116TIP3    H224764   0.911   4.990   1.320 -0.1546 -1.5397  0.3260
 1117TIP3   OH224765   3.899   5.566   5.340 -0.1997  0.4055  0.0016
 1117TIP3    H124766   3.852   5.634   5.291 -1.7062 -0.3456  0.3807
 1117TIP3    H224767   3.854   5.485   5.316 -2.1130  0.2006  3.9646
 1118TIP3   OH224768   5.355   2.657  16.869  0.0579  0.5014  1.0038
 1118TIP3    H124769   5.326   2.651  16.778  1.3995  0.4248  0.5692
 1118TIP3    H224770   5.321   2.741  16.899  1.2135  1.4093 -0.1716
 1119TIP3   OH224771   4.760   2.992   2.261 -0.2650 -0.7698 -0.1516
 1119TIP3    H124772   4.810   3.073   2.250  2.9890 -2.8213 -1.3510
 1119TIP3    H224773   4.748   2.959   2.172 -0.6510 -2.0889  0.3709
 1120TIP3   OH224774   5.557   1.185  10.966  0.0832 -0.0605 -0.0664
 1120TIP3    H124775   5.513   1.101  10.959  0.8515 -0.3189 -2.6421
 1120TIP3    H224776   5.617   1.186  10.891 -0.2970  2.9981 -0.3834
 1121TIP3   OH224777   4.081   3.943   4.845 -0.4315 -0.2256 -0.1322
 1121TIP3    H124778   4.142   3.959   4.917 -0.1051  0.5765 -0.5912
 1121TIP3    H224779   4.014   3.886   4.883  1.3265 -2.2856  0.0039
 1122TIP3   OH224780   0.572   0.797  15.827 -0.2293 -0.0938 -0.3927
 1122TIP3    H124781   0.570   0.740  15.903 -1.0471  0.0513 -0.3034
 1122TIP3    H224782   0.662   0.830  15.824 -0.3652  0.4265  0.8978
 1123TIP3   OH224783   2.288   1.822   0.023  0.3444 -0.0765 -0.0364
 1123TIP3    H124784   2.254   1.750   0.075  0.0678  0.9679  1.2418
 1123TIP3    H224785   2.379   1.831   0.051  0.6544 -0.5174 -0.8673
 1124TIP3   OH224786   1.318   0.299  10.639 -0.1233  0.7782  0.1033
 1124TIP3    H124787   1.226   0.285  10.620  0.2490 -0.2682 -1.0267
 1124TIP3    H224788   1.347   0.363  10.573  0.1645  0.4525 -0.0861
 1125TIP3   OH224789   2.431   6.279  10.841 -0.1752  0.0075  0.1550
 1125TIP3    H124790   2.451   6.250  10.753 -3.0004  0.8410 -0.8168
 1125TIP3    H224791   2.465   6.368  10.846 -3.2618  1.3524 -1.4208
 1126TIP3   OH224792   6.110   6.598  13.892  0.3719 -0.5902  0.0348
 1126TIP3    H124793   6.203   6.599  13.916  0.6215  0.4191 -0.9140
 1126TIP3    H224794   6.111   6.597  13.796 -0.5992 -0.2721  0.0234
 1127TIP3   OH224795   4.727   0.810  15.317  0.3993 -0.5675 -1.4462
 1127TIP3    H124796   4.768   0.881  15.268 -0.1548  0.5310 -0.3618
 1127TIP3    H224797   4.800   0.765  15.360  0.5603  1.0005 -0.0130
 1128TIP3   OH224798   3.499   3.547   3.098 -0.2574 -0.1697 -0.0538
 1128TIP3    H124799   3.561   3.513   3.034  0.0736 -1.6926  1.0705
 1128TIP3    H224800   3.412   3.526   3.062 -0.0917 -0.2834 -0.3861
 1129TIP3   OH224801   3.603   3.399   2.892 -0.1814  0.3598  0.0411
 1129TIP3    H124802   3.606   3.332   2.824  0.9278  1.4750 -1.0333
 1129TIP3    H224803   3.670   3.371   2.955  1.7920  1.5562 -1.4771
 1130TIP3   OH224804   2.070   3.278  17.190 -0.0227  0.1710 -0.6001
 1130TIP3    H124805   1.979   3.305  17.202 -0.5045 -0.6671 -2.2324
 1130TIP3    H224806   2.103   3.336  17.121  0.5465  0.1682 -0.3307
 1131TIP3   OH224807   1.992   6.641  13.116  0.1175 -0.1503 -0.7494
 1131TIP3    H124808   2.074   6.596  13.097 -0.6877 -1.5059 -1.0919
 1131TIP3    H224809   2.017   6.731  13.133  1.5469 -0.2652 -2.1416
 1132TIP3   OH224810   5.163   6.324  10.717  0.4700 -0.9144 -0.5213
 1132TIP3    H124811   5.254   6.309  10.742  0.4395 -0.0183  0.1284
 1132TIP3    H224812   5.149   6.266  10.642  1.1957 -1.9945  0.1652
 1133TIP3   OH224813   4.774   3.003  14.046 -0.1295 -0.1700 -0.3175
 1133TIP3    H124814   4.828   3.074  14.081 -0.5341 -0.3110  0.5891
 1133TIP3    H224815   4.764   2.942  14.118  0.0286 -1.0497 -1.0333
 1134TIP3   OH224816   6.592   1.162  11.188  0.2047  0.3464 -0.4873
 1134TIP3    H124817   6.664   1.102  11.208 -0.9793 -1.3273 -1.1206
 1134TIP3    H224818   6.633   1.232  11.137  1.4444 -0.4000 -0.5420
 1135TIP3   OH224819   6.370   4.363   3.988 -0.9055  0.2690  0.0719
 1135TIP3    H124820   6.356   4.390   4.078 -1.8643 -0.4769  0.1615
 1135TIP3    H224821   6.394   4.443   3.942 -0.0925  0.5918  1.0530
 1136TIP3   OH224822   3.183   2.837  14.910  0.9159 -0.3616  0.5079
 1136TIP3    H124823   3.209   2.745  14.901  1.8061  0.0186 -1.1864
 1136TIP3    H224824   3.256   2.878  14.956  0.7965 -0.3885  0.7211
 1137TIP3   OH224825   1.096   4.561   5.459  0.6259  0.8634  0.2810
 1137TIP3    H124826   1.023   4.538   5.518  1.8357 -1.4540  0.9307
 1137TIP3    H224827   1.057   4.562   5.372 -0.2190 -0.3086  0.6306
 1138TIP3   OH224828   5.389   3.538  13.180 -0.0967 -0.2208  0.4932
 1138TIP3    H124829   5.398   3.607  13.246  1.6927 -0.6329  0.7090
 1138TIP3    H224830   5.310   3.491  13.205 -1.9029  2.3341 -0.2328
 1139TIP3   OH224831   1.694   0.200  16.970  0.1285  0.1825  0.1896
 1139TIP3    H124832   1.630   0.128  16.978 -0.4359  0.7773  1.1727
 1139TIP3    H224833   1.737   0.185  16.886  0.1324 -1.4047  0.4583
 1140TIP3   OH224834   1.456   5.612  12.051 -0.1014  0.0162 -0.0681
 1140TIP3    H124835   1.519   5.683  12.064 -0.8094  0.4598  1.0203
 1140TIP3    H224836   1.507   5.541  12.013  1.1257  0.2260  1.1554
 1141TIP3   OH224837   5.853   0.639  13.842 -0.5172 -0.2191  0.0551
 1141TIP3    H124838   5.897   0.585  13.776  2.2081  1.1692  0.6154
 1141TIP3    H224839   5.825   0.717  13.794 -1.7769 -0.7898 -0.1558
 1142TIP3   OH224840   1.923   5.384  12.298 -0.6160 -0.2560  0.3370
 1142TIP3    H124841   1.937   5.472  12.265 -0.9653 -0.0886  0.6347
 1142TIP3    H224842   1.830   5.367  12.284 -0.5334 -0.6091  0.2034
 1143TIP3   OH224843   5.639   0.684   3.136 -0.4410 -0.0196  0.1823
 1143TIP3    H124844   5.620   0.736   3.215 -1.4237 -0.0931  0.0080
 1143TIP3    H224845   5.707   0.623   3.163  0.4922  1.1404  0.4833
 1144TIP3   OH224846   3.858   0.156  16.823 -0.4176  0.5989 -0.1898
 1144TIP3    H124847   3.920   0.085  16.807 -0.0442  0.6929  0.7953
 1144TIP3    H224848   3.779   0.131  16.775 -0.8016 -1.2116  1.3796
 1145TIP3   OH224849   3.145   3.320  12.976  0.1144  0.0810  0.1676
 1145TIP3    H124850   3.178   3.382  12.911 -0.1805 -0.1306 -0.1941
 1145TIP3    H224851   3.167   3.359  13.060 -0.2761  0.7890 -0.0531
 1146TIP3   OH224852   6.438   3.478  15.883  0.7586  0.5654 -0.0228
 1146TIP3    H124853   6.442   3.461  15.977 -1.8569 -2.3625 -0.3211
 1146TIP3    H224854   6.397   3.564  15.875 -0.8307 -0.0250  1.5116
 1147TIP3   OH224855   3.381   4.987   2.178  0.2137  0.6406 -0.0014
 1147TIP3    H124856   3.296   4.954   2.209  1.1606 -1.3238  0.6147
 1147TIP3    H224857   3.401   5.060   2.236 -1.2779  1.4446 -0.4641
 1148TIP3   OH224858   2.289   1.296   0.079 -0.4354 -0.1587 -0.0284
 1148TIP3    H124859   2.245   1.249   0.008  0.5168  0.0066 -0.7386
 1148TIP3    H224860   2.301   1.231   0.148  1.4893 -1.1530 -1.2704
 1149TIP3   OH224861   6.384   1.061   0.664  0.0371 -0.0599  0.5819
 1149TIP3    H124862   6.352   1.078   0.576  0.5391 -1.3078  0.1464
 1149TIP3    H224863   6.346   0.976   0.688 -1.3752  0.9922  2.1916
 1150TIP3   OH224864   5.318   6.252  11.324  0.4631  0.0027 -0.1371
 1150TIP3    H124865   5.311   6.345  11.301 -0.6472  0.6183  2.5442
 1150TIP3    H224866   5.405   6.244  11.365  0.2523  0.0199  0.3142
 1151TIP3   OH224867   1.098   4.390  13.396  0.1608 -0.0875 -0.2107
 1151TIP3    H124868   1.149   4.363  13.320  1.5659 -0.0908  0.7163
 1151TIP3    H224869   1.127   4.479  13.413 -0.1025 -0.1127  0.3592
 1152TIP3   OH224870   4.155   2.414   1.965 -0.0494  0.2396 -0.6970
 1152TIP3    H124871   4.121   2.440   1.879  0.4235  0.5324 -0.7937
 1152TIP3    H224872   4.247   2.438   1.963  0.0147  0.0391 -0.1884
 1153TIP3   OH224873   6.127   5.155   1.504  1.0122  0.2020  0.3332
 1153TIP3    H124874   6.153   5.220   1.439 -0.3191  0.2117 -0.2069
 1153TIP3    H224875   6.179   5.176   1.582  3.4937 -0.5143 -1.0586
 1154TIP3   OH224876   0.174   0.623   1.308 -0.2015  0.3795  0.1267
 1154TIP3    H124877   0.123   0.595   1.233 -1.4204 -0.0910  1.1180
 1154TIP3    H224878   0.251   0.567   1.307 -1.1828 -0.9919  0.3817
 1155TIP3   OH224879   3.942   3.394  10.932 -0.3978 -0.4854 -0.5818
 1155TIP3    H124880   3.880   3.446  10.881  1.0614  0.4508 -1.4442
 1155TIP3    H224881   4.028   3.417  10.896  0.3756 -2.5469 -0.1192
 1156TIP3   OH224882   5.354   0.735  15.132 -0.3957  0.1677 -0.1584
 1156TIP3    H124883   5.441   0.714  15.167  0.3190  0.1283 -1.9276
 1156TIP3    H224884   5.360   0.826  15.105  0.9646 -1.3508 -5.5855
 1157TIP3   OH224885   3.788   1.606  11.998  0.0335  1.3270  0.2914
 1157TIP3    H124886   3.861   1.618  12.059  0.4612  0.0917  0.0296
 1157TIP3    H224887   3.829   1.607  11.911 -0.1357 -0.2697  0.1824
 1158TIP3   OH224888   2.960   5.083  14.723 -0.1500  0.2328  0.0196
 1158TIP3    H124889   2.887   5.067  14.664  1.3473 -0.6850 -1.6373
 1158TIP3    H224890   2.963   5.178  14.732 -1.7473  0.2655  0.4042
 1159TIP3   OH224891   5.504   2.453   4.081  0.3325 -0.0904 -0.0644
 1159TIP3    H124892   5.436   2.440   4.147 -0.7269  0.1347 -1.0936
 1159TIP3    H224893   5.520   2.366   4.045  0.4377 -0.1104  0.0307
 1160TIP3   OH224894   1.838   2.888  15.339  0.0527  0.6806 -0.7261
 1160TIP3    H124895   1.922   2.891  15.385  0.1784  2.3567 -1.0344
 1160TIP3    H224896   1.820   2.794  15.328  1.4664  0.2967  0.0871
 1161TIP3   OH224897   2.651   6.752  14.926 -0.2625  0.1225  0.2597
 1161TIP3    H124898   2.607   6.667  14.924 -0.6429  0.3486 -2.1510
 1161TIP3    H224899   2.592   6.811  14.880  0.5938  1.4116  0.7768
 1162TIP3   OH224900   6.679   2.573   3.589  0.0460  0.6344 -0.1094
 1162TIP3    H124901   6.604   2.632   3.575 -0.5187 -0.1333 -0.3912
 1162TIP3    H224902   6.654   2.493   3.544 -0.1364 -0.5739  2.0748
 1163TIP3   OH224903   3.525   3.372  14.698 -0.3289 -0.3049 -0.4202
 1163TIP3    H124904   3.527   3.409  14.787  0.5620 -1.3733  0.0127
 1163TIP3    H224905   3.579   3.431  14.646  0.4490 -0.5469  0.0980
 1164TIP3   OH224906   1.608   1.376   5.584 -0.2351  0.1013 -0.7734
 1164TIP3    H124907   1.696   1.338   5.580 -0.0501  0.4128  0.2387
 1164TIP3    H224908   1.597   1.403   5.675 -0.9845  0.9982 -1.1144
 1165TIP3   OH224909   2.723   0.431  13.769 -0.5096  0.1400  0.5265
 1165TIP3    H124910   2.799   0.402  13.819 -0.3555 -0.9433 -0.3080
 1165TIP3    H224911   2.648   0.402  13.820 -0.3596  0.2482  0.8111
 1166TIP3   OH224912   1.073   6.741   1.797 -0.5217  0.4199 -0.0935
 1166TIP3    H124913   1.047   6.673   1.735 -0.4689  0.9682 -0.7143
 1166TIP3    H224914   1.120   6.806   1.745 -0.2358  0.7532  0.5628
 1167TIP3   OH224915   0.458   1.292   4.505 -0.3140 -0.1654  0.4426
 1167TIP3    H124916   0.410   1.210   4.495 -1.7659  0.8196 -0.8201
 1167TIP3    H224917   0.546   1.272   4.472 -0.9196 -0.9840 -0.7158
 1168TIP3   OH224918   6.363   3.147  16.655 -0.0051  0.1403 -0.1790
 1168TIP3    H124919   6.325   3.184  16.735  0.9782  1.9496 -0.5058
 1168TIP3    H224920   6.309   3.182  16.584 -0.5366 -1.0101 -0.3477
 1169TIP3   OH224921   0.692   6.682  14.348 -0.1495  0.0427  0.1238
 1169TIP3    H124922   0.750   6.732  14.290  1.3356 -0.4230  1.1782
 1169TIP3    H224923   0.606   6.723  14.338  0.6379  1.5628 -0.4849
 1170TIP3   OH224924   0.323   4.216  11.631 -0.3628  0.6941  0.2585
 1170TIP3    H124925   0.273   4.230  11.551 -1.8411  0.9963  1.2221
 1170TIP3    H224926   0.273   4.151  11.679  1.1013 -0.3152  0.4567
 1171TIP3   OH224927   0.897   5.793  12.559 -0.0815 -0.4646  0.0632
 1171TIP3    H124928   0.897   5.723  12.493  0.5785  0.3345 -0.7960
 1171TIP3    H224929   0.894   5.874  12.508  0.7926  0.1750  1.0059
 1172TIP3   OH224930   1.987   0.805   3.641 -0.2687  0.7565 -0.4094
 1172TIP3    H124931   1.902   0.765   3.661 -0.8315  1.3905 -1.4502
 1172TIP3    H224932   2.050   0.733   3.646 -0.5733  0.6125  2.1484
 1173TIP3   OH224933   3.420   6.660  12.616 -0.8346 -0.0882 -0.2082
 1173TIP3    H124934   3.430   6.610  12.535 -0.6857 -3.0904  1.6106
 1173TIP3    H224935   3.505   6.703  12.628 -0.3847 -0.7870 -0.8762
 1174TIP3   OH224936   1.044   1.868  12.375 -0.7875  0.6590 -0.2082
 1174TIP3    H124937   0.975   1.810  12.342 -0.9753  0.3442  0.7308
 1174TIP3    H224938   1.047   1.939  12.311  0.2686 -0.9769 -2.0214
 1175TIP3   OH224939   2.821   1.528   2.989 -0.3755  0.2411  0.1505
 1175TIP3    H124940   2.745   1.535   2.932 -1.2210  2.1576  1.4563
 1175TIP3    H224941   2.895   1.548   2.932 -1.2765  3.0129 -0.1715
 1176TIP3   OH224942   0.874   6.094  12.695 -0.3080  0.5672  0.3837
 1176TIP3    H124943   0.919   6.139  12.767  0.2245  0.2996  0.2224
 1176TIP3    H224944   0.803   6.046  12.738 -0.3942  0.9283  0.6508
 1177TIP3   OH224945   3.751   4.278  13.828 -0.5911 -0.1242  0.2742
 1177TIP3    H124946   3.756   4.198  13.776 -1.7999 -0.9436  1.4116
 1177TIP3    H224947   3.778   4.252  13.916 -2.4848  0.3878  1.0193
 1178TIP3   OH224948   1.745   0.672  11.038 -0.3574 -0.6024  0.1856
 1178TIP3    H124949   1.796   0.665  10.958 -0.0519 -0.1747  0.3436
 1178TIP3    H224950   1.810   0.683  11.107 -0.6851  0.7922  0.2897
 1179TIP3   OH224951   2.655   4.610   0.996 -0.0672 -0.3812 -0.2163
 1179TIP3    H124952   2.709   4.641   0.922  0.3706  0.1293  0.3067
 1179TIP3    H224953   2.688   4.522   1.014  0.3845 -0.1936 -0.1040
 1180TIP3   OH224954   2.714   6.024   1.591  0.2586 -0.4198  0.5663
 1180TIP3    H124955   2.759   5.963   1.649  3.2192  1.4746  0.3592
 1180TIP3    H224956   2.771   6.032   1.515 -0.3708  2.0809  0.2986
 1181TIP3   OH224957   5.278   5.519  14.653 -0.6018  0.2068  0.1652
 1181TIP3    H124958   5.263   5.603  14.610 -0.5633  0.2880  0.3094
 1181TIP3    H224959   5.245   5.532  14.742  1.7096  0.8749  0.9656
 1182TIP3   OH224960   2.478   3.627  13.564 -0.1095  0.2907 -0.3322
 1182TIP3    H124961   2.489   3.573  13.486  2.6630 -0.0099  0.2245
 1182TIP3    H224962   2.536   3.587  13.629 -0.7772  1.7953  1.2170
 1183TIP3   OH224963   0.152   4.669   5.805  0.0289  0.7212  0.2321
 1183TIP3    H124964   0.156   4.613   5.882 -0.2480  0.6201  0.1755
 1183TIP3    H224965   0.151   4.607   5.731 -0.2701  0.7965  0.1702
 1184TIP3   OH224966   1.614   4.207   5.025  0.3180  0.3780  0.5490
 1184TIP3    H124967   1.618   4.294   5.066  2.0510  0.1766  0.8606
 1184TIP3    H224968   1.579   4.150   5.094 -0.8930  0.8348  0.3197
 1185TIP3   OH224969   0.298   6.736   3.658 -0.3661 -0.1200  0.1909
 1185TIP3    H124970   0.352   6.815   3.656  0.5761 -0.7428  0.8655
 1185TIP3    H224971   0.350   6.670   3.613 -0.4318 -0.7998  1.0910
 1186TIP3   OH224972   0.376   6.702  13.108 -0.3681  0.7119 -0.0539
 1186TIP3    H124973   0.390   6.766  13.038  1.1234  0.6243  0.1520
 1186TIP3    H224974   0.461   6.661  13.121 -0.7624  0.3140  1.4146
 1187TIP3   OH224975   2.562   2.816   5.390 -0.0533  0.1464 -0.1326
 1187TIP3    H124976   2.596   2.727   5.399 -1.3009 -0.4973 -1.6609
 1187TIP3    H224977   2.467   2.806   5.395 -0.1572  1.5401  0.8040
 1188TIP3   OH224978   5.742   5.832  16.044  0.9070  0.3568  0.1114
 1188TIP3    H124979   5.762   5.775  16.118  1.3143 -1.2527 -1.2180
 1188TIP3    H224980   5.827   5.849  16.003  0.6519  1.0176 -0.1608
 1189TIP3   OH224981   3.965   2.403   4.062 -0.5135 -0.3952  0.2137
 1189TIP3    H124982   3.898   2.465   4.091 -1.2149 -1.7541  1.5621
 1189TIP3    H224983   4.037   2.414   4.124  0.2458  0.5828 -0.8299
 1190TIP3   OH224984   0.978   3.508  14.362  0.4670 -0.0422  0.3179
 1190TIP3    H124985   1.022   3.487  14.280  1.6835 -1.2931  1.2589
 1190TIP3    H224986   0.998   3.600  14.377  1.7012 -0.2515  0.0511
 1191TIP3   OH224987   2.691   1.721  13.028 -0.8851 -0.2939  0.3554
 1191TIP3    H124988   2.607   1.750  13.064  0.6994  2.2085  2.2634
 1191TIP3    H224989   2.727   1.662  13.095  0.4641  1.5302  1.2894
 1192TIP3   OH224990   1.916   6.306  11.988  0.2399  0.0662  0.1018
 1192TIP3    H124991   1.912   6.342  11.900  0.5364  0.3658  0.2124
 1192TIP3    H224992   1.961   6.222  11.978 -0.8794 -0.5161 -0.2284
 1193TIP3   OH224993   3.454   2.447   2.392 -0.1206  0.1727 -0.6990
 1193TIP3    H124994   3.545   2.433   2.419  0.0372 -0.9913 -1.7816
 1193TIP3    H224995   3.433   2.534   2.424  1.6763  0.8235 -1.2190
 1194TIP3   OH224996   0.951   3.039  12.285  0.3354  0.0000 -0.2763
 1194TIP3    H124997   0.937   3.065  12.194  2.8725  1.1057 -0.4022
 1194TIP3    H224998   0.973   2.946  12.281 -2.2351 -0.6497 -0.4796
 1195TIP3   OH224999   2.027   5.907  12.536 -0.1843 -0.1071 -0.6376
 1195TIP3    H125000   2.111   5.953  12.533 -0.2321  0.0492  0.2558
 1195TIP3    H225001   2.046   5.821  12.499  0.7821 -0.6829  1.0956
 1196TIP3   OH225002   6.109   1.644  11.166 -0.2947 -0.5978  0.0807
 1196TIP3    H125003   6.038   1.692  11.125  1.1974  1.1190 -0.5324
 1196TIP3    H225004   6.160   1.609  11.092 -0.1431 -1.3003  0.5121
 1197TIP3   OH225005   2.480   1.475   4.699  1.1017  0.1436  0.0378
 1197TIP3    H125006   2.395   1.434   4.715  0.9728  0.7058  0.7960
 1197TIP3    H225007   2.498   1.457   4.607 -0.0175  0.3541 -0.2254
 1198TIP3   OH225008   1.297   4.977   4.263  0.1481 -0.5750 -0.2568
 1198TIP3    H125009   1.308   5.037   4.189  1.9941  1.7556  1.7816
 1198TIP3    H225010   1.367   4.913   4.253  0.4890 -0.1742 -0.4481
 1199TIP3   OH225011   5.116   4.128   0.868 -0.5175  0.1567  0.7687
 1199TIP3    H125012   5.096   4.039   0.839 -2.1014  0.8974 -0.4706
 1199TIP3    H225013   5.110   4.123   0.964 -2.2852 -0.6908  0.6388
 1200TIP3   OH225014   1.432   3.830  12.961 -0.1965  0.0067  0.2177
 1200TIP3    H125015   1.404   3.767  13.028  0.6627  1.1731  1.7008
 1200TIP3    H225016   1.527   3.837  12.973 -0.5253  3.1669  1.5337
 1201TIP3   OH225017   5.822   6.507   4.167  0.1726  0.2890 -0.2339
 1201TIP3    H125018   5.730   6.488   4.151  0.0785  1.1531 -0.7800
 1201TIP3    H225019   5.863   6.504   4.080  0.5222  0.5880 -0.0824
 1202TIP3   OH225020   4.893   3.499  11.577  0.1925  0.1747 -0.0698
 1202TIP3    H125021   4.892   3.453  11.493  0.8271  0.1819 -0.0843
 1202TIP3    H225022   4.864   3.434  11.640 -2.1818  0.6986 -0.5427
 1203TIP3   OH225023   6.381   3.344   4.140  0.1629  0.1445 -0.1027
 1203TIP3    H125024   6.458   3.401   4.148 -0.1060  0.7019 -1.2551
 1203TIP3    H225025   6.328   3.386   4.072 -0.6203 -0.8401 -0.1072
 1204TIP3   OH225026   1.191   2.009  16.111  0.4323  0.3951 -0.0983
 1204TIP3    H125027   1.196   1.919  16.081 -1.4812  0.1518  0.2162
 1204TIP3    H225028   1.225   2.061  16.038 -2.0332 -0.3503 -1.8634
 1205TIP3   OH225029   6.641   0.878   1.679 -0.2354 -0.5179  0.2731
 1205TIP3    H125030   6.725   0.841   1.653  1.1255  1.3415  1.8770
 1205TIP3    H225031   6.614   0.932   1.605  1.6744  1.5949  1.0811
 1206TIP3   OH225032   4.840   4.592  12.898  0.1208 -0.0436 -0.2949
 1206TIP3    H125033   4.754   4.550  12.896  0.0878  0.0461 -0.8542
 1206TIP3    H225034   4.902   4.520  12.884  0.1995 -0.2784  1.2304
 1207TIP3   OH225035   4.685   0.174   4.400 -0.0848  0.5838  0.0617
 1207TIP3    H125036   4.742   0.251   4.401 -1.5581  1.7047 -0.0977
 1207TIP3    H225037   4.714   0.125   4.323 -0.0463  1.6933 -0.6547
 1208TIP3   OH225038   0.943   5.126  14.902  0.4105  0.3973  0.3620
 1208TIP3    H125039   0.908   5.048  14.860 -2.0993  2.4087 -1.4019
 1208TIP3    H225040   1.023   5.096  14.945  0.9540 -2.5657 -2.5305
 1209TIP3   OH225041   4.553   6.530  14.522 -0.1060  0.3735  0.1711
 1209TIP3    H125042   4.483   6.482  14.477  0.3467 -0.6613  0.5561
 1209TIP3    H225043   4.627   6.526  14.462 -0.1178  0.7331  0.1322
 1210TIP3   OH225044   4.126   0.206   3.157 -0.1632 -0.1132 -0.4998
 1210TIP3    H125045   4.057   0.140   3.163  0.3492 -0.8016 -1.9766
 1210TIP3    H225046   4.175   0.197   3.239  1.0026 -2.8270 -1.4673
 1211TIP3   OH225047   4.109   0.993  16.718  0.2609  0.2921 -0.6554
 1211TIP3    H125048   4.139   0.917  16.768 -2.5003 -1.4735 -1.5552
 1211TIP3    H225049   4.106   0.963  16.627 -3.9725  0.3385 -0.6504
 1212TIP3   OH225050   0.332   4.675   3.831  0.0631  0.2004  0.4652
 1212TIP3    H125051   0.307   4.627   3.752  1.1298  1.0890 -0.4191
 1212TIP3    H225052   0.360   4.607   3.892  0.7634 -0.3859 -0.4853
 1213TIP3   OH225053   1.754   3.067  16.651  0.1658 -0.2716  0.4796
 1213TIP3    H125054   1.789   2.979  16.661 -0.2722 -0.2153  2.8675
 1213TIP3    H225055   1.660   3.054  16.633  0.6304 -0.3334 -2.0286
 1214TIP3   OH225056   6.572   1.089  13.780  0.3637  0.2182  0.0868
 1214TIP3    H125057   6.565   1.067  13.873  1.8390 -0.0575  0.1457
 1214TIP3    H225058   6.660   1.062  13.755 -0.4712 -0.9451 -1.7309
 1215TIP3   OH225059   0.672   0.302   1.952  0.2244 -0.2551  0.3452
 1215TIP3    H125060   0.646   0.347   1.872 -0.7692  1.5957  1.6731
 1215TIP3    H225061   0.593   0.258   1.981  0.2585  0.0704  0.9376
 1216TIP3   OH225062   5.542   6.174  16.845  0.1656 -0.1386 -0.0159
 1216TIP3    H125063   5.601   6.100  16.827 -0.5914 -0.5814 -0.7460
 1216TIP3    H225064   5.510   6.158  16.934  0.4766 -0.3670  0.0561
 1217TIP3   OH225065   2.375   4.122   0.417  0.1629 -0.3738  0.0056
 1217TIP3    H125066   2.384   4.193   0.480 -0.5962  0.5478 -0.9048
 1217TIP3    H225067   2.285   4.090   0.430 -0.1825  0.1742 -0.9469
 1218TIP3   OH225068   2.017   5.538  15.595 -0.3291  0.3551 -0.2628
 1218TIP3    H125069   2.078   5.533  15.522  0.5485  1.0856  0.4160
 1218TIP3    H225070   2.020   5.451  15.635 -0.0564  0.2642 -0.4846
 1219TIP3   OH225071   0.777   0.639   2.877  0.1180 -0.3510 -0.5810
 1219TIP3    H125072   0.848   0.649   2.813  0.4118  3.1532  0.2008
 1219TIP3    H225073   0.698   0.668   2.831 -0.1598 -0.6595 -0.3000
 1220TIP3   OH225074   3.995   4.985  14.301 -0.6124 -0.9180  0.3270
 1220TIP3    H125075   3.919   4.927  14.301 -2.6179  1.6126  0.0659
 1220TIP3    H225076   4.017   4.996  14.209 -0.2259 -1.2345  0.3773
 1221TIP3   OH225077   1.654   0.764   5.289  0.2124 -0.5615 -0.0493
 1221TIP3    H125078   1.746   0.760   5.315  0.3235 -1.7008 -0.5636
 1221TIP3    H225079   1.656   0.769   5.194 -0.2540 -0.9640 -0.0848
 1222TIP3   OH225080   0.039   5.420  16.444 -0.2160  0.0219 -0.0121
 1222TIP3    H125081  -0.032   5.378  16.492  0.5779  1.4102  2.4572
 1222TIP3    H225082   0.104   5.350  16.431 -1.1022 -0.7326 -0.4079
 1223TIP3   OH225083   1.620   0.650  13.929  0.0792  0.4205 -0.1539
 1223TIP3    H125084   1.606   0.720  13.993 -0.8385  0.3292 -0.2368
 1223TIP3    H225085   1.546   0.591  13.942 -0.4261  0.6908 -1.6601
 1224TIP3   OH225086   6.391   5.337  16.430  0.1896  0.3279 -0.4609
 1224TIP3    H125087   6.454   5.331  16.358 -0.3514 -0.2794 -0.8935
 1224TIP3    H225088   6.309   5.305  16.393 -0.4526  1.4009  0.0191
 1225TIP3   OH225089   2.759   4.859  16.353  0.1887  0.3082 -0.2913
 1225TIP3    H125090   2.664   4.871  16.347 -0.1272 -0.8906  1.9375
 1225TIP3    H225091   2.775   4.776  16.309  0.0480 -0.0712  0.3681
 1226TIP3   OH225092   3.003   5.646   0.650  0.4580  0.6173 -0.3351
 1226TIP3    H125093   3.048   5.725   0.620 -0.1779  1.0218 -0.2096
 1226TIP3    H225094   2.976   5.602   0.569  2.2253 -0.2918 -0.4528
 1227TIP3   OH225095   0.111   1.434   0.760 -0.1437  0.1526  0.0544
 1227TIP3    H125096   0.042   1.412   0.698  1.6435  2.2949 -2.8500
 1227TIP3    H225097   0.088   1.520   0.793  1.5620  1.3734 -1.7575
 1228TIP3   OH225098   3.079   3.220  17.060 -0.3763 -0.4153  0.1393
 1228TIP3    H125099   3.109   3.230  16.969 -3.4482  2.0625 -0.6795
 1228TIP3    H225100   3.151   3.256  17.112  0.1418  1.0319 -1.4894
 1229TIP3   OH225101   0.752   3.228  14.068 -0.8056  0.9800  0.1654
 1229TIP3    H125102   0.736   3.291  14.139 -0.5581 -0.2681  1.3389
 1229TIP3    H225103   0.730   3.277  13.988  1.9274  3.4211  0.8194
 1230TIP3   OH225104   1.727   5.679  16.119  0.5254 -0.5986 -0.1056
 1230TIP3    H125105   1.816   5.687  16.153  0.2531 -0.9615  0.7082
 1230TIP3    H225106   1.672   5.723  16.185  0.0320 -0.9980 -0.2448
 1231TIP3   OH225107   4.100   3.968  12.548  0.1383  0.0197 -0.0905
 1231TIP3    H125108   4.101   4.064  12.558  0.1677 -0.0469  0.5729
 1231TIP3    H225109   4.033   3.953  12.481 -1.3361  0.3978  1.2424
 1232TIP3   OH225110   4.714   3.585   0.754 -0.2726 -0.1461  0.1057
 1232TIP3    H125111   4.739   3.598   0.846  0.5387  1.1688 -0.2989
 1232TIP3    H225112   4.625   3.551   0.759  0.1170 -1.0329  1.4150
 1233TIP3   OH225113   3.027   0.060  14.518 -0.3198 -0.5214  0.3073
 1233TIP3    H125114   3.004   0.079  14.609  1.3287 -0.1203  0.6474
 1233TIP3    H225115   3.122   0.068  14.515 -0.3155 -1.0665 -1.3324
 1234TIP3   OH225116   3.301   4.113   0.637 -0.2775 -0.1144  0.1447
 1234TIP3    H125117   3.314   4.021   0.612  0.2501 -0.3601  1.2553
 1234TIP3    H225118   3.225   4.110   0.696  0.0301  0.0855  0.5541
 1235TIP3   OH225119   0.236   2.971   1.746 -0.3304 -0.6066  0.5729
 1235TIP3    H125120   0.168   2.923   1.697 -0.7578 -0.1167  0.6844
 1235TIP3    H225121   0.198   3.057   1.761  1.4034  0.6121 -1.7909
 1236TIP3   OH225122   6.136   4.436  16.206 -0.1925  0.4052  0.0220
 1236TIP3    H125123   6.089   4.494  16.146 -0.2584 -0.2322 -0.5611
 1236TIP3    H225124   6.091   4.445  16.289 -1.6678 -0.5645 -0.6527
 1237TIP3   OH225125   5.611   3.744  13.904 -0.7569  0.3732 -0.3472
 1237TIP3    H125126   5.614   3.655  13.940  0.3274  0.6045  0.1337
 1237TIP3    H225127   5.586   3.799  13.978 -1.1341  0.5188 -0.5760
 1238TIP3   OH225128   4.404   4.118  16.336 -0.3563 -0.3969  0.0716
 1238TIP3    H125129   4.469   4.051  16.314 -1.1483 -0.9030 -0.7400
 1238TIP3    H225130   4.392   4.168  16.256 -0.9547 -0.2895  0.2275
 1239TIP3   OH225131   1.176   1.332  15.105  0.2515  0.3928 -0.8569
 1239TIP3    H125132   1.081   1.338  15.102  0.2431  0.3288 -0.7178
 1239TIP3    H225133   1.206   1.423  15.107  0.1941  0.4129 -0.9213
 1240TIP3   OH225134   2.835   3.363   6.689 -0.0932 -0.1050 -0.0458
 1240TIP3    H125135   2.830   3.380   6.783 -1.5734 -0.1255 -0.1012
 1240TIP3    H225136   2.812   3.271   6.680  0.3365 -0.1778 -0.4008
 1241TIP3   OH225137   0.033   6.081   0.742 -0.2767  0.0468 -0.0322
 1241TIP3    H125138   0.109   6.097   0.687 -2.3447  1.7840 -2.5361
 1241TIP3    H225139   0.001   6.168   0.765 -0.3793 -0.6557  2.6847
 1242TIP3   OH225140   2.009   3.035   3.749  0.2243  0.2714  0.0719
 1242TIP3    H125141   2.057   3.095   3.692 -0.1321  1.1741  0.7285
 1242TIP3    H225142   1.926   3.079   3.767 -1.0523 -1.4374 -1.3604
 1243TIP3   OH225143   3.679   0.535   1.113  0.3813  0.5461  0.5287
 1243TIP3    H125144   3.691   0.615   1.164 -0.4063  0.7152  0.4517
 1243TIP3    H225145   3.665   0.565   1.024 -0.7269  0.3636  0.6331
 1244TIP3   OH225146   1.832   5.384   3.846 -0.4175 -0.2200  0.0346
 1244TIP3    H125147   1.826   5.342   3.760 -0.9351 -1.4793  0.6855
 1244TIP3    H225148   1.824   5.478   3.827 -1.3259 -0.5376 -1.2021
 1245TIP3   OH225149   5.590   6.052  11.778  0.0581  0.1354  0.2735
 1245TIP3    H125150   5.627   5.983  11.834 -2.2624 -1.5443 -0.1837
 1245TIP3    H225151   5.496   6.034  11.778 -0.8713  4.4934  1.7332
 1246TIP3   OH225152   6.376   3.595   3.926  0.3732 -0.1989 -0.5459
 1246TIP3    H125153   6.393   3.654   3.853  1.6144 -0.9035 -0.8501
 1246TIP3    H225154   6.360   3.652   4.000  2.1001  0.5420 -0.7150
 1247TIP3   OH225155   3.037   4.197   4.279  0.2280 -0.6482  0.8445
 1247TIP3    H125156   3.089   4.117   4.293  0.1006 -0.9383 -0.3450
 1247TIP3    H225157   3.073   4.259   4.343  1.6172 -1.0409  0.4695
 1248TIP3   OH225158   2.110   3.763  12.729 -0.0349 -0.4962  0.3002
 1248TIP3    H125159   2.120   3.815  12.808 -1.7405 -1.1790  0.9832
 1248TIP3    H225160   2.099   3.673  12.759 -0.9504 -0.7337 -0.6839
 1249TIP3   OH225161   0.875   4.827   5.658  0.2484  0.2886  0.0645
 1249TIP3    H125162   0.963   4.864   5.655 -0.0291  0.9574  0.0618
 1249TIP3    H225163   0.835   4.852   5.575  0.0999 -0.1226  0.0106
 1250TIP3   OH225164   2.123   2.444   0.796  0.5470  0.1236  0.0077
 1250TIP3    H125165   2.171   2.437   0.878 -2.5171  0.3880  1.9391
 1250TIP3    H225166   2.115   2.538   0.780 -1.3645  0.1873  1.0646
 1251TIP3   OH225167   0.770   6.435   3.208  0.6176  0.3168 -0.2327
 1251TIP3    H125168   0.745   6.356   3.255  0.2751  0.2283 -0.5579
 1251TIP3    H225169   0.688   6.485   3.201  0.9355  0.9332  0.4174
 1252TIP3   OH225170   5.914   5.713  14.041  0.1511 -0.2404  0.3333
 1252TIP3    H125171   5.853   5.653  13.998  1.6211 -1.2955 -0.3558
 1252TIP3    H225172   5.939   5.775  13.972 -0.7157  0.6615  0.8182
 1253TIP3   OH225173   2.587   4.762  14.988 -0.3245 -0.0789  0.2150
 1253TIP3    H125174   2.558   4.783  14.899 -0.6938 -1.4553 -0.0106
 1253TIP3    H225175   2.515   4.791  15.044  0.4617  1.9735  0.1922
 1254TIP3   OH225176   3.295   5.057   4.089 -0.0518 -0.0842 -0.2098
 1254TIP3    H125177   3.248   4.974   4.080 -3.4277  1.6933  0.0708
 1254TIP3    H225178   3.293   5.096   4.002  1.3707 -0.1908 -0.3044
 1255TIP3   OH225179   6.275   2.938   4.710 -0.3733 -0.1478 -0.4436
 1255TIP3    H125180   6.331   2.961   4.636 -0.4241  0.0598 -0.4163
 1255TIP3    H225181   6.329   2.954   4.787 -0.1195 -0.9126 -0.4518
 1256TIP3   OH225182   4.311   0.044  11.921 -0.2434 -0.5796  0.3680
 1256TIP3    H125183   4.348   0.121  11.964  0.0565 -0.0917 -0.7460
 1256TIP3    H225184   4.383   0.010  11.868  0.0872 -2.5144  2.0114
 1257TIP3   OH225185   4.175   3.114   5.246 -0.0424 -0.0070 -0.1176
 1257TIP3    H125186   4.147   3.041   5.190  1.5405 -1.2999  0.7141
 1257TIP3    H225187   4.265   3.091   5.271  0.4766  2.2486  0.1706
 1258TIP3   OH225188   1.238   3.585  12.891  0.4623  0.2996  0.4032
 1258TIP3    H125189   1.192   3.534  12.824 -0.1776 -0.2721  1.2763
 1258TIP3    H225190   1.241   3.673  12.855 -4.3006  1.1438  1.7626
 1259TIP3   OH225191   1.969   2.546   4.723  0.1709 -0.2912 -0.7851
 1259TIP3    H125192   1.873   2.547   4.713 -0.1218  0.1127  1.7546
 1259TIP3    H225193   1.990   2.454   4.740  0.0848 -0.2045 -0.1873
 1260TIP3   OH225194   4.872   5.478  10.900  0.4235 -0.2312  1.0989
 1260TIP3    H125195   4.781   5.487  10.874  1.1234 -0.1083 -1.4271
 1260TIP3    H225196   4.905   5.404  10.850  2.2413  0.9860  0.4145
 1261TIP3   OH225197   0.793   6.070  11.284 -0.0738  0.3458 -0.7387
 1261TIP3    H125198   0.862   6.047  11.347  1.2119 -0.7645 -2.5179
 1261TIP3    H225199   0.839   6.103  11.208 -1.6526  2.0163 -1.0055
 1262TIP3   OH225200   5.019   1.405   3.052 -0.5377 -0.7168  0.6588
 1262TIP3    H125201   5.057   1.359   2.978  0.5525 -0.1874  0.8732
 1262TIP3    H225202   4.972   1.338   3.101 -1.8940 -0.9245 -0.9068
 1263TIP3   OH225203   5.988   1.629   3.837  0.0893 -0.5232 -0.2535
 1263TIP3    H125204   6.030   1.629   3.751 -0.4292 -2.1464 -0.5158
 1263TIP3    H225205   6.060   1.643   3.899  0.7627 -1.4049 -0.8214
 1264TIP3   OH225206   4.412   1.944  11.678  0.2176  0.3165 -0.1068
 1264TIP3    H125207   4.375   1.905  11.599 -0.7350  0.7404  0.1232
 1264TIP3    H225208   4.362   1.904  11.750 -0.0056  1.1178  0.1903
 1265TIP3   OH225209   0.997   4.567  12.520  0.1648  0.3448  0.4097
 1265TIP3    H125210   1.011   4.607  12.606  1.3485 -1.4091  1.0756
 1265TIP3    H225211   0.993   4.473  12.539 -0.4639  0.0036 -1.3609
 1266TIP3   OH225212   4.882   6.473   1.925 -0.7137 -0.2568 -0.2117
 1266TIP3    H125213   4.848   6.562   1.936 -1.2784 -0.7325  2.3024
 1266TIP3    H225214   4.808   6.424   1.889 -1.4122 -0.3534  1.2918
 1267TIP3   OH225215   4.935   2.804  14.697  0.6395  0.4147  0.2004
 1267TIP3    H125216   4.931   2.767  14.609 -0.3552 -0.0594  0.4394
 1267TIP3    H225217   4.978   2.889  14.686  2.5760 -0.6202 -0.4105
 1268TIP3   OH225218   1.273   3.398  15.471 -0.7405 -0.4937  0.2133
 1268TIP3    H125219   1.275   3.442  15.386 -0.9032 -0.6915  0.1067
 1268TIP3    H225220   1.359   3.357  15.479 -1.2562 -1.7524 -0.5330
 1269TIP3   OH225221   0.743   2.178  12.872  0.1826  0.1139  0.4123
 1269TIP3    H125222   0.706   2.252  12.823 -0.2069  0.5800  1.3805
 1269TIP3    H225223   0.769   2.115  12.805  2.0900  1.8326 -0.5519
 1270TIP3   OH225224   4.925   3.485   3.040 -0.2071 -0.5284 -0.2742
 1270TIP3    H125225   4.855   3.441   2.992 -0.3901 -0.7881  0.2157
 1270TIP3    H225226   5.005   3.438   3.015 -0.4189 -1.2278  0.3365
 1271TIP3   OH225227   5.613   1.092  13.388  0.2620 -0.1583  0.3158
 1271TIP3    H125228   5.590   1.137  13.469 -0.7774 -0.3751  0.1546
 1271TIP3    H225229   5.609   0.999  13.411 -0.2181 -0.2254 -0.0202
 1272TIP3   OH225230   5.741   3.241   1.485  0.1441  0.4616 -0.6438
 1272TIP3    H125231   5.731   3.332   1.458  0.0176 -0.0540 -2.3520
 1272TIP3    H225232   5.747   3.192   1.404  1.3361 -0.9471  0.2700
 1273TIP3   OH225233   2.427   1.802  12.829  0.4611 -0.7120  0.4205
 1273TIP3    H125234   2.433   1.797  12.925 -0.1159 -0.5147  0.4695
 1273TIP3    H225235   2.508   1.844  12.802 -0.0090  0.5496  0.9417
 1274TIP3   OH225236   6.447   4.786  16.515 -0.8775 -0.5245 -0.5294
 1274TIP3    H125237   6.451   4.880  16.534 -0.7853 -0.2216 -2.0255
 1274TIP3    H225238   6.362   4.759  16.551 -1.0910  0.2061 -0.4562
 1275TIP3   OH225239   6.675   2.936  10.471 -0.0668 -0.0449  0.2660
 1275TIP3    H125240   6.684   3.031  10.485 -1.0305  0.3872 -1.8843
 1275TIP3    H225241   6.594   2.913  10.517 -0.4760  0.3947 -0.2376
 1276TIP3   OH225242   6.153   1.883   1.127  0.4483  0.6645 -0.1561
 1276TIP3    H125243   6.216   1.871   1.197 -1.9838 -0.3721  1.9068
 1276TIP3    H225244   6.159   1.803   1.074  0.0465  0.0616  0.7076
 1277TIP3   OH225245   4.143   3.971  15.035 -0.3633  0.0781  0.9199
 1277TIP3    H125246   4.124   3.907  15.104 -0.8816  0.0319  0.7359
 1277TIP3    H225247   4.118   3.926  14.954 -2.6112  1.2392  0.9410
 1278TIP3   OH225248   3.981   0.597  13.018  0.1650  0.3683  0.0196
 1278TIP3    H125249   4.036   0.549  13.080 -1.2601  0.4747  1.3980
 1278TIP3    H225250   3.911   0.535  12.994  0.5948  0.3886 -1.3580
 1279TIP3   OH225251   0.711   1.933   1.648 -0.0922 -0.5361 -0.2011
 1279TIP3    H125252   0.763   2.003   1.688  0.5822 -1.3534  0.3597
 1279TIP3    H225253   0.706   1.957   1.556 -2.6823  2.0217  0.5130
 1280TIP3   OH225254   2.813   3.947   6.163  0.0061  0.1876 -0.3920
 1280TIP3    H125255   2.727   3.974   6.196 -0.3671 -1.4215 -0.0124
 1280TIP3    H225256   2.798   3.927   6.071 -0.2306 -0.9215 -0.1226
 1281TIP3   OH225257   5.284   3.397   4.489 -0.4000 -0.4313  0.1628
 1281TIP3    H125258   5.212   3.451   4.523 -0.7876 -0.5594 -0.4417
 1281TIP3    H225259   5.363   3.446   4.513 -0.6696 -0.4032  1.0320
 1282TIP3   OH225260   1.512   5.865  11.189  0.6349  0.0007  0.4054
 1282TIP3    H125261   1.503   5.929  11.118 -0.7481  1.2994  1.7104
 1282TIP3    H225262   1.439   5.805  11.176  0.7150 -0.0943  0.3943
 1283TIP3   OH225263   3.405   0.055   2.261 -0.4630  0.2482  0.3245
 1283TIP3    H125264   3.341   0.092   2.322  0.3166  2.8499 -0.3638
 1283TIP3    H225265   3.489   0.093   2.288  0.8401 -3.1406  1.2238
 1284TIP3   OH225266   0.576   4.343   2.705  0.4950 -0.2684  0.3304
 1284TIP3    H125267   0.620   4.426   2.688  0.2847 -0.2552 -0.1408
 1284TIP3    H225268   0.636   4.277   2.670  0.3363 -0.2752  0.0735
 1285TIP3   OH225269   3.674   5.116  12.476 -0.3281  0.1100 -0.5428
 1285TIP3    H125270   3.751   5.084  12.522  1.6443  0.8524 -3.2350
 1285TIP3    H225271   3.648   5.044  12.418 -0.4000  0.6155 -1.1464
 1286TIP3   OH225272   5.433   0.057  11.106 -0.2017  0.0565  0.5960
 1286TIP3    H125273   5.496   0.007  11.055 -0.1975  0.1009  0.5575
 1286TIP3    H225274   5.413   0.133  11.052 -0.4035 -0.0353  0.5428
 1287TIP3   OH225275   4.406   5.861   1.418  0.1066 -0.2082 -0.0322
 1287TIP3    H125276   4.397   5.947   1.461  1.3417  0.6626 -1.4415
 1287TIP3    H225277   4.356   5.870   1.337 -0.8312 -1.2765  0.4183
 1288TIP3   OH225278   1.802   0.999   2.178 -0.0698 -0.1904 -0.6187
 1288TIP3    H125279   1.819   1.064   2.111  0.5891  1.6015  1.2361
 1288TIP3    H225280   1.733   0.944   2.142  0.3106  0.6999 -2.7588
 1289TIP3   OH225281   1.822   5.922   4.287 -0.0873  0.1987  0.2671
 1289TIP3    H125282   1.832   5.829   4.265  1.4517  0.2584  0.6600
 1289TIP3    H225283   1.801   5.964   4.204 -2.2295 -0.6763  0.3166
 1290TIP3   OH225284   1.165   6.776  12.859 -0.2519 -0.6034 -0.2918
 1290TIP3    H125285   1.127   6.697  12.898 -1.0229 -0.2347 -0.3032
 1290TIP3    H225286   1.123   6.783  12.773 -2.5337  1.5891  0.9700
 1291TIP3   OH225287   6.519   5.897  12.855 -0.0613  0.5856 -0.2647
 1291TIP3    H125288   6.563   5.896  12.770 -1.4898 -0.3833 -1.0223
 1291TIP3    H225289   6.426   5.907  12.833 -0.3492  1.1449  1.2242
 1292TIP3   OH225290   1.031   5.933   3.402  0.2249  0.3117  0.4173
 1292TIP3    H125291   1.031   5.869   3.330  0.8380  1.2986 -0.4705
 1292TIP3    H225292   1.035   6.018   3.359  1.7812  0.8912  1.6270
 1293TIP3   OH225293   3.449   1.232  14.043 -0.4846 -0.0806 -0.1247
 1293TIP3    H125294   3.452   1.327  14.047  2.1279 -0.1200 -0.6875
 1293TIP3    H225295   3.383   1.208  14.109 -3.0958  2.1818 -1.7983
 1294TIP3   OH225296   0.153   2.310  12.758 -0.0133  0.2056  0.1887
 1294TIP3    H125297   0.063   2.320  12.789 -0.0171 -0.0100  0.2466
 1294TIP3    H225298   0.185   2.400  12.747 -0.5570  0.2884 -0.7678
 1295TIP3   OH225299   5.753   5.846   0.584  0.6470 -0.2232  0.5512
 1295TIP3    H125300   5.805   5.882   0.655 -1.2411  2.5108  0.6384
 1295TIP3    H225301   5.812   5.785   0.539  2.5573 -0.3302  3.0812
 1296TIP3   OH225302   0.481   5.018   4.903  0.0413  0.3550  0.3505
 1296TIP3    H125303   0.495   5.008   4.809 -1.7335 -1.5982  0.2586
 1296TIP3    H225304   0.387   5.034   4.912  0.3862  1.7068  1.7137
 1297TIP3   OH225305   6.004   5.757  12.247  0.1498 -0.4519  0.1783
 1297TIP3    H125306   6.066   5.734  12.178  0.4034 -1.4151  0.7140
 1297TIP3    H225307   6.018   5.691  12.315 -1.7980 -1.0110  0.0834
 1298TIP3   OH225308   3.132   1.038  15.520  0.0208  0.2878  0.4337
 1298TIP3    H125309   3.145   1.102  15.450 -1.2894  0.7512  0.5903
 1298TIP3    H225310   3.063   0.981  15.487 -1.0029  0.8457  1.5674
 1299TIP3   OH225311   1.446   3.027   5.184 -0.9628  0.3398 -0.3353
 1299TIP3    H125312   1.489   2.959   5.236 -1.3187  1.4268  1.4140
 1299TIP3    H225313   1.515   3.060   5.126 -0.4832 -0.6731 -0.3553
 1300TIP3   OH225314   3.975   3.282  12.216 -0.0246  0.4052  0.4095
 1300TIP3    H125315   4.051   3.299  12.159  2.1090 -1.1455  2.6934
 1300TIP3    H225316   3.987   3.342  12.290 -1.3243  0.4859  0.5725
 1301TIP3   OH225317   3.791   3.462   2.077  0.2400  0.0698 -0.2586
 1301TIP3    H125318   3.821   3.545   2.114 -0.1524 -0.8936  2.2982
 1301TIP3    H225319   3.708   3.445   2.121  0.7456 -2.1271 -0.1062
 1302TIP3   OH225320   3.227   0.319  12.931  0.1425 -0.0434 -0.3164
 1302TIP3    H125321   3.260   0.243  12.883  0.2197 -0.7444  0.8283
 1302TIP3    H225322   3.143   0.290  12.966  0.6717  0.0202  1.0347
 1303TIP3   OH225323   6.268   3.839   1.660 -0.8045 -0.2847  0.2376
 1303TIP3    H125324   6.288   3.912   1.718 -1.5291 -0.0185  0.1579
 1303TIP3    H225325   6.317   3.856   1.580  0.4757 -0.8317  0.8950
 1304TIP3   OH225326   6.695   0.238   3.344 -0.6402 -0.2169 -0.1516
 1304TIP3    H125327   6.770   0.184   3.322 -0.0801  0.1716  0.8116
 1304TIP3    H225328   6.721   0.327   3.318  0.1963  0.3207  2.4381
 1305TIP3   OH225329   3.441   0.186   5.906 -0.1766  0.1685 -0.0552
 1305TIP3    H125330   3.515   0.203   5.964  1.3657 -0.2818 -1.8453
 1305TIP3    H225331   3.406   0.102   5.936  0.5228  0.0011  0.3124
 1306TIP3   OH225332   3.451   2.214  14.385  0.2384  0.1844 -0.0036
 1306TIP3    H125333   3.395   2.137  14.380  0.7586 -0.1148 -1.4395
 1306TIP3    H225334   3.446   2.241  14.477 -2.6015  0.4568 -0.2209
 1307TIP3   OH225335   3.078   6.065   5.866  0.1340 -0.2793 -0.5575
 1307TIP3    H125336   3.166   6.101   5.854 -0.0680  0.2523 -0.4579
 1307TIP3    H225337   3.058   6.078   5.959 -0.4422  0.5044 -0.7871
 1308TIP3   OH225338   5.688   4.663  17.175 -0.1564 -0.1088 -0.4310
 1308TIP3    H125339   5.592   4.655  17.172 -0.4807  2.5096  1.0178
 1308TIP3    H225340   5.713   4.683  17.085 -1.1648  0.7975 -0.5241
 1309TIP3   OH225341   3.274   6.753   1.470  0.1937 -0.0840  0.1291
 1309TIP3    H125342   3.301   6.718   1.555  0.3734  0.9526  0.5094
 1309TIP3    H225343   3.200   6.811   1.491 -0.0152 -0.1325 -0.4712
 1310TIP3   OH225344   1.395   4.147  10.774 -0.3838  0.4600 -0.0120
 1310TIP3    H125345   1.463   4.195  10.728  0.0716 -1.1697 -1.0903
 1310TIP3    H225346   1.442   4.081  10.825 -1.0823  0.0783  0.1548
 1311TIP3   OH225347   5.434   3.088  12.264  0.3563  0.1415  0.5431
 1311TIP3    H125348   5.418   3.010  12.210  0.3841  0.6431 -0.1838
 1311TIP3    H225349   5.528   3.104  12.256  0.4260 -0.0060  1.0420
 1312TIP3   OH225350   4.748   3.098   4.779 -0.4714 -0.2445  0.2257
 1312TIP3    H125351   4.816   3.032   4.792  0.9130  1.6377  2.8765
 1312TIP3    H225352   4.677   3.051   4.735  2.0800 -2.5115 -1.6175
 1313TIP3   OH225353   3.669   4.715  16.239  0.3930 -0.3932  0.2631
 1313TIP3    H125354   3.588   4.677  16.204  1.3837 -2.8061  0.5049
 1313TIP3    H225355   3.650   4.727  16.332  0.8098 -2.4014  0.6255
 1314TIP3   OH225356   5.127   1.552   0.909  0.2608  0.0299  0.0659
 1314TIP3    H125357   5.107   1.595   0.826  1.5188  1.1973  0.3571
 1314TIP3    H225358   5.043   1.550   0.956 -0.3410 -0.1548 -0.9988
 1315TIP3   OH225359   0.193   5.136  13.012  0.6576  0.3539 -0.4703
 1315TIP3    H125360   0.204   5.057  13.064  0.9947  1.6789  1.5431
 1315TIP3    H225361   0.099   5.148  13.005  0.6113  0.2391 -0.0481
 1316TIP3   OH225362   5.503   1.969  11.220 -0.5575 -0.0881 -0.3466
 1316TIP3    H125363   5.458   1.915  11.285  0.6453 -1.0904 -0.3285
 1316TIP3    H225364   5.590   1.984  11.257 -0.4745  0.8443 -0.9062
 1317TIP3   OH225365   1.842   3.599   3.548 -0.3989  0.1395  0.0139
 1317TIP3    H125366   1.868   3.515   3.510 -0.7550  0.4787 -0.9961
 1317TIP3    H225367   1.776   3.576   3.614 -0.2622 -0.4039 -0.0381
 1318TIP3   OH225368   0.524   1.354   2.407 -0.2464  0.2348  0.2565
 1318TIP3    H125369   0.580   1.431   2.421 -0.1705  0.3221 -0.5035
 1318TIP3    H225370   0.545   1.325   2.318 -0.2584 -0.6827  0.5493
 1319TIP3   OH225371   0.995   2.362   3.008 -0.1422 -0.0656  0.3528
 1319TIP3    H125372   0.938   2.289   3.032 -0.2565 -0.0267  0.2006
 1319TIP3    H225373   1.082   2.337   3.040 -0.1192 -0.4124  0.0100
 1320TIP3   OH225374   3.503   2.982  13.109  0.5152  0.0286 -0.3810
 1320TIP3    H125375   3.481   3.074  13.125 -0.4991 -0.6464  2.4291
 1320TIP3    H225376   3.460   2.961  13.027 -3.1691  0.8163  1.2738
 1321TIP3   OH225377   5.897   6.177  12.369 -0.0567 -0.2360  0.2914
 1321TIP3    H125378   5.962   6.220  12.423 -0.5319  2.2565 -1.0005
 1321TIP3    H225379   5.826   6.154  12.429 -0.6174  2.5677  0.7754
 1322TIP3   OH225380   2.953   4.642  16.043 -0.2011 -0.0388  0.3272
 1322TIP3    H125381   2.867   4.646  16.084 -0.9173 -0.0385 -1.1627
 1322TIP3    H225382   2.991   4.560  16.076 -0.6832  0.0616  1.1422
 1323TIP3   OH225383   5.572   4.440   5.944 -0.6314  0.0108  0.1817
 1323TIP3    H125384   5.488   4.398   5.963 -0.9668 -0.5304 -2.3113
 1323TIP3    H225385   5.594   4.487   6.024 -2.3612 -1.4248  1.5389
 1324TIP3   OH225386   0.244   3.541   4.405 -0.0648  0.0206  0.2961
 1324TIP3    H125387   0.179   3.519   4.338  0.0198  0.0719  0.1960
 1324TIP3    H225388   0.328   3.527   4.362  0.0017  1.4991 -0.1053
 1325TIP3   OH225389   2.776   4.742   2.837 -0.1961  0.0325 -0.2349
 1325TIP3    H125390   2.741   4.723   2.924  2.2499 -0.7190  0.6231
 1325TIP3    H225391   2.747   4.668   2.783  0.2862 -0.7187  0.5217
 1326TIP3   OH225392   0.764   5.153  15.130  0.0914 -0.6123 -0.2416
 1326TIP3    H125393   0.816   5.227  15.160 -1.0278 -0.1060  0.4912
 1326TIP3    H225394   0.800   5.131  15.044 -0.2156  1.4148 -0.9010
 1327TIP3   OH225395   5.187   3.722  12.609  0.1789  0.0939 -0.2677
 1327TIP3    H125396   5.130   3.665  12.557  1.0324 -0.4352 -0.6362
 1327TIP3    H225397   5.269   3.672  12.617  0.6447  0.9200  0.1072
 1328TIP3   OH225398   3.038   0.276  12.735 -0.1707 -0.4095  0.3842
 1328TIP3    H125399   3.105   0.331  12.695 -0.7565  0.4594  0.5739
 1328TIP3    H225400   2.988   0.336  12.791 -1.2414 -0.9903  0.0722
 1329TIP3   OH225401   5.772   0.652  17.169 -0.3241 -0.2311 -0.7443
 1329TIP3    H125402   5.821   0.570  17.179  0.3598  0.3214  0.5601
 1329TIP3    H225403   5.833   0.711  17.125  1.1746  1.2557  3.0999
 1330TIP3   OH225404   2.165   5.980  15.653  0.0481 -0.2841 -0.3211
 1330TIP3    H125405   2.219   5.946  15.581 -0.3541  1.0928 -1.2958
 1330TIP3    H225406   2.077   5.988  15.615 -0.2629  0.0470  0.4548
 1331TIP3   OH225407   1.372   5.062  12.482 -0.0330 -0.7219 -0.3912
 1331TIP3    H125408   1.300   5.005  12.508 -0.2589 -0.9826 -1.5691
 1331TIP3    H225409   1.393   5.035  12.392  0.6680  0.2256 -0.5182
 1332TIP3   OH225410   6.524   5.241   0.661  0.1124  0.2309 -0.1901
 1332TIP3    H125411   6.540   5.331   0.633 -1.2790  0.1953 -1.1763
 1332TIP3    H225412   6.510   5.247   0.756  1.3167  0.8633 -0.0517
 1333TIP3   OH225413   1.060   0.935   0.401 -0.2575 -0.1525  0.9412
 1333TIP3    H125414   1.002   0.916   0.475 -4.4171  2.2259 -1.4763
 1333TIP3    H225415   1.016   0.898   0.325  1.5151  1.5094 -0.9881
 1334TIP3   OH225416   5.624   5.028   5.746 -0.0121 -0.6564 -0.0556
 1334TIP3    H125417   5.595   4.991   5.829  0.4476 -0.4627  0.1974
 1334TIP3    H225418   5.545   5.036   5.694 -0.1125 -2.0814 -0.1510
 1335TIP3   OH225419   6.080   2.228   3.666  0.7123 -0.4123  0.3264
 1335TIP3    H125420   6.090   2.198   3.576  0.9840  3.7028 -1.1597
 1335TIP3    H225421   5.998   2.278   3.665  1.2188  0.5013  2.0915
 1336TIP3   OH225422   1.097   3.018   5.132 -0.3930  0.0246 -0.6112
 1336TIP3    H125423   1.192   3.027   5.133 -0.4365  0.4773  1.9354
 1336TIP3    H225424   1.077   2.958   5.204 -2.1048  0.7986 -0.4099
 1337TIP3   OH225425   4.615   0.029   5.957 -0.2643  0.4600  0.2132
 1337TIP3    H125426   4.537   0.033   6.012 -0.3476 -1.0718  0.2225
 1337TIP3    H225427   4.608  -0.055   5.911  1.0366  0.6130 -0.2851
 1338TIP3   OH225428   0.146   3.580  16.374  0.1927 -0.0442 -0.2062
 1338TIP3    H125429   0.228   3.562  16.328  0.8341 -0.3316  1.0142
 1338TIP3    H225430   0.097   3.637  16.315  1.8658  1.2921 -0.3469
 1339TIP3   OH225431   0.477   6.491  14.230  0.2721  0.0448  0.2820
 1339TIP3    H125432   0.560   6.472  14.275 -0.2132 -1.9687  0.3687
 1339TIP3    H225433   0.451   6.407  14.193 -2.6534  0.2534  1.7565
 1340TIP3   OH225434   4.588   3.108   2.872  0.5453  0.1634 -1.2362
 1340TIP3    H125435   4.589   3.013   2.874  1.1345  0.1693  0.9495
 1340TIP3    H225436   4.507   3.131   2.827  0.3366 -1.3750 -1.6559
 1341TIP3   OH225437   2.343   6.348  13.426  0.4895  0.0676 -0.0434
 1341TIP3    H125438   2.352   6.328  13.333 -2.5954  0.6330 -0.5383
 1341TIP3    H225439   2.327   6.443  13.428  0.2528  0.0096  1.0402
 1342TIP3   OH225440   1.359   6.573  14.683 -0.1504  0.0507 -0.2010
 1342TIP3    H125441   1.269   6.542  14.686 -0.0863 -0.0267  1.0597
 1342TIP3    H225442   1.352   6.665  14.656 -0.6277  0.1427  0.2341
 1343TIP3   OH225443   3.496   4.077  13.501  0.1026  0.0583  0.0947
 1343TIP3    H125444   3.534   3.989  13.505  0.1944  0.1152  0.5850
 1343TIP3    H225445   3.515   4.108  13.413 -0.7812 -0.7905 -0.3918
 1344TIP3   OH225446   6.612   5.317   4.818 -0.1089  0.2108  0.2767
 1344TIP3    H125447   6.608   5.387   4.753  0.1191  0.7971  0.8895
 1344TIP3    H225448   6.706   5.300   4.829 -0.1478  0.1415  0.4980
 1345TIP3   OH225449   2.893   6.509   3.378  0.0963 -0.1596 -0.9024
 1345TIP3    H125450   2.824   6.485   3.440 -0.8915 -2.0542 -2.6681
 1345TIP3    H225451   2.975   6.489   3.425 -0.5213  1.3992  0.9181
 1346TIP3   OH225452   4.623   1.773   5.910  0.4401  0.1163  0.2429
 1346TIP3    H125453   4.580   1.848   5.950  2.0215  1.1712  0.0145
 1346TIP3    H225454   4.674   1.733   5.981 -0.9581 -1.1893  0.5400
 1347TIP3   OH225455   6.508   4.133   4.372  0.3044 -0.1572  0.6260
 1347TIP3    H125456   6.501   4.038   4.366 -0.3028 -0.1424  1.0344
 1347TIP3    H225457   6.442   4.158   4.436  0.2742  0.5678  0.3220
 1348TIP3   OH225458   1.214   3.841   3.290 -0.0527 -0.1441  0.6703
 1348TIP3    H125459   1.238   3.789   3.367  1.4912  0.7370  0.8085
 1348TIP3    H225460   1.233   3.784   3.216 -0.6274 -0.6451  0.9074
 1349TIP3   OH225461   0.567   6.224   3.866  0.2499 -0.2600  0.3200
 1349TIP3    H125462   0.507   6.197   3.936 -0.0709 -1.3306 -0.3511
 1349TIP3    H225463   0.654   6.201   3.899  0.1394 -0.3383  0.5599
 1350TIP3   OH225464   3.966   3.233   4.908 -0.6111  0.2984  0.2691
 1350TIP3    H125465   3.987   3.286   4.831  1.2584 -1.0823 -0.1736
 1350TIP3    H225466   3.931   3.152   4.873 -1.9124  0.5496  0.9332
 1351TIP3   OH225467   4.967   5.108   5.041  0.5095 -0.1918  0.5345
 1351TIP3    H125468   5.040   5.102   4.978 -1.8625 -1.4381 -2.2474
 1351TIP3    H225469   4.997   5.057   5.116  2.3794 -0.9995 -0.6946
 1352TIP3   OH225470   5.825   2.364   3.647  0.0505  0.2019  0.1907
 1352TIP3    H125471   5.802   2.409   3.565  2.6373  1.8227  0.2707
 1352TIP3    H225472   5.797   2.424   3.716 -0.9777 -0.5905  0.4730
 1353TIP3   OH225473   5.860   4.765  13.542 -0.4735 -0.7825  0.6367
 1353TIP3    H125474   5.870   4.672  13.563 -0.2188 -0.9704 -0.3003
 1353TIP3    H225475   5.770   4.785  13.566 -0.8362 -1.5202 -0.0794
 1354TIP3   OH225476   6.734   0.867  14.289  0.0946 -0.3656  0.1833
 1354TIP3    H125477   6.798   0.938  14.299 -2.3551  1.5678  3.4207
 1354TIP3    H225478   6.658   0.910  14.249 -0.7994 -1.5722  0.5774
 1355TIP3   OH225479   1.310   5.230  13.509 -0.1002 -0.0398  0.0521
 1355TIP3    H125480   1.278   5.246  13.420  0.1125  0.4745  0.0630
 1355TIP3    H225481   1.339   5.139  13.508  0.2504  0.0731 -0.5221
 1356TIP3   OH225482   5.087   6.366   4.234 -1.1677  0.1488  0.3649
 1356TIP3    H125483   5.033   6.370   4.155 -2.4887  2.4018  1.3212
 1356TIP3    H225484   5.175   6.390   4.205 -1.9355  2.4096 -0.2265
 1357TIP3   OH225485   2.256   1.903   4.872 -0.1387 -0.7987  0.4487
 1357TIP3    H125486   2.271   1.809   4.880 -1.4535 -1.2557 -1.7874
 1357TIP3    H225487   2.338   1.937   4.837  0.3171 -1.1250  1.1970
 1358TIP3   OH225488   6.460   4.212   5.907 -0.2589  0.2050  0.1194
 1358TIP3    H125489   6.442   4.125   5.944  1.6516 -1.0197 -1.6854
 1358TIP3    H225490   6.497   4.193   5.821 -1.3109  2.8872 -0.9622
 1359TIP3   OH225491   3.491   5.433   0.750 -0.2590  0.3005  0.1501
 1359TIP3    H125492   3.512   5.364   0.813 -0.1506  1.0388  0.9325
 1359TIP3    H225493   3.416   5.478   0.788 -1.1989 -0.2539 -1.0347
 1360TIP3   OH225494   0.479   1.640   4.910 -0.3845 -0.8344 -0.0536
 1360TIP3    H125495   0.441   1.634   4.997 -0.8992  1.8120 -0.0467
 1360TIP3    H225496   0.407   1.672   4.855  0.9467  1.1602 -0.6810
 1361TIP3   OH225497   3.727   0.054   1.791  0.0550  0.0366 -0.5183
 1361TIP3    H125498   3.761   0.014   1.710 -1.6235 -1.2094 -0.6133
 1361TIP3    H225499   3.805   0.065   1.846  0.9723 -0.6324 -1.6526
 1362TIP3   OH225500   4.197   5.533  17.137 -0.7095 -0.1354  0.4058
 1362TIP3    H125501   4.231   5.607  17.186  3.4524 -0.3235 -1.9477
 1362TIP3    H225502   4.216   5.457  17.192 -1.7228  0.1895  1.2189
 1363TIP3   OH225503   5.072   5.675  16.291 -0.0066  0.6327  0.2155
 1363TIP3    H125504   5.104   5.598  16.338 -0.3331  1.9228  2.5938
 1363TIP3    H225505   5.136   5.744  16.311  0.4576  0.9471 -2.1338
 1364TIP3   OH225506   0.595   2.558   5.457  0.1647  0.1641  0.0705
 1364TIP3    H125507   0.577   2.533   5.367  2.1336  0.6454 -0.4741
 1364TIP3    H225508   0.521   2.614   5.482 -0.6102 -0.3348 -1.0683
 1365TIP3   OH225509   1.797   2.814   4.460  0.0550  0.3557  0.6046
 1365TIP3    H125510   1.709   2.821   4.497  0.5237  0.1416  1.7766
 1365TIP3    H225511   1.808   2.721   4.441  0.5710  0.1667  1.8154
 1366TIP3   OH225512   0.411   4.618  10.962 -0.3140 -0.6271 -0.3902
 1366TIP3    H125513   0.438   4.647  10.875  0.2088  0.2600  0.0634
 1366TIP3    H225514   0.491   4.622  11.014 -1.2471  1.7487  0.8983
 1367TIP3   OH225515   3.069   3.577   2.301  0.5435 -0.0606  0.0312
 1367TIP3    H125516   3.117   3.617   2.374 -0.5327 -0.8148  1.1770
 1367TIP3    H225517   3.095   3.485   2.303 -1.9673 -0.7904  1.5558
 1368TIP3   OH225518   4.271   1.563   2.065 -0.1225  0.7742 -0.2893
 1368TIP3    H125519   4.358   1.543   2.031  0.0357 -0.3548  0.7705
 1368TIP3    H225520   4.232   1.621   1.999  0.5326 -0.6456 -1.9316
 1369TIP3   OH225521   4.177   3.848  14.091  0.2763  0.1108 -0.2325
 1369TIP3    H125522   4.256   3.885  14.131 -0.4064  0.4684  0.8108
 1369TIP3    H225523   4.176   3.757  14.120 -1.1063  0.7863  2.0320
 1370TIP3   OH225524   5.863   2.123  15.767 -0.1275 -0.2183 -0.4005
 1370TIP3    H125525   5.869   2.036  15.806  1.7776 -0.5075 -1.2335
 1370TIP3    H225526   5.794   2.115  15.701  0.2627 -1.2010 -0.7079
 1371TIP3   OH225527   6.276   1.194   0.901  0.3242  0.3031 -0.0867
 1371TIP3    H125528   6.303   1.175   0.811  1.5334 -1.1818  0.5662
 1371TIP3    H225529   6.185   1.165   0.906  0.0008  1.1494 -1.0540
 1372TIP3   OH225530   4.343   3.743   0.494 -0.6370  0.4987  0.8881
 1372TIP3    H125531   4.365   3.776   0.407 -1.7462  0.7050  0.6788
 1372TIP3    H225532   4.304   3.819   0.539  0.2609  0.4987  1.6937
 1373TIP3   OH225533   6.727   0.131  14.248 -0.6599  0.1345  0.3988
 1373TIP3    H125534   6.701   0.081  14.171 -0.6937 -1.1484  1.2424
 1373TIP3    H225535   6.659   0.198  14.257  0.3516  1.5411 -1.8070
 1374TIP3   OH225536   4.542   6.655   3.874  0.4175 -0.8044 -0.3492
 1374TIP3    H125537   4.504   6.593   3.812  0.4342 -0.9402 -0.2233
 1374TIP3    H225538   4.486   6.733   3.868  1.7924  0.0780 -2.2786
 1375TIP3   OH225539   3.708   4.983  11.071 -0.2132  0.5074  0.3339
 1375TIP3    H125540   3.759   4.973  11.151  0.9806 -0.3263 -0.5134
 1375TIP3    H225541   3.764   5.033  11.012 -0.4661 -0.1645 -0.5050
 1376TIP3   OH225542   5.623   3.748  10.969  0.0948 -0.9054  0.0429
 1376TIP3    H125543   5.626   3.669  10.915  0.9120 -0.7346 -0.1632
 1376TIP3    H225544   5.609   3.819  10.906  0.8239 -0.7293  0.0803
 1377TIP3   OH225545   2.762   5.174   4.346  0.6911  0.2663  0.1061
 1377TIP3    H125546   2.784   5.259   4.307  0.5896  0.2748  0.0679
 1377TIP3    H225547   2.667   5.167   4.336  0.2905  1.3866  2.5381
 1378TIP3   OH225548   5.812   1.292  12.055 -0.3839 -0.4339 -0.3235
 1378TIP3    H125549   5.782   1.295  11.964 -1.3857 -0.0408  0.0180
 1378TIP3    H225550   5.817   1.383  12.082  0.8150 -0.5010 -0.2622
 1379TIP3   OH225551   2.006   6.206  16.248  0.4946  0.4527 -0.3667
 1379TIP3    H125552   1.998   6.259  16.327 -0.1467  1.4042 -1.0569
 1379TIP3    H225553   2.008   6.116  16.280 -0.8296  0.7610  0.6771
 1380TIP3   OH225554   1.017   0.870   5.003  0.3168  0.1228  0.0930
 1380TIP3    H125555   1.089   0.829   4.955  0.2660 -0.8953  0.8666
 1380TIP3    H225556   1.046   0.959   5.019  1.0213 -0.0164 -0.4001
 1381TIP3   OH225557   0.065   2.130  14.481 -0.0917  0.1478 -0.1434
 1381TIP3    H125558   0.121   2.179  14.421 -0.0371  0.9687  0.5683
 1381TIP3    H225559  -0.022   2.135  14.443  0.0582  0.0851 -0.5019
 1382TIP3   OH225560   5.964   6.774  15.717 -0.5163 -0.2641  0.6728
 1382TIP3    H125561   5.889   6.832  15.710 -0.5665 -0.4882 -0.8626
 1382TIP3    H225562   6.031   6.814  15.661  0.1878 -0.5616  1.2839
 1383TIP3   OH225563   2.617   2.628  15.473  0.3868  0.6309  0.7517
 1383TIP3    H125564   2.698   2.674  15.449 -0.4891  0.8303 -1.9464
 1383TIP3    H225565   2.643   2.537  15.482  1.0595  0.8056  0.6321
 1384TIP3   OH225566   0.265   5.771  12.079 -0.2380 -0.3058  0.3798
 1384TIP3    H125567   0.223   5.700  12.029 -1.0709  0.8815 -0.6301
 1384TIP3    H225568   0.359   5.754  12.069 -0.4053 -0.5466 -0.9497
 1385TIP3   OH225569   2.544   6.442  15.518  0.0315 -0.2061  0.1244
 1385TIP3    H125570   2.471   6.447  15.580  0.4234 -0.2940  0.5937
 1385TIP3    H225571   2.531   6.357  15.474  0.4540 -0.7175  0.9710
 1386TIP3   OH225572   3.039   5.974  15.476  1.0537  0.6599 -0.3044
 1386TIP3    H125573   3.083   5.917  15.414  2.5001  3.3483 -1.8372
 1386TIP3    H225574   2.984   6.030  15.422 -2.5982 -1.1246  1.4052
 1387TIP3   OH225575   3.764   2.538  15.773  0.2302 -0.4559 -0.0814
 1387TIP3    H125576   3.854   2.558  15.748 -0.5293  0.8123 -1.8309
 1387TIP3    H225577   3.753   2.579  15.859  1.0296  0.1695 -0.2778
 1388TIP3   OH225578   0.476   5.592   4.953  0.4663  0.1698 -0.2250
 1388TIP3    H125579   0.542   5.543   4.903  0.5683 -1.3875  1.3641
 1388TIP3    H225580   0.523   5.622   5.031 -0.4187  0.0432  0.3617
 1389TIP3   OH225581   3.861   1.846  12.859 -0.4885 -0.1420  0.3221
 1389TIP3    H125582   3.827   1.927  12.899  0.6666 -1.1969  3.6137
 1389TIP3    H225583   3.807   1.777  12.895  1.0290 -1.2023  0.6161
 1390TIP3   OH225584   1.872   4.224   0.460  0.2920  0.2878 -0.2625
 1390TIP3    H125585   1.932   4.234   0.533 -1.0941  1.0533  0.8083
 1390TIP3    H225586   1.839   4.313   0.444  0.8695  0.2025 -2.0836
 1391TIP3   OH225587   0.889   4.929  15.649 -0.1928  0.0782 -0.1081
 1391TIP3    H125588   0.947   4.853  15.644 -0.7355 -0.2514 -1.8508
 1391TIP3    H225589   0.801   4.893  15.634 -0.4830  1.0057 -0.6885
 1392TIP3   OH225590   4.101   2.814  16.195 -0.6482 -0.1907  0.8329
 1392TIP3    H125591   4.148   2.840  16.115  1.4350  0.2819  2.1562
 1392TIP3    H225592   4.171   2.801  16.259 -2.4194  1.1671  3.0676
 1393TIP3   OH225593   2.499   6.521   5.807  0.7186 -0.3463 -0.3825
 1393TIP3    H125594   2.584   6.482   5.786  1.0128 -1.3542  2.4414
 1393TIP3    H225595   2.445   6.447   5.834 -1.0753  0.2906 -2.1650
 1394TIP3   OH225596   4.782   4.711  10.792  0.2952 -0.1162 -0.5263
 1394TIP3    H125597   4.715   4.780  10.794  0.2936 -0.1323  0.3247
 1394TIP3    H225598   4.738   4.635  10.832  0.8147 -0.1240  0.0394
 1395TIP3   OH225599   3.602   6.495   3.585  0.0574 -0.4897 -0.6945
 1395TIP3    H125600   3.572   6.584   3.598  0.6343 -0.4283  0.3188
 1395TIP3    H225601   3.655   6.499   3.505 -1.3577 -0.3045 -1.6494
 1396TIP3   OH225602   2.596   0.119   4.399 -0.1921 -0.0615 -0.1337
 1396TIP3    H125603   2.615   0.057   4.470  0.1358  1.9408  1.5982
 1396TIP3    H225604   2.682   0.146   4.367 -0.3425 -0.9313 -1.2645
 1397TIP3   OH225605   4.144   5.338  15.891  0.9033  0.3501 -0.2072
 1397TIP3    H125606   4.182   5.426  15.895  1.7727  0.0960 -2.2376
 1397TIP3    H225607   4.219   5.280  15.879  0.0430 -0.2804 -2.8993
 1398TIP3   OH225608   4.451   5.324  14.346  0.5788  0.8551  0.4629
 1398TIP3    H125609   4.482   5.333  14.256 -2.4686  2.3317 -0.4973
 1398TIP3    H225610   4.417   5.411  14.369  0.7888  0.3516  2.8568
 1399TIP3   OH225611   3.507   3.892  15.645 -0.2941  0.3605 -0.3666
 1399TIP3    H125612   3.543   3.921  15.729  1.4117 -0.5521 -0.7763
 1399TIP3    H225613   3.514   3.797  15.647  0.8624  0.3912 -2.0095
 1400TIP3   OH225614   2.497   3.147   1.235 -0.3790 -0.1716 -0.0700
 1400TIP3    H125615   2.467   3.171   1.148  1.0016 -0.4395 -0.6357
 1400TIP3    H225616   2.584   3.186   1.242 -0.1513 -0.8204  0.8812
 1401TIP3   OH225617   3.072   5.486  10.545  0.4670  0.5422 -0.4772
 1401TIP3    H125618   2.993   5.539  10.535 -0.4244 -0.7391 -0.2829
 1401TIP3    H225619   3.101   5.503  10.635  2.0937  3.2600 -1.4202
 1402TIP3   OH225620   0.243   2.414   5.598 -0.3027  0.0571  0.1861
 1402TIP3    H125621   0.265   2.352   5.667  0.7451 -0.0382 -0.2267
 1402TIP3    H225622   0.226   2.496   5.645  0.4566  0.0062  0.5564
 1403TIP3   OH225623   4.961   2.329  13.816 -0.2119  0.6597  0.0363
 1403TIP3    H125624   4.905   2.381  13.874  0.8090  2.8451 -0.9004
 1403TIP3    H225625   5.001   2.393  13.757 -0.4806 -1.4348 -2.4643
 1404TIP3   OH225626   1.308   1.857   5.665 -0.0863  0.6172  0.6053
 1404TIP3    H125627   1.248   1.787   5.641  1.3242 -0.2799 -0.4049
 1404TIP3    H225628   1.333   1.836   5.755 -0.9293  0.7499  0.8753
 1405TIP3   OH225629   0.079   3.439  15.596 -0.7495  0.0158 -0.0704
 1405TIP3    H125630   0.015   3.403  15.534  0.9424 -1.6358 -0.9107
 1405TIP3    H225631   0.118   3.513  15.550 -2.0605  1.0551  0.4595
 1406TIP3   OH225632   3.873   3.152   1.544 -0.5144  0.2688  0.6538
 1406TIP3    H125633   3.821   3.231   1.561 -0.2188  0.2818  1.5266
 1406TIP3    H225634   3.933   3.177   1.475 -2.2130  0.0188 -0.9439
 1407TIP3   OH225635   4.007   4.158   4.650 -0.1043  0.3985  0.1980
 1407TIP3    H125636   3.945   4.207   4.703  1.9758  2.0621  1.1554
 1407TIP3    H225637   4.048   4.097   4.711  0.3950  0.4605 -0.0745
 1408TIP3   OH225638   3.407   6.291   5.599  0.7818 -0.8029 -0.0508
 1408TIP3    H125639   3.367   6.378   5.600  0.8217 -0.7882  0.2970
 1408TIP3    H225640   3.500   6.307   5.615  0.5004 -1.0597  1.9026
 1409TIP3   OH225641   6.452   6.232   3.708 -0.8913 -0.4047 -0.3721
 1409TIP3    H125642   6.429   6.177   3.783 -2.6978 -1.1126 -1.4093
 1409TIP3    H225643   6.488   6.170   3.644 -1.6393 -0.1679 -1.0222
 1410TIP3   OH225644   4.986   2.318  15.881  0.1192 -0.3355 -0.1743
 1410TIP3    H125645   5.000   2.224  15.894 -2.7059 -0.8300 -0.2365
 1410TIP3    H225646   5.011   2.333  15.790  1.4650 -0.8283  0.1022
 1411TIP3   OH225647   3.200   1.657  14.043  0.3584  0.4630  0.2502
 1411TIP3    H125648   3.144   1.730  14.015  0.1416  0.1031 -0.2630
 1411TIP3    H225649   3.194   1.658  14.138 -0.0149  0.8324  0.2274
 1412TIP3   OH225650   4.049   1.901   4.346  0.0468 -0.1512 -0.0359
 1412TIP3    H125651   4.110   1.827   4.357  0.9496  0.7225  0.9263
 1412TIP3    H225652   3.964   1.859   4.334  0.2076 -1.3727  2.5328
 1413TIP3   OH225653   3.274   0.567   1.736  0.6726 -0.1098  0.1420
 1413TIP3    H125654   3.280   0.572   1.831  2.7515 -1.7747  0.1041
 1413TIP3    H225655   3.301   0.478   1.714 -0.4540  0.0374 -1.9670
 1414TIP3   OH225656   4.638   2.450  12.110 -0.8092  0.2622 -0.1598
 1414TIP3    H125657   4.594   2.499  12.180 -1.3690  0.3190 -0.5481
 1414TIP3    H225658   4.635   2.508  12.035 -1.7136 -0.4710 -0.6996
 1415TIP3   OH225659   3.642   1.621  15.101  0.1962  0.8911  0.0648
 1415TIP3    H125660   3.628   1.579  15.186 -0.0981  1.9142  0.5347
 1415TIP3    H225661   3.568   1.681  15.092 -0.3498  0.0356 -1.3963
 1416TIP3   OH225662   0.028   1.710   3.417  0.2761  0.0409 -0.4500
 1416TIP3    H125663  -0.012   1.780   3.469 -1.2994 -0.9008 -0.3596
 1416TIP3    H225664   0.110   1.690   3.463  0.3974  1.3280 -0.0800
 1417TIP3   OH225665   3.120   1.754   5.574 -0.0863 -0.1166  0.9031
 1417TIP3    H125666   3.024   1.749   5.578 -0.0438 -0.1907  1.7367
 1417TIP3    H225667   3.137   1.805   5.494 -0.8756  1.6533  1.8474
 1418TIP3   OH225668   5.850   3.384  10.721 -0.6525  0.3254  0.1366
 1418TIP3    H125669   5.925   3.412  10.669 -0.2750 -2.0016 -0.5921
 1418TIP3    H225670   5.874   3.299  10.756 -1.7288  0.9248  2.4706
 1419TIP3   OH225671   5.497   3.973  10.669  0.2614 -0.0619 -0.1231
 1419TIP3    H125672   5.419   3.918  10.679  0.3485 -0.0243  0.7557
 1419TIP3    H225673   5.464   4.062  10.674  0.0610 -0.0063 -1.9711
 1420TIP3   OH225674   0.117   4.096  13.012 -0.3295  0.3137  0.6574
 1420TIP3    H125675   0.212   4.096  13.019 -0.1458  2.6432 -1.3987
 1420TIP3    H225676   0.097   4.031  12.944 -0.1942  0.1333  0.7906
 1421TIP3   OH225677   3.657   4.154   5.969 -0.1773  0.1095  0.0381
 1421TIP3    H125678   3.605   4.077   5.993 -0.4873  0.0989 -0.6474
 1421TIP3    H225679   3.614   4.188   5.890  0.1564  0.7942  0.1494
 1422TIP3   OH225680   5.734   5.046  12.683  0.2492  0.1456 -0.1171
 1422TIP3    H125681   5.758   5.091  12.602 -0.4624  0.7577  0.0089
 1422TIP3    H225682   5.745   4.953  12.662  1.8399  0.3746 -0.3376
 1423TIP3   OH225683   6.115   2.972  14.597 -0.0648  0.3195  0.1081
 1423TIP3    H125684   6.020   2.978  14.591 -0.0567  1.1294  0.6155
 1423TIP3    H225685   6.137   3.020  14.678  0.6374 -1.2058  0.8517
 1424TIP3   OH225686   2.609   1.253   3.878  0.0685 -0.2060  0.7533
 1424TIP3    H125687   2.548   1.183   3.901 -0.0383 -0.2878  0.2328
 1424TIP3    H225688   2.606   1.257   3.782  1.1973 -0.4872  0.7023
 1425TIP3   OH225689   0.955   0.249   4.914 -0.2318 -0.3027 -0.3516
 1425TIP3    H125690   0.954   0.324   4.855 -0.1639 -0.9013 -1.1241
 1425TIP3    H225691   1.030   0.196   4.885 -0.3974 -0.7707  0.0527
 1426TIP3   OH225692   6.450   2.605  15.008  0.5830 -0.3832 -0.4115
 1426TIP3    H125693   6.471   2.617  14.915 -0.4750  0.9499 -0.4970
 1426TIP3    H225694   6.380   2.540  15.008 -0.8858  1.1741 -0.7135
 1427TIP3   OH225695   4.375   3.132   4.966 -0.1197 -0.0519 -0.3212
 1427TIP3    H125696   4.367   3.060   4.903 -2.0388 -1.2489  1.2471
 1427TIP3    H225697   4.414   3.092   5.043 -0.1830  0.8475  0.1814
 1428TIP3   OH225698   0.798   4.981  15.345 -0.0721 -0.3309 -0.6264
 1428TIP3    H125699   0.794   5.060  15.400 -2.2618 -0.6006 -0.3352
 1428TIP3    H225700   0.808   5.014  15.256 -2.4265  0.3880 -0.6710
 1429TIP3   OH225701   2.296   0.015   5.086  0.7377  0.1471  0.3171
 1429TIP3    H125702   2.291   0.108   5.106  2.7654  0.4155 -0.3770
 1429TIP3    H225703   2.314   0.011   4.993 -1.7528 -1.0072 -0.1686
 1430TIP3   OH225704   3.907   6.451  13.246 -0.1684  0.0227 -0.7902
 1430TIP3    H125705   3.928   6.400  13.167  2.2042  0.3052 -0.3925
 1430TIP3    H225706   3.957   6.532  13.234 -0.5041  0.4270  0.5907
 1431TIP3   OH225707   5.995   0.250   1.180 -0.1611 -0.5103 -0.1630
 1431TIP3    H125708   6.062   0.184   1.197  0.1102 -0.2565 -0.2492
 1431TIP3    H225709   6.043   0.332   1.175 -0.2408 -0.5853 -2.2204
 1432TIP3   OH225710   4.940   2.931  10.421 -0.2624 -0.6486  0.4150
 1432TIP3    H125711   4.966   3.023  10.422 -1.0772 -0.3284 -2.7039
 1432TIP3    H225712   4.999   2.889  10.358 -0.2744 -2.1754  1.3735
 1433TIP3   OH225713   5.221   3.070   3.617 -0.5999  0.6624 -0.0985
 1433TIP3    H125714   5.211   2.984   3.659  0.3219  1.5409  1.9894
 1433TIP3    H225715   5.175   3.062   3.534 -0.4268 -1.8988  0.0208
 1434TIP3   OH225716   1.729   3.022  13.737  0.5158 -0.2403  0.2821
 1434TIP3    H125717   1.724   2.950  13.800  1.5563  1.1335  1.9653
 1434TIP3    H225718   1.673   3.090  13.773 -0.2730 -0.0955 -1.1858
 1435TIP3   OH225719   4.575   1.967  15.107 -0.1691  0.1114 -0.7378
 1435TIP3    H125720   4.629   1.988  15.184  0.5622  0.1214 -1.2426
 1435TIP3    H225721   4.487   1.955  15.142  0.1537  0.1268  0.1006
 1436TIP3   OH225722   6.574   3.898  13.827  0.5979  0.3258  0.2856
 1436TIP3    H125723   6.639   3.955  13.867 -0.1105  0.8748  0.6595
 1436TIP3    H225724   6.506   3.957  13.795  1.0001 -0.1164 -1.4696
 1437TIP3   OH225725   1.439   3.162  13.334  0.6838 -0.0757  0.2922
 1437TIP3    H125726   1.412   3.083  13.381 -0.6965 -1.4376 -2.6910
 1437TIP3    H225727   1.385   3.232  13.372 -0.7312 -1.2243  0.4484
 1438TIP3   OH225728   4.674   5.517   2.777  0.1876  0.4598 -0.1095
 1438TIP3    H125729   4.579   5.510   2.788 -0.0446  2.3587 -0.8137
 1438TIP3    H225730   4.686   5.520   2.682  1.0903 -1.2745 -0.0799
 1439TIP3   OH225731   3.724   0.596  16.188  0.1406  0.0336  0.3851
 1439TIP3    H125732   3.706   0.620  16.279 -0.7940  0.6703  0.0422
 1439TIP3    H225733   3.686   0.509  16.178  0.9447 -0.3807  0.8112
 1440TIP3   OH225734   3.966   4.209   5.218  0.1993  0.5599  0.1769
 1440TIP3    H125735   3.917   4.256   5.286  0.5074  0.8677  0.1912
 1440TIP3    H225736   3.980   4.122   5.254 -0.7584  0.3202 -0.0339
 1441TIP3   OH225737   3.845   0.779  14.602 -0.2084  0.5203  0.0771
 1441TIP3    H125738   3.815   0.849  14.660 -1.5132 -1.2873  1.6728
 1441TIP3    H225739   3.870   0.709  14.662  0.5995 -0.5690 -1.5062
 1442TIP3   OH225740   6.544   0.541   1.426 -0.0982 -0.0879 -0.4369
 1442TIP3    H125741   6.623   0.591   1.403 -0.9984  0.8672 -1.5301
 1442TIP3    H225742   6.577   0.456   1.455  1.4339  0.9909  1.0309
 1443TIP3   OH225743   5.277   6.757   4.029 -0.0202 -0.4019  0.2828
 1443TIP3    H125744   5.320   6.719   4.105 -0.4217  0.4451  0.9428
 1443TIP3    H225745   5.339   6.744   3.957  0.0257 -1.9213  0.5684
 1444TIP3   OH225746   4.901   6.183   2.828  0.0748 -0.0521 -0.2673
 1444TIP3    H125747   4.847   6.204   2.752 -1.5850 -2.7823  0.0644
 1444TIP3    H225748   4.838   6.160   2.896  1.6087 -0.8654  0.9072
 1445TIP3   OH225749   1.258   4.762   2.924  0.4986 -0.0306 -0.1018
 1445TIP3    H125750   1.214   4.755   2.839 -0.1723 -0.7943  0.2983
 1445TIP3    H225751   1.206   4.706   2.982  0.3361  1.3306  1.0661
 1446TIP3   OH225752   6.553   0.364  14.225  0.0081  0.0178 -0.5651
 1446TIP3    H125753   6.485   0.403  14.170 -0.4565  0.0490  0.0251
 1446TIP3    H225754   6.593   0.439  14.270 -0.0923 -0.0729 -0.3239
 1447TIP3   OH225755   0.020   0.770  16.567  0.3446 -0.2622  0.0677
 1447TIP3    H125756   0.088   0.709  16.595  0.3257 -0.8356 -1.1088
 1447TIP3    H225757  -0.062   0.721  16.577 -0.0327  0.7785  2.4963
 1448TIP3   OH225758   1.931   0.878  16.849 -1.1532  0.2885  0.2962
 1448TIP3    H125759   1.946   0.786  16.830 -1.6861  0.2614  0.0075
 1448TIP3    H225760   2.017   0.911  16.876 -1.3011 -0.6725  2.0368
 1449TIP3   OH225761   0.155   3.147  10.606 -0.5696 -0.0200  0.3039
 1449TIP3    H125762   0.069   3.156  10.564 -0.2851  0.5437 -0.1675
 1449TIP3    H225763   0.201   3.227  10.582 -1.1393  1.3197  3.4732
 1450TIP3   OH225764   2.888   4.251  16.553  0.5219  1.0753 -0.1936
 1450TIP3    H125765   2.859   4.330  16.598  1.5961  0.8746  0.8840
 1450TIP3    H225766   2.981   4.243  16.574  0.3779 -0.6060 -0.0620
 1451TIP3   OH225767   5.083   4.523  10.462  0.3664 -0.5632 -0.8293
 1451TIP3    H125768   5.113   4.432  10.458  0.5063 -0.5961  0.6959
 1451TIP3    H225769   4.998   4.523  10.419  0.6826 -1.2785 -1.4619
 1452TIP3   OH225770   5.160   6.162  15.073 -0.5175 -0.3256  0.1237
 1452TIP3    H125771   5.093   6.119  15.019  0.4601 -0.9472 -0.6128
 1452TIP3    H225772   5.239   6.160  15.019  0.2367 -0.1028  1.2043
 1453TIP3   OH225773   3.554   2.873   5.486  0.1302  0.2524  0.4004
 1453TIP3    H125774   3.574   2.898   5.576 -1.0362  0.5785  0.5770
 1453TIP3    H225775   3.459   2.878   5.480  0.1687 -0.1583 -0.7396
 1454TIP3   OH225776   1.841   1.516   2.764 -0.9169  0.0573  0.4943
 1454TIP3    H125777   1.906   1.574   2.805 -2.4667  1.6519  0.7293
 1454TIP3    H225778   1.854   1.529   2.670  0.3769 -1.0617  0.5126
 1455TIP3   OH225779   5.574   2.595  13.552 -0.4710  0.0311  0.1023
 1455TIP3    H125780   5.485   2.603  13.519 -0.3039 -0.2517 -0.4309
 1455TIP3    H225781   5.627   2.580  13.474  0.0881  0.5327  0.3779
 1456TIP3   OH225782   3.492   0.018  15.831  0.0630  0.6514 -0.5128
 1456TIP3    H125783   3.456  -0.038  15.762  1.3507  0.2672 -0.9025
 1456TIP3    H225784   3.416   0.059  15.871 -0.8077 -0.2722 -1.1804
 1457TIP3   OH225785   1.799   4.867   4.832 -0.0071 -0.1768 -0.3301
 1457TIP3    H125786   1.706   4.854   4.813 -0.3656  2.3429 -0.4780
 1457TIP3    H225787   1.804   4.957   4.863  2.0093 -1.1641  2.3326
 1458TIP3   OH225788   2.019   4.249   0.670  0.4554 -0.2727 -0.1528
 1458TIP3    H125789   2.018   4.180   0.736 -1.7141 -0.7462 -0.6449
 1458TIP3    H225790   1.962   4.317   0.707 -0.2442 -0.2650 -1.2328
 1459TIP3   OH225791   4.543   5.494  16.798  0.5081  0.1742  1.1774
 1459TIP3    H125792   4.621   5.539  16.769 -0.9192  1.5700 -0.5826
 1459TIP3    H225793   4.537   5.514  16.892  1.1648  1.6781  0.8987
 1460TIP3   OH225794   4.360   6.583  16.142 -0.4091 -0.2976  0.3769
 1460TIP3    H125795   4.442   6.589  16.190 -1.1872  1.9155  1.4719
 1460TIP3    H225796   4.383   6.534  16.063  1.5977 -1.1154  1.4202
 1461TIP3   OH225797   5.742   5.013  11.364 -0.4857 -0.2178 -0.4532
 1461TIP3    H125798   5.802   5.009  11.289 -0.0199  0.6056 -0.1355
 1461TIP3    H225799   5.772   5.089  11.414 -1.6460  0.0514 -0.1589
 1462TIP3   OH225800   0.945   4.859   3.961 -0.2528 -0.3782  0.3139
 1462TIP3    H125801   0.956   4.882   4.053 -1.8005 -0.1713  0.4618
 1462TIP3    H225802   1.029   4.824   3.934  0.3214 -0.0780  1.7098
 1463TIP3   OH225803   2.025   5.273  17.129 -1.0327  0.4535  0.0390
 1463TIP3    H125804   2.093   5.268  17.196  0.2994  0.0681 -1.3198
 1463TIP3    H225805   1.969   5.345  17.158  0.5297  1.4553  0.6674
 1464TIP3   OH225806   4.259   2.135  13.821  0.1187 -0.1666  0.2027
 1464TIP3    H125807   4.214   2.053  13.803  0.9703 -0.7015  0.4788
 1464TIP3    H225808   4.339   2.132  13.768  0.5613  0.1110  0.8359
 1465TIP3   OH225809   5.270   0.579   3.951  0.3775 -0.1871 -0.8262
 1465TIP3    H125810   5.363   0.576   3.975  0.0900 -0.9475  0.2516
 1465TIP3    H225811   5.245   0.487   3.942 -0.7839 -0.0769  0.9979
 1466TIP3   OH225812   3.272   6.325  12.613  0.2581  0.1939 -0.0391
 1466TIP3    H125813   3.192   6.299  12.568 -0.0361  0.3341  0.4075
 1466TIP3    H225814   3.245   6.344  12.703  0.4641  2.1070 -0.3664
 1467TIP3   OH225815   6.741   0.204   4.071 -0.3000  0.4379 -0.1451
 1467TIP3    H125816   6.672   0.270   4.063 -0.8455 -0.1334 -0.1808
 1467TIP3    H225817   6.818   0.253   4.100 -0.9524  0.9375  0.7598
 1468TIP3   OH225818   4.005   0.652  16.417 -0.2543  0.0148  0.6134
 1468TIP3    H125819   3.955   0.718  16.465  1.9676  2.3248 -0.1516
 1468TIP3    H225820   4.072   0.702  16.370 -0.0958 -2.5288 -2.0284
 1469TIP3   OH225821   5.418   4.908  16.106  0.0698  0.3180 -0.3605
 1469TIP3    H125822   5.464   4.990  16.091 -0.2641  0.4621 -0.6081
 1469TIP3    H225823   5.474   4.841  16.067  0.4102  0.4155 -0.0285
 1470TIP3   OH225824   1.470   1.528   5.116  0.5651 -0.2616  0.6436
 1470TIP3    H125825   1.559   1.561   5.128  1.0746 -0.1153 -2.9260
 1470TIP3    H225826   1.444   1.497   5.203  3.3695  1.4021  2.1647
 1471TIP3   OH225827   6.185   5.268   5.761  0.4296  0.1212 -0.5179
 1471TIP3    H125828   6.097   5.269   5.723  0.5453 -1.6187 -0.8365
 1471TIP3    H225829   6.199   5.359   5.789 -2.0040  0.1502  0.7693
 1472TIP3   OH225830   2.401   5.589   0.329  0.1121 -0.0937  0.1440
 1472TIP3    H125831   2.465   5.612   0.396  0.2918 -0.5852  0.1434
 1472TIP3    H225832   2.430   5.638   0.252 -1.5752  2.4878  1.1144
 1473TIP3   OH225833   2.851   5.837  11.927 -0.1320 -0.0311 -0.1496
 1473TIP3    H125834   2.831   5.744  11.941  0.2090  0.1375  1.5007
 1473TIP3    H225835   2.867   5.844  11.833  3.1285 -2.2882  0.1729
 1474TIP3   OH225836   2.107   3.231  14.098  0.3161  0.5629  0.2729
 1474TIP3    H125837   2.110   3.206  14.006  1.7575  0.5659  0.3149
 1474TIP3    H225838   2.048   3.306  14.101  1.0318  1.1742 -0.7832
 1475TIP3   OH225839   4.692   0.348   4.148  0.2681 -0.9958 -0.6593
 1475TIP3    H125840   4.688   0.268   4.200 -0.4334 -0.4371  0.1763
 1475TIP3    H225841   4.715   0.416   4.211  1.1943 -0.5873 -1.4245
 1476TIP3   OH225842   2.827   2.036   3.421 -0.3258 -0.2344  0.2823
 1476TIP3    H125843   2.837   1.941   3.426 -0.5776 -0.4111 -1.9776
 1476TIP3    H225844   2.892   2.071   3.482  0.6514 -1.8308  0.1663
 1477TIP3   OH225845   6.577   6.704   2.233  0.3129 -0.4269 -0.0571
 1477TIP3    H125846   6.603   6.724   2.143 -0.1783 -1.3508 -0.4091
 1477TIP3    H225847   6.580   6.788   2.278 -1.1281  0.3517 -1.3598
 1478TIP3   OH225848   2.933   6.662   1.451 -0.6778  0.7228 -0.6610
 1478TIP3    H125849   2.958   6.691   1.363  1.8179  2.1183  0.4689
 1478TIP3    H225850   2.853   6.611   1.437  0.5112 -0.3615 -3.9154
 1479TIP3   OH225851   1.759   2.974   6.020  0.5075 -0.2692 -0.5936
 1479TIP3    H125852   1.813   2.896   6.023  0.5765 -0.2181 -0.5098
 1479TIP3    H225853   1.799   3.034   6.082  0.9622  0.1600 -1.2882
 1480TIP3   OH225854   0.140   6.622  11.740  0.0735  0.2954 -0.0834
 1480TIP3    H125855   0.143   6.597  11.833 -0.9845 -0.5736 -0.2721
 1480TIP3    H225856   0.202   6.695  11.733 -1.7991  2.1656  1.8741
 1481TIP3   OH225857   3.670   2.906   4.388  0.7472 -0.5789 -0.8492
 1481TIP3    H125858   3.716   2.944   4.314  1.7118 -1.9187 -0.9546
 1481TIP3    H225859   3.623   2.831   4.352  0.0848 -0.3926 -0.3750
 1482TIP3   OH225860   0.702   6.226   4.711  0.0766  0.6169  0.2485
 1482TIP3    H125861   0.723   6.205   4.620  2.1623  0.4712  0.7409
 1482TIP3    H225862   0.767   6.291   4.736 -0.7254  0.9469  1.5394
 1483TIP3   OH225863   5.499   5.711   4.883  0.1364 -0.5270 -0.2016
 1483TIP3    H125864   5.546   5.676   4.807  0.8834 -2.2154  1.0050
 1483TIP3    H225865   5.491   5.636   4.942  0.7935  1.1022  1.9838
 1484TIP3   OH225866   0.935   1.692  17.222  0.0720 -0.3737 -0.1040
 1484TIP3    H125867   0.950   1.749  17.147  0.1113 -0.3443 -0.0742
 1484TIP3    H225868   0.911   1.751  17.293 -2.1543 -0.5798 -0.6683
 1485TIP3   OH225869   4.213   5.926  13.621  0.0853 -0.4848  0.4332
 1485TIP3    H125870   4.167   5.992  13.673 -2.0251 -0.0558 -1.8831
 1485TIP3    H225871   4.301   5.961  13.609  0.1534  0.0718  2.4661
 1486TIP3   OH225872   5.865   0.665  11.965  0.6082 -0.6325 -0.3032
 1486TIP3    H125873   5.935   0.610  11.930 -0.8784 -1.2895 -2.3508
 1486TIP3    H225874   5.833   0.714  11.889 -0.7856  0.0788  0.7149
 1487TIP3   OH225875   5.676   1.711  15.715  0.0826  0.3788 -0.0755
 1487TIP3    H125876   5.733   1.653  15.765  0.6515  2.6676  2.0454
 1487TIP3    H225877   5.612   1.652  15.674  1.9302 -1.9077  0.1979
 1488TIP3   OH225878   0.309   4.661  16.130  0.2856  0.0018 -0.1986
 1488TIP3    H125879   0.381   4.723  16.127 -1.2691  1.9337  1.2123
 1488TIP3    H225880   0.235   4.707  16.089 -0.8878 -0.9195  0.8344
 1489TIP3   OH225881   1.013   2.034   2.307 -0.6895  0.1892  0.2686
 1489TIP3    H125882   0.921   2.048   2.284 -0.9768 -2.5768 -0.4274
 1489TIP3    H225883   1.017   1.945   2.340  1.9783 -0.2534 -1.0409
 1490TIP3   OH225884   3.357   2.870   0.369 -0.4607 -0.1523  0.2238
 1490TIP3    H125885   3.341   2.933   0.439 -4.2083  0.4791 -1.0995
 1490TIP3    H225886   3.382   2.923   0.294  1.0169 -0.6479  0.3410
 1491TIP3   OH225887   5.684   2.538   5.427 -0.8108 -0.4822 -0.3622
 1491TIP3    H125888   5.680   2.449   5.391 -0.9172 -1.1430  1.2351
 1491TIP3    H225889   5.593   2.560   5.446 -1.2066  1.3994 -4.0507
 1492TIP3   OH225890   2.000   3.815   0.448 -0.2522  0.0739  0.0596
 1492TIP3    H125891   1.912   3.791   0.477 -0.2699  0.8587  0.6564
 1492TIP3    H225892   2.057   3.753   0.492 -0.2249  1.6037  2.2573
 1493TIP3   OH225893   5.824   2.664   1.433  0.1715 -0.3403 -0.6662
 1493TIP3    H125894   5.751   2.620   1.389 -0.6324 -1.6597  1.8892
 1493TIP3    H225895   5.873   2.593   1.474  0.0493  0.9661  1.7742
 1494TIP3   OH225896   4.665   2.880  10.578  0.3023  0.7739  0.2813
 1494TIP3    H125897   4.615   2.947  10.530  0.2627  1.0352  0.6896
 1494TIP3    H225898   4.756   2.897  10.554  0.2225  0.4336 -0.2895
 1495TIP3   OH225899   0.376   0.359   0.509 -0.0925 -0.0434 -0.3041
 1495TIP3    H125900   0.395   0.422   0.579  1.2619 -0.1310 -0.5700
 1495TIP3    H225901   0.381   0.410   0.428 -1.5287  0.0299 -0.3579
 1496TIP3   OH225902   1.192   1.317   4.874  0.7674 -0.1598  0.2583
 1496TIP3    H125903   1.187   1.288   4.783  1.0740  0.0660  0.1730
 1496TIP3    H225904   1.269   1.373   4.878  1.6860 -1.4691  1.0236
 1497TIP3   OH225905   2.402   6.504   0.396  0.1390  0.7351  0.3740
 1497TIP3    H125906   2.319   6.481   0.437  0.2307 -1.1552 -0.4666
 1497TIP3    H225907   2.386   6.590   0.356 -1.0631  0.8821  1.1484
 1498TIP3   OH225908   1.252   3.185  12.237 -0.3769 -0.0218  0.6014
 1498TIP3    H125909   1.211   3.163  12.320 -1.7122  0.2096  0.0213
 1498TIP3    H225910   1.190   3.245  12.195  0.0765 -0.4622 -0.7291
 1499TIP3   OH225911   3.428   0.092   4.353  0.4334  0.5117  0.5513
 1499TIP3    H125912   3.339   0.080   4.385 -0.0120  1.3099 -0.3496
 1499TIP3    H225913   3.462   0.166   4.403  1.1194 -0.7200  1.9402
 1500TIP3   OH225914   3.359   0.454  16.980 -0.3699  0.4732  0.0302
 1500TIP3    H125915   3.263   0.451  16.975 -0.4152  1.3356  0.2324
 1500TIP3    H225916   3.383   0.527  16.922  0.1786  0.1234 -0.1814
 1501TIP3   OH225917   5.060   4.557   5.220 -0.1231 -0.1362 -0.2654
 1501TIP3    H125918   5.108   4.489   5.173  2.1506  0.6384  0.8860
 1501TIP3    H225919   5.040   4.622   5.153 -0.0877 -0.7474 -0.8739
 1502TIP3   OH225920   0.275   6.176  13.576 -0.7121 -0.2768  0.3255
 1502TIP3    H125921   0.255   6.151  13.667 -1.2641 -0.0598  0.2640
 1502TIP3    H225922   0.297   6.093  13.533  1.6930 -0.1312  1.1893
 1503TIP3   OH225923   2.353   6.111  15.920 -0.4016  0.0363 -0.4911
 1503TIP3    H125924   2.357   6.024  15.960  0.7951 -1.0203 -2.8259
 1503TIP3    H225925   2.415   6.107  15.847 -0.1512  2.9354 -0.4983
 1504TIP3   OH225926   6.079   4.114  14.608 -0.0028  0.0004  0.3716
 1504TIP3    H125927   6.100   4.020  14.613 -0.9900 -0.3235 -1.4533
 1504TIP3    H225928   6.164   4.157  14.621  0.6912 -1.1672 -0.1193
 1505TIP3   OH225929   2.583   1.999  16.299  0.5513  0.3220  0.0974
 1505TIP3    H125930   2.548   2.004  16.388  1.4512  1.0505  0.4188
 1505TIP3    H225931   2.673   1.969  16.310  1.0411  1.5365 -0.4599
 1506TIP3   OH225932   5.598   2.547   3.663  0.5473 -0.0972  0.3213
 1506TIP3    H125933   5.612   2.628   3.615 -1.8634  0.1676  0.0478
 1506TIP3    H225934   5.643   2.561   3.747  1.7783  0.7547 -0.4545
 1507TIP3   OH225935   4.952   6.262   1.258  0.1683  0.1913 -0.0315
 1507TIP3    H125936   4.875   6.212   1.230 -0.6079 -0.0273  2.3790
 1507TIP3    H225937   5.026   6.203   1.242 -0.4501 -0.6566  0.1929
 1508TIP3   OH225938   1.597   2.449  14.936 -0.4056  0.1837 -0.7919
 1508TIP3    H125939   1.689   2.443  14.907 -0.8633 -1.3811 -1.9626
 1508TIP3    H225940   1.550   2.482  14.859 -0.8753  0.7448 -0.2703
 1509TIP3   OH225941   4.054   2.339   2.360 -0.0924  0.2198  0.1304
 1509TIP3    H125942   4.121   2.271   2.357  0.6996  0.8329  2.5598
 1509TIP3    H225943   4.052   2.366   2.452 -3.1912  0.7017 -0.0185
 1510TIP3   OH225944   2.872   4.621   5.426  0.2247  0.7267  0.1155
 1510TIP3    H125945   2.914   4.679   5.363  1.0043  0.1583  0.1063
 1510TIP3    H225946   2.932   4.619   5.501 -0.3510  0.8340  0.5868
 1511TIP3   OH225947   5.157   2.970  13.340  0.3536  0.0094 -0.6543
 1511TIP3    H125948   5.142   2.970  13.434 -0.0309 -1.5445 -0.7063
 1511TIP3    H225949   5.107   3.045  13.308 -1.4186 -0.8333  0.0882
 1512TIP3   OH225950   5.243   4.367   2.121  0.2576 -0.0445  0.0752
 1512TIP3    H125951   5.171   4.352   2.182  0.4098 -0.2425  0.2055
 1512TIP3    H225952   5.287   4.282   2.114  0.1871 -0.0463 -0.3798
 1513TIP3   OH225953   4.761   1.686  15.526  0.0882  0.4483 -0.8516
 1513TIP3    H125954   4.747   1.698  15.433  0.3142  1.0238 -0.8155
 1513TIP3    H225955   4.771   1.775  15.561 -1.4866  0.3257 -0.0425
 1514TIP3   OH225956   1.979   0.752   2.947  0.8284 -0.1553  0.0879
 1514TIP3    H125957   1.892   0.788   2.967 -0.2478 -1.0894 -2.5835
 1514TIP3    H225958   2.017   0.815   2.885  2.4682  0.7226  1.9468
 1515TIP3   OH225959   2.709   6.049  16.363 -0.2308  0.4295  0.1540
 1515TIP3    H125960   2.691   5.958  16.339 -0.3869  0.4723  0.1104
 1515TIP3    H225961   2.634   6.075  16.417 -0.3760  0.6574 -0.1554
 1516TIP3   OH225962   3.145   1.899   6.134 -0.0774  0.0134  0.1325
 1516TIP3    H125963   3.060   1.855   6.123 -0.6584  1.2038 -0.1838
 1516TIP3    H225964   3.209   1.832   6.113 -0.9586 -0.6984 -0.3392
 1517TIP3   OH225965   3.321   5.007  12.785 -0.4317  0.2417  0.2703
 1517TIP3    H125966   3.331   5.102  12.792  0.1421  0.2432 -0.5593
 1517TIP3    H225967   3.337   4.987  12.693  2.0583 -0.9595  0.9018
 1518TIP3   OH225968   4.245   1.509  12.843 -0.1530  0.2068  0.0240
 1518TIP3    H125969   4.212   1.598  12.855  1.4690  1.1918 -2.2230
 1518TIP3    H225970   4.288   1.512  12.757 -0.6120 -2.9235 -0.3479
 1519TIP3   OH225971   5.256   5.892   3.240  0.0097  0.1993  0.0482
 1519TIP3    H125972   5.260   5.925   3.330  2.9186  0.2858 -0.0607
 1519TIP3    H225973   5.327   5.938   3.195  0.0755 -1.5676 -1.7000
 1520TIP3   OH225974   0.369   4.990   5.959  0.0315 -0.2048  0.2424
 1520TIP3    H125975   0.436   5.057   5.947  0.1848 -0.3777  0.1363
 1520TIP3    H225976   0.292   5.024   5.913  0.9128 -1.3315 -2.1021
 1521TIP3   OH225977   2.506   1.623  15.523 -0.4836 -0.5191  0.0856
 1521TIP3    H125978   2.418   1.640  15.489 -0.1643 -0.3510 -0.6695
 1521TIP3    H225979   2.525   1.533  15.498  0.4526  0.1735 -1.7548
 1522TIP3   OH225980   5.755   1.116   1.881 -0.0169 -0.5779  0.3346
 1522TIP3    H125981   5.729   1.038   1.930 -0.7658 -0.6595 -0.1875
 1522TIP3    H225982   5.762   1.086   1.790  0.0404 -0.1150  0.1861
 1523TIP3   OH225983   3.436   5.869   3.197 -0.0320 -0.4348 -0.3145
 1523TIP3    H125984   3.480   5.804   3.251 -2.0108 -3.1746 -1.8813
 1523TIP3    H225985   3.344   5.864   3.223 -0.5408  0.2754 -1.8772
 1524TIP3   OH225986   0.147   3.492   2.369 -0.7198  0.0616 -0.4475
 1524TIP3    H125987   0.147   3.588   2.371  0.1050  0.0926 -1.2874
 1524TIP3    H225988   0.223   3.470   2.316 -0.2604 -1.0891  0.6687
 1525TIP3   OH225989   3.623   3.030  15.249 -0.1198 -0.0360  0.4907
 1525TIP3    H125990   3.668   3.074  15.320  3.2633  1.1822 -2.2569
 1525TIP3    H225991   3.663   2.943  15.244  0.0383  0.0725 -0.2403
 1526TIP3   OH225992   5.533   1.976   4.119  0.0347  0.3603  0.0316
 1526TIP3    H125993   5.567   1.987   4.031 -2.4597  0.4430 -0.9760
 1526TIP3    H225994   5.479   1.897   4.114 -1.0867  1.0328  1.1748
 1527TIP3   OH225995   4.154   4.937   2.091  0.2480 -0.6672 -0.0435
 1527TIP3    H125996   4.069   4.898   2.110  0.5529 -0.7500  1.1446
 1527TIP3    H225997   4.168   4.918   1.998 -1.1149 -0.4777 -0.2953
 1528TIP3   OH225998   2.412   0.560   3.462  0.7106  0.1130 -0.3990
 1528TIP3    H125999   2.414   0.513   3.545 -2.2286 -2.0622 -1.4468
 1528TIP3    H226000   2.358   0.637   3.478  1.9673  0.8651  0.2449
 1529TIP3   OH226001   5.075   3.344   1.939  0.9025  0.2070 -0.1466
 1529TIP3    H126002   5.068   3.422   1.993  0.0794 -0.7023  1.0995
 1529TIP3    H226003   4.992   3.299   1.951  0.9829 -0.3541 -1.6421
 1530TIP3   OH226004   3.719   6.273   4.053 -0.1596 -0.0737  0.0735
 1530TIP3    H126005   3.680   6.298   3.970  0.6417  0.2697 -0.1993
 1530TIP3    H226006   3.791   6.214   4.030  0.2154  0.2078  0.5101
 1531TIP3   OH226007   5.134   2.002   4.109  0.0739 -0.1069 -0.8951
 1531TIP3    H126008   5.180   2.044   4.037  1.0784 -1.1655 -0.8924
 1531TIP3    H226009   5.187   2.023   4.187  0.5209 -1.2319 -0.8765
 1532TIP3   OH226010   2.912   3.808  15.146  0.3534  0.3217  0.2959
 1532TIP3    H126011   2.943   3.744  15.083  0.5201  1.3552 -0.6928
 1532TIP3    H226012   2.943   3.776  15.231 -1.8145 -2.2751  0.1572
 1533TIP3   OH226013   2.039   4.299   5.660 -0.5839  0.4753  0.3821
 1533TIP3    H126014   2.132   4.323   5.665 -0.7532  1.2164 -0.0075
 1533TIP3    H226015   2.037   4.223   5.603  0.2500 -2.0891  3.6378
 1534TIP3   OH226016   2.049   2.787  11.560  0.6049  0.0950 -0.0960
 1534TIP3    H126017   2.129   2.796  11.507  0.8696  0.0122  0.2885
 1534TIP3    H226018   2.074   2.730  11.632  0.1813  0.0280 -0.0014
 1535TIP3   OH226019   5.795   2.469  16.744  0.0595 -0.2036  0.5004
 1535TIP3    H126020   5.701   2.460  16.763 -0.0055  0.1878  0.3578
 1535TIP3    H226021   5.830   2.517  16.819 -0.0301  0.5251  0.0720
 1536TIP3   OH226022   3.166   0.791  15.175 -0.1806  0.1446 -0.0139
 1536TIP3    H126023   3.129   0.729  15.112 -0.5131  0.8475 -0.5128
 1536TIP3    H226024   3.239   0.832  15.129 -0.1455  0.3336  0.2093
 1537TIP3   OH226025   1.768   6.462  16.747 -0.2075  0.2592  0.1335
 1537TIP3    H126026   1.716   6.528  16.701 -0.1104  0.8752  0.8921
 1537TIP3    H226027   1.714   6.438  16.823  0.4908  0.7089  0.7819
 1538TIP3   OH226028   6.197   0.410  14.452 -0.6482 -0.2631 -0.1206
 1538TIP3    H126029   6.181   0.437  14.543 -2.0249 -0.3608 -0.3336
 1538TIP3    H226030   6.128   0.452  14.402  0.6809  0.5868 -1.2869
 1539TIP3   OH226031   2.963   4.259  11.920  0.1429 -0.2888  0.4421
 1539TIP3    H126032   3.025   4.304  11.977  0.2713  0.4892 -0.2968
 1539TIP3    H226033   2.991   4.281  11.832 -0.2608 -1.2021  0.0771
 1540TIP3   OH226034   3.600   5.685   0.021  0.3363  0.6615 -0.4592
 1540TIP3    H126035   3.643   5.729   0.094 -1.0145  0.0269  0.7325
 1540TIP3    H226036   3.568   5.757  -0.034  1.3087  1.1408 -0.4129
 1541TIP3   OH226037   4.353   2.797  17.216  0.1368 -0.4732 -0.2274
 1541TIP3    H126038   4.376   2.869  17.274  0.7563  0.2611 -1.3631
 1541TIP3    H226039   4.259   2.807  17.201  0.3577  0.5738 -0.9951
 1542TIP3   OH226040   3.074   5.075   0.512 -0.0215  0.1171 -0.1461
 1542TIP3    H126041   3.073   5.055   0.606  1.3312  1.6559  0.2207
 1542TIP3    H226042   3.159   5.041   0.482 -0.2409  0.0652 -0.7086
 1543TIP3   OH226043   2.002   3.590   4.062  0.0508  0.2513  0.0709
 1543TIP3    H126044   2.094   3.605   4.041 -0.1603 -2.1728 -3.0001
 1543TIP3    H226045   1.995   3.496   4.076 -2.1046  0.2868 -0.5098
 1544TIP3   OH226046   4.009   5.931  10.934 -0.7288 -0.5601 -0.3672
 1544TIP3    H126047   3.988   5.868  10.865 -2.4282 -0.9213  0.4725
 1544TIP3    H226048   4.052   5.879  11.002 -0.3702 -0.4603 -0.5166
 1545TIP3   OH226049   4.840   0.712  17.045  0.1597  0.0853  0.2723
 1545TIP3    H126050   4.864   0.688  17.134 -1.0415  0.4183  0.6956
 1545TIP3    H226051   4.781   0.786  17.055 -0.0459  0.0799 -0.7926
 1546TIP3   OH226052   1.534   2.629   5.780 -0.1511 -0.0726  0.6479
 1546TIP3    H126053   1.491   2.691   5.838  0.9607  0.6340  0.7363
 1546TIP3    H226054   1.623   2.663   5.770 -0.2119 -0.3658 -1.1856
 1547TIP3   OH226055   1.406   0.160  11.505  0.1819  0.0462  0.1169
 1547TIP3    H126056   1.373   0.200  11.424  0.8327  0.6901  0.1668
 1547TIP3    H226057   1.411   0.232  11.567  0.1569 -0.3553  0.5907
 1548TIP3   OH226058   1.422   3.524   0.329 -0.0052 -0.0068 -0.0576
 1548TIP3    H126059   1.443   3.550   0.419 -2.1317 -0.9253  0.7499
 1548TIP3    H226060   1.499   3.548   0.278  1.0318  1.0003  1.9264
 1549TIP3   OH226061   5.088   2.036   0.841 -0.3945 -0.3216 -0.2189
 1549TIP3    H126062   5.018   2.036   0.906  0.7533 -1.7854  1.0494
 1549TIP3    H226063   5.043   2.047   0.757 -2.1489 -1.1739  0.5821
 1550TIP3   OH226064   5.965   3.719   5.941  0.2629 -0.2075 -0.1637
 1550TIP3    H126065   5.918   3.645   5.903  0.1624  0.0205 -0.4889
 1550TIP3    H226066   5.909   3.750   6.012 -0.0375  0.0124 -0.4960
 1551TIP3   OH226067   3.172   0.913   6.128  0.5826  0.0432 -0.1917
 1551TIP3    H126068   3.177   0.827   6.084 -1.2894  0.1411 -0.6692
 1551TIP3    H226069   3.162   0.892   6.221  1.9715 -0.2079 -0.0851
 1552TIP3   OH226070   6.319   0.158  15.875  0.2266  0.0352 -0.0759
 1552TIP3    H126071   6.346   0.242  15.912 -1.1082  0.6217 -0.3921
 1552TIP3    H226072   6.283   0.180  15.788 -0.6618 -0.7666  0.0717
 1553TIP3   OH226073   3.069   0.783  14.407  0.0096  0.0482  0.0676
 1553TIP3    H126074   3.057   0.873  14.379 -0.9576 -0.0287  0.1862
 1553TIP3    H226075   3.006   0.772  14.479  0.9424 -0.3742  0.8288
 1554TIP3   OH226076   3.441   1.682  11.522 -0.0342 -0.2166  0.0259
 1554TIP3    H126077   3.465   1.591  11.538  0.8185 -0.2239 -1.1535
 1554TIP3    H226078   3.512   1.733  11.562  0.3263 -0.1324 -0.7084
 1555TIP3   OH226079   2.995   2.942  15.069 -0.3966 -0.1705 -0.0905
 1555TIP3    H126080   3.040   2.889  15.004 -1.2180  0.4571 -1.1779
 1555TIP3    H226081   3.052   2.938  15.146  1.0527 -0.1621 -1.1385
 1556TIP3   OH226082   6.553   0.294  11.583 -0.1558  0.2891  0.3556
 1556TIP3    H126083   6.460   0.309  11.601  0.1092  0.9430  1.2123
 1556TIP3    H226084   6.597   0.374  11.614  0.6425  0.2035 -0.5089
 1557TIP3   OH226085   2.611   1.249   2.331 -0.1788 -0.1962 -0.0728
 1557TIP3    H126086   2.618   1.294   2.247 -0.1357  0.9965  0.5557
 1557TIP3    H226087   2.529   1.282   2.369  0.5050  0.3343  0.9561
 1558TIP3   OH226088   4.423   0.262  13.583  0.8385  0.0182 -0.2712
 1558TIP3    H126089   4.400   0.178  13.543 -2.2716  1.0382 -0.7970
 1558TIP3    H226090   4.413   0.326  13.513  2.9187  0.8879  0.1870
 1559TIP3   OH226091   6.356   4.165  17.025 -0.2363  0.0814  0.3681
 1559TIP3    H126092   6.425   4.205  16.973  0.8836 -1.5154  0.5911
 1559TIP3    H226093   6.315   4.102  16.966 -0.8634  0.3172  0.5436
 1560TIP3   OH226094   2.098   2.239  17.192  0.2084  0.1563  0.2388
 1560TIP3    H126095   2.192   2.234  17.177  0.0146  1.2360 -1.5774
 1560TIP3    H226096   2.072   2.322  17.153 -1.6822 -0.6999 -0.4077
 1561TIP3   OH226097   6.090   2.485  16.351  0.0541 -0.1015  0.0573
 1561TIP3    H126098   6.094   2.429  16.429  1.4218  0.0840  0.1394
 1561TIP3    H226099   5.997   2.497  16.335 -0.2438 -0.4234  1.4701
 1562TIP3   OH226100   5.788   3.061  10.721 -0.4578  0.4050 -0.1386
 1562TIP3    H126101   5.780   2.966  10.730 -0.8377  0.4405 -0.0637
 1562TIP3    H226102   5.881   3.079  10.731 -0.0292 -0.2348 -2.7848
 1563TIP3   OH226103   4.267   6.534   5.428  0.1441  0.0819  0.4173
 1563TIP3    H126104   4.201   6.535   5.497 -1.5138 -1.1873 -1.1000
 1563TIP3    H226105   4.241   6.604   5.368  0.9354  0.4491  0.4879
 1564TIP3   OH226106   4.222   0.778   4.354  0.4084 -0.3810  0.0007
 1564TIP3    H126107   4.219   0.682   4.355 -0.8025 -0.3508  0.4183
 1564TIP3    H226108   4.310   0.799   4.385  1.3515 -1.3744 -1.9491
 1565TIP3   OH226109   3.992   3.841   2.774  0.5743 -0.0475 -0.3741
 1565TIP3    H126110   4.022   3.819   2.862 -0.6101 -0.1107  0.0281
 1565TIP3    H226111   3.925   3.775   2.754 -0.5203  1.0843 -0.5509
 1566TIP3   OH226112   2.316   2.281  13.597 -0.1680 -0.1591 -0.1664
 1566TIP3    H126113   2.384   2.345  13.618  0.6023 -1.0049 -0.0416
 1566TIP3    H226114   2.254   2.329  13.542  0.8595  0.4456 -0.8158
 1567TIP3   OH226115   2.237   0.469  15.135 -0.3149 -0.3780  0.3510
 1567TIP3    H126116   2.296   0.393  15.134 -0.5320 -0.5423 -0.0974
 1567TIP3    H226117   2.239   0.502  15.045 -0.2629  0.1136  0.5345
 1568TIP3   OH226118   3.990   6.187   4.992  0.2022 -0.2186  0.9010
 1568TIP3    H126119   4.040   6.220   4.917 -0.8561 -4.6398 -1.9470
 1568TIP3    H226120   4.053   6.133   5.041 -0.7468 -2.9287 -0.7427
 1569TIP3   OH226121   1.795   1.455  11.511  0.5728  0.3816  0.5723
 1569TIP3    H126122   1.858   1.518  11.548 -0.8993  2.2443  0.0166
 1569TIP3    H226123   1.819   1.449  11.419 -0.9852  2.3632 -0.0220
 1570TIP3   OH226124   5.784   2.430  15.733  0.2051 -0.3932  0.0258
 1570TIP3    H126125   5.710   2.373  15.754 -1.3658  1.6275  0.1667
 1570TIP3    H226126   5.809   2.406  15.644 -2.1386  0.4348 -0.9030
 1571TIP3   OH226127   3.457   2.392  13.658  0.4529 -0.3391 -0.1785
 1571TIP3    H126128   3.531   2.369  13.603  1.4045  2.7061 -0.2588
 1571TIP3    H226129   3.488   2.465  13.713 -1.9992  0.0362  0.8285
 1572TIP3   OH226130   5.156   5.182  12.180  0.5284 -0.2748 -0.0727
 1572TIP3    H126131   5.060   5.173  12.182  0.3198  1.7962  2.6972
 1572TIP3    H226132   5.188   5.094  12.163 -1.8364 -1.2849  0.4470
 1573TIP3   OH226133   0.992   3.837  13.996 -0.5327 -0.3352  0.8338
 1573TIP3    H126134   0.917   3.845  13.938 -0.1291 -0.1366  0.3268
 1573TIP3    H226135   0.982   3.752  14.039 -1.9201  0.4249  2.0213
 1574TIP3   OH226136   2.606   2.953   5.622 -0.3501 -0.5990 -0.3552
 1574TIP3    H126137   2.576   2.885   5.562 -0.2767 -0.4138 -0.6040
 1574TIP3    H226138   2.533   2.966   5.682  0.8580 -3.3429  1.8643
 1575TIP3   OH226139   1.509   2.087  13.504 -0.2371 -0.1578  0.3638
 1575TIP3    H126140   1.488   2.128  13.588  0.4347 -1.1228  1.0151
 1575TIP3    H226141   1.506   2.159  13.441  0.5211  0.8342  1.4232
 1576TIP3   OH226142   0.495   3.360  15.167  0.0783  0.0382 -0.0144
 1576TIP3    H126143   0.427   3.326  15.110 -0.4800 -0.0304  0.6760
 1576TIP3    H226144   0.564   3.390  15.108  0.0159 -1.1026 -0.6683
 1577TIP3   OH226145   5.555   3.016  11.013  0.4039 -0.4864 -0.0475
 1577TIP3    H126146   5.520   3.004  10.925  0.3390  0.5053 -0.1721
 1577TIP3    H226147   5.478   3.019  11.069  0.3694  0.1460 -0.1241
 1578TIP3   OH226148   2.231   2.963  14.609  0.1485  0.5538  0.2845
 1578TIP3    H126149   2.242   2.974  14.515  0.5150  0.7334  0.3486
 1578TIP3    H226150   2.317   2.937  14.641  0.3399  1.6859  0.7436
 1579TIP3   OH226151   3.674   1.834   4.396  0.4009  0.6959  0.5253
 1579TIP3    H126152   3.714   1.780   4.327  0.6957 -0.2965  1.4601
 1579TIP3    H226153   3.640   1.771   4.459  1.3709  1.6123  1.9915
 1580TIP3   OH226154   3.537   0.704   3.030  0.0128 -0.1812  0.4959
 1580TIP3    H126155   3.560   0.635   2.968 -0.3783  0.2312 -0.1192
 1580TIP3    H226156   3.566   0.671   3.115  1.0335 -0.5259  0.0231
 1581TIP3   OH226157   4.885   6.052   2.452  0.3219  0.3180  0.4807
 1581TIP3    H126158   4.818   6.036   2.385  1.0106 -1.8174  0.2548
 1581TIP3    H226159   4.850   6.124   2.504 -1.6117  0.0264 -0.3559
 1582TIP3   OH226160   2.101   1.680  12.884  0.0623 -0.6248 -0.1177
 1582TIP3    H126161   2.146   1.609  12.928  1.6311 -0.1555 -0.9451
 1582TIP3    H226162   2.070   1.642  12.802  0.4009 -0.5161 -0.2987
 1583TIP3   OH226163   3.017   4.583  16.509  0.2155 -0.2421  0.6317
 1583TIP3    H126164   3.019   4.678  16.511  1.8195 -0.2733  0.5929
 1583TIP3    H226165   2.946   4.559  16.569  0.9175  0.9183  1.9488
 1584TIP3   OH226166   3.903   0.768   1.949  0.8681  0.1261 -0.5482
 1584TIP3    H126167   3.829   0.713   1.977 -0.0755  0.2724 -2.6467
 1584TIP3    H226168   3.981   0.717   1.972  0.0400 -1.2637 -0.7610
 1585TIP3   OH226169   2.956   2.148  13.161  0.1045  0.0127 -0.7711
 1585TIP3    H126170   3.034   2.181  13.205  0.3229 -0.0952 -1.0724
 1585TIP3    H226171   2.918   2.086  13.223 -0.5922  1.2033  0.0065
 1586TIP3   OH226172   5.201   5.867  13.537  0.3511  0.2843 -0.3187
 1586TIP3    H126173   5.289   5.900  13.557  0.9711 -0.9693 -0.9172
 1586TIP3    H226174   5.216   5.797  13.474 -0.9028 -1.3340  1.1356
 1587TIP3   OH226175   3.492   2.319   4.835 -0.0786 -0.1829  0.6911
 1587TIP3    H126176   3.466   2.252   4.772 -0.5743 -0.5937  1.3285
 1587TIP3    H226177   3.451   2.400   4.803  2.1372  0.2589 -1.1846
 1588TIP3   OH226178   3.035   2.113  15.361 -0.5449  0.2633  0.3500
 1588TIP3    H126179   3.064   2.204  15.368  1.3506 -0.2000 -0.9578
 1588TIP3    H226180   3.107   2.069  15.316 -1.8338 -1.7000  0.1611
 1589TIP3   OH226181   4.178   5.762  13.007 -0.4920  0.9671  0.1712
 1589TIP3    H126182   4.246   5.812  13.051 -0.1155 -0.7830  1.6170
 1589TIP3    H226183   4.109   5.753  13.072  0.0132 -1.5324  0.3840
 1590TIP3   OH226184   4.793   3.562   4.504  0.4768 -0.3871 -0.4503
 1590TIP3    H126185   4.768   3.498   4.571  1.1845  0.6208  0.7978
 1590TIP3    H226186   4.874   3.601   4.537 -0.4743  1.8870 -0.6613
 1591TIP3   OH226187   1.504   5.039  11.925 -0.0987  0.2041  0.1207
 1591TIP3    H126188   1.580   4.984  11.910  0.2775  0.8823 -0.4775
 1591TIP3    H226189   1.500   5.097  11.849 -1.8201 -0.5161 -0.3757
 1592TIP3   OH226190   2.929   3.478  12.105  0.1575  0.5082 -0.0924
 1592TIP3    H126191   2.976   3.496  12.187  0.5304 -0.5676 -0.0706
 1592TIP3    H226192   2.948   3.554  12.050  1.7044  0.2072  0.0198
 1593TIP3   OH226193   4.333   3.966  14.320  0.1335 -0.0175 -0.4622
 1593TIP3    H126194   4.379   4.005  14.246  1.9948  0.5876  0.9661
 1593TIP3    H226195   4.398   3.908  14.361 -0.6378  0.1615  1.0807
 1594TIP3   OH226196   5.041   1.136   6.232 -0.2097 -0.1029  0.4094
 1594TIP3    H126197   5.126   1.169   6.262 -1.2272  1.0843  2.0910
 1594TIP3    H226198   5.025   1.182   6.150  0.6782 -0.1500  0.2092
 1595TIP3   OH226199   3.000   3.734   4.428 -0.2786 -0.3705 -0.0989
 1595TIP3    H126200   3.086   3.696   4.413  0.3944  1.3594 -0.7164
 1595TIP3    H226201   2.980   3.781   4.347  0.1355  2.8893  1.6407
 1596TIP3   OH226202   3.687   0.865  15.412 -0.0297  0.7894  0.4912
 1596TIP3    H126203   3.735   0.838  15.490 -1.0262 -0.9390  0.5248
 1596TIP3    H226204   3.595   0.851  15.435 -0.4013  1.5098 -0.5349
 1597TIP3   OH226205   5.896   1.979   5.054 -0.1073 -0.2413  0.3855
 1597TIP3    H126206   5.892   1.960   4.961  1.5963  1.3465 -0.0429
 1597TIP3    H226207   5.912   2.073   5.059 -1.4743 -0.0654  2.3067
 1598TIP3   OH226208   4.780   2.011  13.695 -0.5769 -0.1473 -0.5642
 1598TIP3    H126209   4.749   1.921  13.701 -2.8691  0.6208 -0.4264
 1598TIP3    H226210   4.848   2.018  13.762  0.9818 -2.2897 -1.8726
 1599TIP3   OH226211   3.986   2.064   1.598 -0.3515  0.0629 -0.1613
 1599TIP3    H126212   3.985   1.973   1.568 -1.3053  0.2754 -0.7930
 1599TIP3    H226213   3.895   2.082   1.621 -0.6859  1.7119 -2.6202
 1600TIP3   OH226214   6.635   4.381  14.231 -0.1611 -0.1235 -0.3312
 1600TIP3    H126215   6.631   4.473  14.205  0.1331 -0.0027  0.0464
 1600TIP3    H226216   6.726   4.365  14.253  0.1263 -0.9858 -2.0733
 1601TIP3   OH226217   2.776   2.563   2.988  0.0283  0.7889  0.1391
 1601TIP3    H126218   2.764   2.483   2.937  0.0601  0.5002  0.5839
 1601TIP3    H226219   2.736   2.544   3.073 -0.1626  1.3216  0.1714
 1602TIP3   OH226220   3.397   2.041   0.905  0.2579 -0.5374  0.5872
 1602TIP3    H126221   3.425   2.045   0.997 -0.1920  1.2287  0.6739
 1602TIP3    H226222   3.307   2.075   0.906  0.4242 -0.0462 -0.5690
 1603TIP3   OH226223   4.384   4.459  12.165  0.4199  0.0942 -0.2463
 1603TIP3    H126224   4.405   4.456  12.258  1.7642  2.5589 -0.4457
 1603TIP3    H226225   4.372   4.367  12.141 -1.1355 -0.5248  2.5997
 1604TIP3   OH226226   6.363   1.606   1.978 -0.4742 -0.2764 -0.6195
 1604TIP3    H126227   6.438   1.565   1.935 -0.0556 -0.9258  0.7000
 1604TIP3    H226228   6.398   1.639   2.061 -1.3927  0.4272 -0.5010
 1605TIP3   OH226229   4.051   6.383   6.639 -0.0733  0.0486  0.3924
 1605TIP3    H126230   3.973   6.337   6.670 -0.4734 -0.0495 -0.7451
 1605TIP3    H226231   4.018   6.468   6.611  0.2872  0.1379  0.2439
 1606TIP3   OH226232   5.585   0.495  13.768 -0.4478  0.2133  0.1167
 1606TIP3    H126233   5.598   0.589  13.756  1.2322 -0.0157 -0.0103
 1606TIP3    H226234   5.491   0.482  13.759 -0.7029  1.8909  0.1945
 1607TIP3   OH226235   5.041   2.020  15.568 -0.0223  0.4392 -0.7362
 1607TIP3    H126236   5.095   2.007  15.490  2.0885  2.4867  0.2961
 1607TIP3    H226237   4.995   2.102  15.552  1.2635  1.4462  0.5889
 1608TIP3   OH226238   5.159   3.388  13.551 -0.2013 -0.2132  0.0147
 1608TIP3    H126239   5.112   3.316  13.595  0.5453 -1.3313 -0.9682
 1608TIP3    H226240   5.244   3.392  13.595 -0.0439 -0.2900 -0.2807
 1609TIP3   OH226241   3.964   5.717  13.171  0.6705  0.8514 -0.5119
 1609TIP3    H126242   3.919   5.682  13.248 -0.4977  1.3266 -0.9799
 1609TIP3    H226243   3.924   5.672  13.097  1.9327  0.2415 -0.8506
 1610TIP3   OH226244   0.850   1.495   0.841  0.2138  0.8396  0.0243
 1610TIP3    H126245   0.777   1.547   0.875  0.2067  0.7766  0.1072
 1610TIP3    H226246   0.923   1.557   0.834  0.7718  0.4484  2.0077
 1611TIP3   OH226247   5.313   2.221  11.755  0.3958  0.2907 -0.0045
 1611TIP3    H126248   5.239   2.168  11.786  1.3446 -1.3172 -0.4154
 1611TIP3    H226249   5.390   2.168  11.775  1.5577  2.5467  1.6495
 1612TIP3   OH226250   0.496   2.006   0.344  0.4924 -0.2638 -0.2362
 1612TIP3    H126251   0.444   2.087   0.344 -0.8423 -1.1004  0.1396
 1612TIP3    H226252   0.470   1.961   0.264 -1.8965 -2.2431  1.5797
 1613TIP3   OH226253   3.910   1.666  10.722  0.7953  0.1457 -0.4438
 1613TIP3    H126254   3.834   1.624  10.682 -0.3260  2.7971 -1.1661
 1613TIP3    H226255   3.985   1.621  10.682 -0.3326 -1.9363 -0.3219
 1614TIP3   OH226256   2.607   2.719   3.211  0.1113 -0.3963 -0.7226
 1614TIP3    H126257   2.608   2.692   3.303  1.0009 -1.4772 -1.0329
 1614TIP3    H226258   2.560   2.802   3.211  0.2187 -0.3164  0.7261
 1615TIP3   OH226259   0.263   6.678   2.345 -0.4017  0.0253 -0.0859
 1615TIP3    H126260   0.321   6.739   2.390  0.3371 -0.5922 -0.2012
 1615TIP3    H226261   0.257   6.603   2.403  0.5827 -0.7926 -1.0398
 1616TIP3   OH226262   0.355   2.078   5.236  0.5561 -0.3694  0.0942
 1616TIP3    H126263   0.310   2.119   5.310  1.5224  0.2425  0.3481
 1616TIP3    H226264   0.445   2.110   5.241  0.7617 -0.7263 -1.0450
 1617TIP3   OH226265   2.505   4.161   5.395 -0.2075 -0.4623  0.4928
 1617TIP3    H126266   2.451   4.197   5.325 -2.9576 -1.5963  1.9645
 1617TIP3    H226267   2.567   4.232   5.416 -0.5602  0.5632 -1.7538
 1618TIP3   OH226268   3.492   5.110   4.839 -0.3879  0.2220  0.0294
 1618TIP3    H126269   3.412   5.162   4.830 -0.5481  0.1965  1.1565
 1618TIP3    H226270   3.530   5.140   4.922  0.6015  0.0051 -0.3448
 1619TIP3   OH226271   5.994   1.907   6.099  0.1585  0.3427 -0.3686
 1619TIP3    H126272   6.061   1.885   6.163 -1.6848 -0.8538  1.2396
 1619TIP3    H226273   5.919   1.853   6.124 -1.7938  2.5048 -1.3559
 1620TIP3   OH226274   2.837   2.728  15.369 -0.0405  0.3064  0.1766
 1620TIP3    H126275   2.890   2.804  15.395  1.0605 -0.6167  0.6448
 1620TIP3    H226276   2.900   2.662  15.342 -1.0254 -0.2567 -0.7892
 1621TIP3   OH226277   2.015   3.140  14.636 -0.7206 -0.1893  0.4148
 1621TIP3    H126278   1.975   3.126  14.550  0.8208  0.5297 -0.4278
 1621TIP3    H226279   2.073   3.065  14.648 -0.6130 -0.0684  0.6455
 1622TIP3   OH226280   4.856   1.711   3.694 -0.5237  0.0714 -0.6545
 1622TIP3    H126281   4.782   1.706   3.754 -1.4745 -0.5231 -1.8730
 1622TIP3    H226282   4.844   1.795   3.648  0.0263  0.3768 -0.2410
 1623TIP3   OH226283   2.290   5.932   3.039 -0.5894  0.7423 -0.0242
 1623TIP3    H126284   2.330   5.872   3.102  0.6441 -0.8680 -2.2699
 1623TIP3    H226285   2.304   6.019   3.076 -1.8925 -0.2924  3.0172
 1624TIP3   OH226286   0.678   2.466   0.994 -0.1979  0.6175 -0.0847
 1624TIP3    H126287   0.691   2.560   0.993  0.0048  0.5926 -2.4127
 1624TIP3    H226288   0.583   2.454   0.995 -0.2521  0.8649 -1.5656
 1625TIP3   OH226289   2.961   3.119  15.681 -0.2166  0.9970  0.4734
 1625TIP3    H126290   3.033   3.102  15.742  0.3845 -0.7197 -0.6586
 1625TIP3    H226291   2.906   3.182  15.726  0.4576  0.1113  2.6101
 1626TIP3   OH226292   3.238   5.640   6.000  0.3364  0.9074 -0.3241
 1626TIP3    H126293   3.190   5.680   5.927  0.7162  1.1518 -0.4424
 1626TIP3    H226294   3.198   5.678   6.078  1.3722  2.3145 -0.4578
 1627TIP3   OH226295   5.529   6.660   5.863  0.2939 -0.7153 -0.9191
 1627TIP3    H126296   5.581   6.719   5.808 -0.0172 -0.9290 -1.4495
 1627TIP3    H226297   5.557   6.572   5.837  1.2642 -0.8025  0.3620
 1628TIP3   OH226298   3.840   1.548  11.372  0.4429 -0.0864  0.6671
 1628TIP3    H126299   3.782   1.471  11.366  1.0316 -0.5540  0.8698
 1628TIP3    H226300   3.854   1.575  11.281  0.4899 -0.4160  0.5757
 1629TIP3   OH226301   1.299   1.374  14.248  0.7047 -0.0402  0.1347
 1629TIP3    H126302   1.320   1.378  14.342  1.0394 -1.8573  0.1487
 1629TIP3    H226303   1.227   1.312  14.242  1.4622 -0.8389 -0.9335
 1630TIP3   OH226304   0.702   1.223   4.380 -0.2858 -0.7343 -0.2692
 1630TIP3    H126305   0.654   1.209   4.298 -0.9373 -0.8930  0.1310
 1630TIP3    H226306   0.719   1.134   4.412 -0.0860 -0.6705 -0.2002
 1631TIP3   OH226307   4.546   3.145  16.164  0.4097  0.0623 -0.0171
 1631TIP3    H126308   4.612   3.117  16.227  1.0776  0.1383 -0.6709
 1631TIP3    H226309   4.496   3.212  16.209 -1.4670 -2.4222  1.7405
 1632TIP3   OH226310   4.036   5.082   4.317  0.2072  0.5145  0.2965
 1632TIP3    H126311   4.130   5.072   4.298  0.3217  1.3209  0.4499
 1632TIP3    H226312   4.028   5.061   4.410 -0.2092 -2.4594 -0.3381
 1633TIP3   OH226313   5.657   3.820   2.457 -0.2132  0.2872  0.6191
 1633TIP3    H126314   5.616   3.856   2.536 -0.3100  0.0063  0.7011
 1633TIP3    H226315   5.751   3.832   2.470 -0.2827  1.1969  0.3020
 1634TIP3   OH226316   5.066   4.560  10.749  0.6657  0.1294  0.2121
 1634TIP3    H126317   5.075   4.560  10.653  1.3035  0.0400  0.2704
 1634TIP3    H226318   4.998   4.495  10.767  0.9887 -0.3091 -0.1393
 1635TIP3   OH226319   6.097   4.661  12.767  0.2854 -0.3956 -0.2533
 1635TIP3    H126320   6.181   4.700  12.794  0.2181 -1.2305  1.1719
 1635TIP3    H226321   6.037   4.736  12.762  1.3815  0.3901 -2.4556
 1636TIP3   OH226322   5.508   0.410   3.360 -0.4914 -0.2621 -0.6465
 1636TIP3    H126323   5.461   0.394   3.278 -1.9704  2.2363 -0.3012
 1636TIP3    H226324   5.581   0.466   3.335 -1.4144  1.1864 -0.1487
 1637TIP3   OH226325   6.569   0.105  16.762 -0.3175  0.2843  0.2539
 1637TIP3    H126326   6.487   0.152  16.772  0.1018  0.8644  1.0328
 1637TIP3    H226327   6.581   0.098  16.667 -1.0160  0.6431  0.1360
 1638TIP3   OH226328   4.573   2.533  11.031  0.1386 -0.0314  0.2965
 1638TIP3    H126329   4.596   2.485  10.952  1.0386  0.8739  0.0002
 1638TIP3    H226330   4.486   2.569  11.013 -0.2178 -0.9019  0.2289
 1639TIP3   OH226331   0.012   6.179  10.600  0.0679 -0.0719 -0.3667
 1639TIP3    H126332  -0.068   6.222  10.570  0.3281  0.7092  0.0458
 1639TIP3    H226333  -0.001   6.086  10.578 -1.2874 -0.0779  0.4328
 1640TIP3   OH226334   2.087   5.556   1.557  0.6075 -0.4279  0.0252
 1640TIP3    H126335   2.026   5.489   1.587  0.5456 -0.2824  0.2262
 1640TIP3    H226336   2.047   5.638   1.583  0.6804 -0.3112 -0.2274
 1641TIP3   OH226337   5.308   1.776  13.852 -0.0701 -0.2777 -0.0035
 1641TIP3    H126338   5.317   1.852  13.909  0.7844  0.4569 -1.1103
 1641TIP3    H226339   5.327   1.808  13.764  1.1968 -1.9505 -0.3710
 1642TIP3   OH226340   5.721   1.734  17.011 -0.0033  0.1117 -0.8536
 1642TIP3    H126341   5.701   1.765  16.923  0.5076  1.6302 -0.4413
 1642TIP3    H226342   5.644   1.758  17.063  1.2269  2.5204 -0.0983
 1643TIP3   OH226343   1.956   1.688  13.354  0.4208  0.5217 -0.0797
 1643TIP3    H126344   1.995   1.604  13.377  0.8907  0.8583  0.3362
 1643TIP3    H226345   1.922   1.674  13.265 -0.5935 -0.4826  0.4563
 1644TIP3   OH226346   3.216   1.258  14.198  0.3448 -0.1754 -0.3359
 1644TIP3    H126347   3.124   1.287  14.196 -0.3136 -2.2128 -0.5975
 1644TIP3    H226348   3.244   1.274  14.288 -0.4586 -0.1214 -0.0878
 1645TIP3   OH226349   3.581   3.197  13.699  0.1205  0.4277  0.3447
 1645TIP3    H126350   3.663   3.213  13.746  0.0262  1.3749  0.1959
 1645TIP3    H226351   3.519   3.260  13.735 -0.5361 -0.2556  0.4227
 1646TIP3   OH226352   5.299   1.381   5.263  0.3004 -0.2060 -0.2188
 1646TIP3    H126353   5.275   1.404   5.174  0.0916 -0.2681 -0.1796
 1646TIP3    H226354   5.238   1.430   5.318  1.4629  1.0721 -0.0630
 1647TIP3   OH226355   0.351   1.583  13.699  0.0157 -0.5810 -0.2177
 1647TIP3    H126356   0.417   1.581  13.768  0.6449 -1.5240 -0.8281
 1647TIP3    H226357   0.268   1.577  13.745  0.3046  1.2706  0.6085
 1648TIP3   OH226358   6.682   4.478   6.469  0.0614 -0.1022  0.3839
 1648TIP3    H126359   6.664   4.569   6.491  0.6821  0.0759  0.1460
 1648TIP3    H226360   6.623   4.459   6.395 -0.5040 -0.0789  0.8260
 1649TIP3   OH226361   1.779   2.607   1.430 -0.2064  0.0787  0.4710
 1649TIP3    H126362   1.819   2.542   1.488  0.2335  2.8019  3.3318
 1649TIP3    H226363   1.686   2.583   1.428  0.3785 -2.2695 -0.8033
 1650TIP3   OH226364   5.008   3.731   1.277 -0.0570 -0.0999  0.1671
 1650TIP3    H126365   4.986   3.638   1.284 -1.8281  0.2148 -0.9025
 1650TIP3    H226366   4.924   3.776   1.288  0.2320  1.2058 -2.5645
 1651TIP3   OH226367   4.518   0.491  16.387  0.3636 -0.1881  0.2145
 1651TIP3    H126368   4.585   0.559  16.396 -0.3192  0.6907 -1.1934
 1651TIP3    H226369   4.454   0.529  16.327 -2.5104 -0.1737  3.1734
 1652TIP3   OH226370   4.675   6.470  16.184 -0.2384 -0.3747 -0.4295
 1652TIP3    H126371   4.671   6.503  16.094 -1.1056 -1.1567 -0.6800
 1652TIP3    H226372   4.763   6.434  16.192  0.0411  0.2170 -0.7780
 1653TIP3   OH226373   2.071   6.727   1.205 -1.2253  0.7037 -0.1759
 1653TIP3    H126374   1.977   6.723   1.185 -1.3123 -2.3672  0.6834
 1653TIP3    H226375   2.075   6.712   1.300  0.1818  0.1988 -0.3125
 1654TIP3   OH226376   3.028   0.631  12.030 -0.1652  0.0832  0.2728
 1654TIP3    H126377   3.101   0.661  12.084  0.2482  1.3925 -0.9722
 1654TIP3    H226378   3.042   0.537  12.021  0.9071  0.1933  0.7559
 1655TIP3   OH226379   5.803   3.606  11.948 -0.2249 -0.5371 -0.1998
 1655TIP3    H126380   5.849   3.601  11.864 -1.1995 -1.2943 -0.6980
 1655TIP3    H226381   5.860   3.659  12.003  0.6273 -0.3826 -1.2112
 1656TIP3   OH226382   0.955   6.761  12.481 -0.1542 -0.3060  0.5410
 1656TIP3    H126383   0.982   6.687  12.427 -2.6166 -1.3964  0.7034
 1656TIP3    H226384   0.942   6.724  12.568 -2.3996  0.0556  0.3932
 1657TIP3   OH226385   2.562   5.263   2.796  0.4783  0.3382  0.2494
 1657TIP3    H126386   2.629   5.197   2.779 -0.6127 -1.1133  1.4033
 1657TIP3    H226387   2.505   5.222   2.862 -0.5462  2.2135  0.5504
 1658TIP3   OH226388   1.662   4.280  15.870 -0.2185  0.5900  0.4005
 1658TIP3    H126389   1.641   4.201  15.920 -1.1271  0.1694 -0.6131
 1658TIP3    H226390   1.591   4.287  15.806  0.5072  1.5484 -0.3110
 1659TIP3   OH226391   6.618   6.202   3.169 -0.2329  0.1474  0.6409
 1659TIP3    H126392   6.600   6.258   3.245  0.1708  1.2503 -0.0627
 1659TIP3    H226393   6.566   6.241   3.098 -1.0391 -1.2012  0.4802
 1660TIP3   OH226394   4.996   1.462  13.989  0.1282 -1.0281  0.4302
 1660TIP3    H126395   4.968   1.546  14.025 -0.3345 -1.2718  0.6533
 1660TIP3    H226396   4.987   1.472  13.895  2.3234 -0.0423  0.3080
 1661TIP3   OH226397   5.945   2.770   3.044  0.4456 -0.2603  0.0696
 1661TIP3    H126398   5.977   2.692   3.000 -1.5205 -1.0588  0.0220
 1661TIP3    H226399   5.912   2.826   2.974  0.2608 -0.1399  0.2510
 1662TIP3   OH226400   4.792   1.363  16.421  0.2933  0.4408 -0.3882
 1662TIP3    H126401   4.768   1.271  16.428  0.2025  0.5114  0.2454
 1662TIP3    H226402   4.713   1.406  16.386 -1.1175  0.9328  3.2400
 1663TIP3   OH226403   0.758   3.691  12.512  0.4226  0.0467 -0.0338
 1663TIP3    H126404   0.709   3.612  12.533  0.4801  0.4150  1.6099
 1663TIP3    H226405   0.821   3.664  12.445 -0.1711 -1.0724 -0.1445
 1664TIP3   OH226406   2.459   5.681   4.231  0.2158  0.3315 -0.4261
 1664TIP3    H126407   2.503   5.597   4.220  0.3582  0.5014 -1.1645
 1664TIP3    H226408   2.529   5.746   4.228  0.0354  0.5233 -0.5353
 1665TIP3   OH226409   1.420   0.242   3.460 -0.5443  0.0353  0.2568
 1665TIP3    H126410   1.329   0.265   3.475 -0.1868 -0.4064  3.3677
 1665TIP3    H226411   1.465   0.326   3.452 -0.8893  0.2785  0.8660
 1666TIP3   OH226412   1.477   2.395   5.081  0.3090  0.0665  0.3445
 1666TIP3    H126413   1.484   2.436   5.167 -1.2268  0.4009  0.3238
 1666TIP3    H226414   1.528   2.314   5.088  0.1796  0.0865  1.5732
 1667TIP3   OH226415   0.331   3.598  14.997  0.1930 -0.0660 -0.0275
 1667TIP3    H126416   0.270   3.647  14.941  2.4262  0.3203 -2.2521
 1667TIP3    H226417   0.301   3.507  14.992 -0.2982  0.1428 -1.0242
 1668TIP3   OH226418   1.660   6.408   6.178 -0.3934  0.1297 -0.3476
 1668TIP3    H126419   1.753   6.425   6.191 -0.0292 -0.9112 -1.5730
 1668TIP3    H226420   1.636   6.348   6.248 -0.5514  1.7076  0.9921
 1669TIP3   OH226421   0.225   2.016   1.981  0.0140 -0.0093 -0.0241
 1669TIP3    H126422   0.301   1.971   1.944 -0.2063 -0.7883  0.4729
 1669TIP3    H226423   0.263   2.090   2.029  0.4611 -0.4326  0.2793
 1670TIP3   OH226424   5.700   3.700  14.730  0.2328 -0.4778 -0.1436
 1670TIP3    H126425   5.709   3.673  14.821 -0.5454  0.8832  0.3588
 1670TIP3    H226426   5.788   3.726  14.704  0.0127  1.5804  1.0499
 1671TIP3   OH226427   3.221   2.502   4.335 -0.2698 -0.7198  0.0260
 1671TIP3    H126428   3.180   2.519   4.250  2.0535  1.2781 -0.7420
 1671TIP3    H226429   3.168   2.552   4.397 -0.5047 -0.1649 -0.6106
 1672TIP3   OH226430   1.350   0.566   1.725  0.3864  0.6560  0.2962
 1672TIP3    H126431   1.329   0.587   1.634  1.0531 -2.5163 -0.6368
 1672TIP3    H226432   1.265   0.561   1.769 -0.0277  0.6119 -0.5096
 1673TIP3   OH226433   2.524   4.189  15.023 -0.2552 -0.2648 -0.1337
 1673TIP3    H126434   2.579   4.112  15.009 -0.6035 -0.2755 -1.5816
 1673TIP3    H226435   2.440   4.155  15.051  0.4138 -0.2558  1.9632
 1674TIP3   OH226436   3.091   0.918  11.941  0.0265 -0.2095 -0.4555
 1674TIP3    H126437   3.184   0.897  11.942 -0.1658 -1.2028  2.3461
 1674TIP3    H226438   3.048   0.833  11.952 -1.2716  0.1525 -2.3839
 1675TIP3   OH226439   4.747   4.565  12.585 -0.0070 -0.5299  0.0532
 1675TIP3    H126440   4.825   4.511  12.594 -1.0568 -1.6374  3.4107
 1675TIP3    H226441   4.678   4.505  12.556  0.2069  0.3331 -2.3609
 1676TIP3   OH226442   5.488   4.120   2.705 -0.3847 -0.4573  0.0568
 1676TIP3    H126443   5.401   4.124   2.745 -0.6747 -0.7738 -0.5448
 1676TIP3    H226444   5.492   4.198   2.650 -0.8792 -1.2602 -1.1215
 1677TIP3   OH226445   1.387   4.481   1.574 -0.1243 -0.0348  0.0485
 1677TIP3    H126446   1.421   4.432   1.499 -2.7560 -2.2156  0.1957
 1677TIP3    H226447   1.401   4.423   1.648 -1.1642  0.4299  0.6130
 1678TIP3   OH226448   3.817   2.748   2.683 -0.1255 -0.6559  0.4219
 1678TIP3    H126449   3.806   2.695   2.604 -0.6970  1.6184 -1.0622
 1678TIP3    H226450   3.729   2.778   2.704  0.6989  3.2838 -1.3452
 1679TIP3   OH226451   4.871   2.457  12.270 -0.4163  0.6859  0.2084
 1679TIP3    H126452   4.913   2.371  12.273 -1.0088  0.3673 -0.3605
 1679TIP3    H226453   4.797   2.446  12.209  0.3354  1.9655 -0.9693
 1680TIP3   OH226454   1.796   2.013   5.710  0.0350  0.1265 -0.1085
 1680TIP3    H126455   1.745   2.006   5.629 -0.4138 -1.8613  0.3172
 1680TIP3    H226456   1.745   1.964   5.774  0.5023  1.5078  1.3274
 1681TIP3   OH226457   6.567   4.099   4.719  0.0221  0.2827  0.6157
 1681TIP3    H126458   6.573   4.005   4.700  0.0329  0.4504 -0.2333
 1681TIP3    H226459   6.486   4.127   4.677  0.0499  0.6651  0.8154
 1682TIP3   OH226460   4.685   0.299   2.167  0.3150  0.3591 -0.1187
 1682TIP3    H126461   4.651   0.268   2.251 -0.8532  1.2984 -0.2338
 1682TIP3    H226462   4.766   0.345   2.190  0.1897  0.3038  0.4495
 1683TIP3   OH226463   5.769   5.474   5.075  0.3413 -0.0172 -0.4658
 1683TIP3    H126464   5.776   5.526   4.995 -0.4981 -1.8346 -1.7495
 1683TIP3    H226465   5.675   5.471   5.093  0.2173 -2.3519 -1.3022
 1684TIP3   OH226466   4.624   1.684   5.043 -0.3110 -0.5563  0.1654
 1684TIP3    H126467   4.680   1.616   5.080  1.1636  0.5105 -0.0675
 1684TIP3    H226468   4.578   1.640   4.971 -0.2919 -1.6211  0.7944
 1685TIP3   OH226469   3.736   1.192   5.402  0.5423  0.2953  0.0558
 1685TIP3    H126470   3.803   1.240   5.353  0.2682 -0.9675 -1.6020
 1685TIP3    H226471   3.784   1.126   5.451  0.5598 -0.6289 -1.1566
 1686TIP3   OH226472   3.567   0.368  13.910  0.3594  0.4806  0.3191
 1686TIP3    H126473   3.526   0.330  13.987  0.6911  2.6632  1.6081
 1686TIP3    H226474   3.661   0.362  13.927  0.4139  3.1583  1.2485
 1687TIP3   OH226475   4.582   4.418  14.235 -0.1814 -0.1148 -0.0382
 1687TIP3    H126476   4.546   4.454  14.316  0.0570 -0.4232  0.2054
 1687TIP3    H226477   4.572   4.323  14.244  1.0333 -0.2316  0.1997
 1688TIP3   OH226478   5.019   3.949   3.061  0.7574 -0.2470 -0.2947
 1688TIP3    H126479   4.977   4.033   3.047 -1.2974 -0.9989  1.0971
 1688TIP3    H226480   5.089   3.967   3.124 -0.3614  0.2393  0.8255
 1689TIP3   OH226481   2.572   1.165   5.968 -0.6399  0.2602 -0.1936
 1689TIP3    H126482   2.637   1.219   6.013 -0.6221  1.6112 -1.7916
 1689TIP3    H226483   2.509   1.142   6.036 -0.5002  2.0636  0.5863
 1690TIP3   OH226484   2.250   1.546   1.853 -0.4202 -0.5268 -0.2466
 1690TIP3    H126485   2.175   1.501   1.815 -1.2696 -0.4311  1.2973
 1690TIP3    H226486   2.239   1.536   1.948  0.9605  0.3761  0.0233
 1691TIP3   OH226487   3.833   5.837   6.241  0.2615  0.1170  0.1224
 1691TIP3    H126488   3.927   5.848   6.255  0.6188  0.9189 -2.4807
 1691TIP3    H226489   3.824   5.746   6.212  0.5950  0.6612 -1.8168
 1692TIP3   OH226490   3.808   0.052   6.253  0.6101 -0.1348 -0.5591
 1692TIP3    H126491   3.776  -0.008   6.320  2.0154  0.3148  0.5395
 1692TIP3    H226492   3.858  -0.003   6.193  2.0641 -0.0383  0.5552
 1693TIP3   OH226493   2.874   4.198  12.830  0.5036  0.0441 -0.2692
 1693TIP3    H126494   2.925   4.194  12.911 -0.8837 -0.4159  0.5913
 1693TIP3    H226495   2.813   4.124  12.836  0.1786  0.1957 -1.5885
 1694TIP3   OH226496   1.470   3.044   1.808  0.1553 -0.2643  0.1134
 1694TIP3    H126497   1.383   3.035   1.847 -0.0599  0.1308 -0.2662
 1694TIP3    H226498   1.468   3.130   1.764 -0.0232 -1.2336 -1.8306
 1695TIP3   OH226499   2.398   6.108  12.827  0.4688 -0.5414  0.0096
 1695TIP3    H126500   2.315   6.113  12.779 -0.7532  1.2264  2.2012
 1695TIP3    H226501   2.454   6.173  12.785 -1.2409  2.3900  2.0304
 1696TIP3   OH226502   6.135   2.309  16.552 -0.2762  0.4783  0.0021
 1696TIP3    H126503   6.175   2.329  16.637 -0.4102  1.5217 -0.1756
 1696TIP3    H226504   6.201   2.256  16.507  0.4174  1.1658  0.1843
 1697TIP3   OH226505   3.428   6.311   2.292  0.4921 -0.3853 -0.2242
 1697TIP3    H126506   3.354   6.314   2.352  0.2470  0.8356 -0.5738
 1697TIP3    H226507   3.505   6.316   2.349  0.3211 -1.6110  0.1342
 1698TIP3   OH226508   4.284   5.619   0.375 -0.2827 -0.3113 -0.3259
 1698TIP3    H126509   4.338   5.543   0.356 -0.3512 -0.4272 -0.0516
 1698TIP3    H226510   4.321   5.657   0.454 -0.6794 -0.4649 -0.0655
 1699TIP3   OH226511   1.192   4.755   0.155  0.0304  0.1906  0.4984
 1699TIP3    H126512   1.269   4.706   0.183 -0.0711 -0.0546  0.3473
 1699TIP3    H226513   1.118   4.698   0.178 -0.0577  0.0371 -0.1783
 1700TIP3   OH226514   3.056   3.121   1.188 -0.2745 -0.5626  0.3969
 1700TIP3    H126515   3.073   3.049   1.128 -2.4270 -2.5240  2.0309
 1700TIP3    H226516   2.968   3.152   1.164 -0.4329 -0.2189  1.3924
 1701TIP3   OH226517   6.367   4.781   2.298 -0.5055  0.0899 -0.0145
 1701TIP3    H126518   6.307   4.785   2.224 -2.6190  1.2958  1.7023
 1701TIP3    H226519   6.382   4.872   2.323  0.7402 -0.2700  0.6198
 1702TIP3   OH226520   4.956   4.935  14.758  0.2955  0.6028  0.1572
 1702TIP3    H126521   5.001   4.857  14.789  0.5478  0.6931  0.0150
 1702TIP3    H226522   4.905   4.905  14.682  0.2189  0.5294  0.2389
 1703TIP3   OH226523   4.096   2.662   3.197 -0.0534  0.0863 -0.5546
 1703TIP3    H126524   4.087   2.602   3.123  1.2874 -1.9132  0.8373
 1703TIP3    H226525   4.007   2.675   3.228 -0.2763 -2.1745 -0.1562
 1704TIP3   OH226526   6.424   5.633   4.163  0.8800  0.1928  0.6403
 1704TIP3    H126527   6.413   5.668   4.075  0.6276  1.9898  1.3812
 1704TIP3    H226528   6.519   5.637   4.179  1.0075 -0.8281  0.1786
 1705TIP3   OH226529   4.319   4.926   4.939  0.3649  1.1690 -0.0757
 1705TIP3    H126530   4.275   4.842   4.949 -0.0955  1.2765 -1.1023
 1705TIP3    H226531   4.254   4.982   4.897  1.2696  1.5268 -1.0094
 1706TIP3   OH226532   0.710   5.468   1.517 -0.1838  0.2013  0.1817
 1706TIP3    H126533   0.753   5.424   1.444 -0.0661  0.1728  0.2675
 1706TIP3    H226534   0.761   5.548   1.530 -0.1727  0.1810  0.2651
 1707TIP3   OH226535   0.898   0.233   1.768  0.3511  0.7828  0.3941
 1707TIP3    H126536   0.840   0.309   1.766 -1.0234 -0.2356  0.3603
 1707TIP3    H226537   0.863   0.179   1.839  2.5005  1.0814  1.7147
 1708TIP3   OH226538   6.386   0.360  16.465  0.1447 -0.1470 -0.2570
 1708TIP3    H126539   6.359   0.444  16.503 -0.9534 -0.1827 -0.9130
 1708TIP3    H226540   6.468   0.379  16.420 -0.6728  0.8786 -1.3769
 1709TIP3   OH226541   5.904   5.849  15.329 -0.2787 -0.0571  0.4135
 1709TIP3    H126542   5.820   5.854  15.374 -0.7085  0.4581 -0.4290
 1709TIP3    H226543   5.963   5.902  15.382 -1.0923  1.6031 -0.3104
 1710TIP3   OH226544   3.023   0.885   0.314  0.0888 -0.3890 -0.0397
 1710TIP3    H126545   2.961   0.831   0.267 -0.7230  0.5578 -0.0729
 1710TIP3    H226546   2.988   0.891   0.403  0.7132 -0.7590  0.2387
 1711TIP3   OH226547   4.749   4.089   3.793 -0.3678 -0.3470  0.1312
 1711TIP3    H126548   4.791   4.041   3.864  0.4328  0.4344  0.1874
 1711TIP3    H226549   4.808   4.076   3.718 -0.1157  0.6022  0.1670
 1712TIP3   OH226550   4.999   4.944  15.666 -0.3488  0.3276  0.0171
 1712TIP3    H126551   4.920   4.932  15.613 -0.3242 -1.4087  0.3254
 1712TIP3    H226552   4.967   4.958  15.755 -0.3609 -3.9231  0.8255
 1713TIP3   OH226553   1.099   1.025  10.996 -0.2508  0.3055  0.1784
 1713TIP3    H126554   1.150   1.103  10.978  1.8520 -1.1399 -0.3161
 1713TIP3    H226555   1.108   0.971  10.918 -2.1404 -0.2058  0.2827
 1714TIP3   OH226556   1.313   6.160   1.278 -0.6212  0.2569 -0.6706
 1714TIP3    H126557   1.254   6.212   1.222  0.0633 -0.5753 -2.1920
 1714TIP3    H226558   1.254   6.099   1.323 -1.0515  0.1812 -1.3259
 1715TIP3   OH226559   4.032   3.478   0.186  0.4695  0.2624 -0.7021
 1715TIP3    H126560   4.062   3.488   0.096  3.0734  0.6785  0.1739
 1715TIP3    H226561   4.075   3.398   0.217 -0.5427  0.0197  0.1106
 1716TIP3   OH226562   4.830   6.752  15.274  0.0779  0.3657  0.3758
 1716TIP3    H126563   4.892   6.811  15.231  0.3775  0.3668  0.7990
 1716TIP3    H226564   4.808   6.687  15.208 -1.8051  2.0920 -0.7393
 1717TIP3   OH226565   1.158   5.229   4.775  0.5520  0.9043  0.6290
 1717TIP3    H126566   1.101   5.159   4.805 -0.0599  0.4096 -1.5727
 1717TIP3    H226567   1.231   5.184   4.732 -0.0768  1.5957 -1.2034
 1718TIP3   OH226568   0.641   0.345   6.165 -0.1127 -0.2499  0.0079
 1718TIP3    H126569   0.676   0.411   6.225 -2.4593  0.4623  0.6494
 1718TIP3    H226570   0.617   0.395   6.086 -0.3924 -0.6060 -0.1317
 1719TIP3   OH226571   3.248   5.958  13.576 -0.4578  1.0240 -0.1512
 1719TIP3    H126572   3.334   5.976  13.539 -0.8283 -0.0219 -1.5421
 1719TIP3    H226573   3.202   5.908  13.509 -1.6089  0.2343  1.1817
 1720TIP3   OH226574   2.028   3.359  11.872  0.2472  0.6153 -0.1038
 1720TIP3    H126575   1.980   3.277  11.881  0.6543  0.6919  3.4587
 1720TIP3    H226576   2.033   3.374  11.777 -1.8288 -2.2533 -0.7241
 1721TIP3   OH226577   3.188   4.344   5.249 -0.7548 -0.0723  0.8235
 1721TIP3    H126578   3.152   4.258   5.272 -0.7115 -0.3339 -0.0539
 1721TIP3    H226579   3.177   4.349   5.154  1.8674 -0.3332  0.4691
 1722TIP3   OH226580   6.223   2.212   2.413  0.4671 -0.2810  0.6582
 1722TIP3    H126581   6.202   2.256   2.330 -1.4345  0.2393  1.3673
 1722TIP3    H226582   6.246   2.284   2.472  3.5599 -0.7912  0.1284
 1723TIP3   OH226583   3.660   0.374  16.641  0.2636 -0.3400 -0.6824
 1723TIP3    H126584   3.745   0.380  16.598  0.7859  2.1157  0.5850
 1723TIP3    H226585   3.675   0.314  16.715  0.7501 -0.3625 -0.7999
 1724TIP3   OH226586   2.512   4.849   5.700  0.7332 -0.1709  0.0796
 1724TIP3    H126587   2.547   4.806   5.622 -3.0594 -0.2248 -1.7209
 1724TIP3    H226588   2.466   4.779   5.748 -0.0725  0.5853  0.4343
 1725TIP3   OH226589   2.235   3.446   2.164  0.6733 -0.6209 -0.3360
 1725TIP3    H126590   2.327   3.418   2.169  0.6430 -0.7739 -0.6398
 1725TIP3    H226591   2.207   3.450   2.255  1.8819  2.3944 -0.0462
 1726TIP3   OH226592   2.905   4.589  11.517 -0.4933 -0.3360  0.1494
 1726TIP3    H126593   2.921   4.551  11.430 -1.9482 -0.1827 -0.2069
 1726TIP3    H226594   2.817   4.626  11.510 -1.0642 -1.2709  2.0263
 1727TIP3   OH226595   2.933   1.245   0.541 -0.5460 -0.1041 -0.1730
 1727TIP3    H126596   2.927   1.339   0.524  0.7759  0.1698  0.7633
 1727TIP3    H226597   2.861   1.227   0.602 -1.2331  0.1670 -0.9085
 1728TIP3   OH226598   3.701   2.412   0.523  0.1348  0.0307  0.0030
 1728TIP3    H126599   3.756   2.458   0.460  1.2656  0.5190  1.3238
 1728TIP3    H226600   3.750   2.332   0.544  0.1460  0.2459  0.8335
 1729TIP3   OH226601   4.222   3.717  15.834 -0.2118  0.0341 -0.4973
 1729TIP3    H126602   4.290   3.650  15.830 -0.0558  0.2722 -2.8615
 1729TIP3    H226603   4.271   3.800  15.837 -0.4035  0.0847  1.6038
 1730TIP3   OH226604   4.941   5.491   3.508  0.8078 -0.1493  0.7373
 1730TIP3    H126605   4.997   5.514   3.581  1.4993  0.0760  0.1443
 1730TIP3    H226606   4.953   5.562   3.445  1.8412 -1.3853 -0.4997
 1731TIP3   OH226607   0.787   4.488   3.901 -0.3554 -0.2076 -0.0875
 1731TIP3    H126608   0.808   4.509   3.992 -0.2423  1.4715 -0.4901
 1731TIP3    H226609   0.870   4.455   3.865  0.1077  0.9701 -0.1102
 1732TIP3   OH226610   5.899   1.489   0.438 -0.4721  0.3554 -0.3097
 1732TIP3    H126611   5.837   1.503   0.367 -0.6799 -3.2569 -0.9756
 1732TIP3    H226612   5.845   1.483   0.517 -0.8604 -1.2678 -0.6778
 1733TIP3   OH226613   3.697   1.207  16.769 -0.4254 -0.2546  0.1532
 1733TIP3    H126614   3.678   1.114  16.755  1.0250 -0.7697  1.4270
 1733TIP3    H226615   3.791   1.215  16.755 -0.2772  0.7180  1.5202
 1734TIP3   OH226616   1.991   1.600  13.920  0.0124 -0.2878 -0.0907
 1734TIP3    H126617   1.942   1.682  13.931  0.9512  0.4483 -1.2188
 1734TIP3    H226618   1.948   1.556  13.847  0.5249 -0.0299 -0.5464
 1735TIP3   OH226619   3.571   4.497   4.059 -0.7855  0.1205  0.2926
 1735TIP3    H126620   3.661   4.473   4.040 -1.7580 -2.4509 -1.3825
 1735TIP3    H226621   3.543   4.435   4.127 -1.7736 -0.2071 -0.3903
 1736TIP3   OH226622   5.070   3.715   5.716 -0.2476 -0.3476 -0.1043
 1736TIP3    H126623   5.100   3.736   5.628 -0.2535  0.0941 -0.0036
 1736TIP3    H226624   5.078   3.797   5.764  0.2717 -0.7255  0.4537
 1737TIP3   OH226625   4.314   2.716   2.052  0.6894  0.7386 -0.1353
 1737TIP3    H126626   4.369   2.638   2.041  0.5202  0.6292 -0.2072
 1737TIP3    H226627   4.330   2.744   2.142 -1.4411 -1.0730  0.8656
 1738TIP3   OH226628   0.185   0.651  12.023 -0.1627 -0.0086  0.0001
 1738TIP3    H126629   0.163   0.694  12.106 -0.9797  1.4346 -0.9362
 1738TIP3    H226630   0.261   0.701  11.991 -2.5698  2.3951 -2.2640
 1739TIP3   OH226631   2.689   4.452   5.310 -1.2174 -0.1076  0.2859
 1739TIP3    H126632   2.731   4.406   5.237 -1.6750 -1.3921  0.8269
 1739TIP3    H226633   2.758   4.509   5.344 -1.2730  1.2624 -1.7646
 1740TIP3   OH226634   4.264   3.720   0.202  0.2132 -0.1074  0.4620
 1740TIP3    H126635   4.317   3.752   0.128  1.0567  1.1415  1.5909
 1740TIP3    H226636   4.241   3.630   0.177 -3.1590  1.6127 -3.3075
 1741TIP3   OH226637   0.418   1.404  14.134 -0.2637  0.5863  0.5186
 1741TIP3    H126638   0.365   1.324  14.136 -0.2635  0.5763  0.0753
 1741TIP3    H226639   0.355   1.475  14.146 -0.2083  0.5010  1.4151
 1742TIP3   OH226640   4.945   5.151   2.106  0.5873  0.0906 -0.0887
 1742TIP3    H126641   4.997   5.105   2.172  2.0579  1.2486 -0.4342
 1742TIP3    H226642   4.905   5.080   2.055  0.8190 -0.8096  0.9482
 1743TIP3   OH226643   6.414   1.750   4.994  0.2909  0.0514  0.1912
 1743TIP3    H126644   6.447   1.836   5.021  0.0579  0.1407  0.1901
 1743TIP3    H226645   6.448   1.738   4.905  1.4197 -0.4288  0.6779
 1744TIP3   OH226646   4.915   2.889   6.162 -0.1973 -0.1933  0.4884
 1744TIP3    H126647   4.921   2.883   6.257  0.4128  1.0301  0.5302
 1744TIP3    H226648   4.858   2.815   6.137 -0.0268 -0.7622  1.7489
 1745TIP3   OH226649   5.332   5.484  16.092  0.1602 -0.3386 -0.5948
 1745TIP3    H126650   5.312   5.545  16.020  1.4138  0.8225  0.0134
 1745TIP3    H226651   5.418   5.512  16.123 -0.4689 -0.6841  1.5143
 1746TIP3   OH226652   3.759   3.593  14.945  0.2866 -0.3937 -0.0579
 1746TIP3    H126653   3.749   3.590  15.040 -0.5732  0.7693 -0.0874
 1746TIP3    H226654   3.705   3.668  14.918  3.0780  1.3285 -1.1215
 1747TIP3   OH226655   0.754   6.651   1.785  0.5366 -0.8215 -0.0785
 1747TIP3    H126656   0.665   6.656   1.750  0.0502 -0.4842  1.1796
 1747TIP3    H226657   0.763   6.731   1.838  1.6722 -0.7319 -0.3975
 1748TIP3   OH226658   5.549   1.013  16.067 -0.4124 -0.9008  0.1060
 1748TIP3    H126659   5.581   0.976  15.985 -1.8337 -1.0755 -0.3726
 1748TIP3    H226660   5.455   1.021  16.055 -0.3963  0.9394  0.9849
 1749TIP3   OH226661   4.906   4.861  14.202 -0.0300  0.7878 -0.0188
 1749TIP3    H126662   4.886   4.768  14.201  0.2789  0.7129 -2.4021
 1749TIP3    H226663   4.821   4.905  14.206 -0.2696  0.4074 -0.8926
 1750TIP3   OH226664   4.356   5.366   0.501 -0.4953  0.8912 -0.3518
 1750TIP3    H126665   4.371   5.345   0.593  1.7284 -0.7795 -1.0451
 1750TIP3    H226666   4.276   5.319   0.478  0.4731 -0.9745  0.0204
 1751TIP3   OH226667   1.119   4.170  12.817 -0.1617 -0.1173  0.0889
 1751TIP3    H126668   1.110   4.257  12.858  1.1309  0.1336 -0.1298
 1751TIP3    H226669   1.210   4.145  12.835 -0.4993 -1.3819  0.0507
 1752TIP3   OH226670   5.263   5.316   0.962  0.3278  0.1692  0.2532
 1752TIP3    H126671   5.263   5.402   0.920  0.5616  0.3029  0.5224
 1752TIP3    H226672   5.304   5.258   0.898 -0.3956  0.1297 -0.1819
 1753TIP3   OH226673   4.789   0.165  11.788 -0.3791 -0.3132 -0.1900
 1753TIP3    H126674   4.874   0.144  11.749 -1.0115 -3.0584 -0.2028
 1753TIP3    H226675   4.810   0.198  11.875  0.6781 -1.8914  0.1796
 1754TIP3   OH226676   1.866   0.381  14.969  0.0511  0.0795 -0.3977
 1754TIP3    H126677   1.842   0.290  14.989  1.4171  0.0584  1.3044
 1754TIP3    H226678   1.831   0.432  15.042  0.3393  0.7523 -0.7262
 1755TIP3   OH226679   3.290   1.363  12.758 -0.7117  0.0181 -0.4118
 1755TIP3    H126680   3.338   1.392  12.835 -1.4582  1.9982 -0.6740
 1755TIP3    H226681   3.354   1.312  12.708  0.0380 -0.4725  1.0365
 1756TIP3   OH226682   1.654   2.615  11.226  0.4265 -0.4021 -0.4642
 1756TIP3    H126683   1.630   2.533  11.182  2.1068 -0.4500 -1.3175
 1756TIP3    H226684   1.745   2.602  11.252 -0.1934  0.0666  2.0467
 1757TIP3   OH226685   2.075   3.719   3.069  0.6219  0.1093 -0.2917
 1757TIP3    H126686   2.166   3.728   3.041  0.3620  0.6049 -0.9973
 1757TIP3    H226687   2.072   3.635   3.115  1.5151  0.2589  0.0546
 1758TIP3   OH226688   3.017   5.346   2.635  0.0514  0.4402 -0.2983
 1758TIP3    H126689   3.063   5.426   2.661  1.1319  0.2151 -1.4606
 1758TIP3    H226690   3.026   5.288   2.710 -0.0997  1.1499  0.2717
 1759TIP3   OH226691   4.434   2.133  13.598 -0.4420  0.1328  0.5357
 1759TIP3    H126692   4.440   2.080  13.519  0.8144 -2.3021  2.1965
 1759TIP3    H226693   4.524   2.162  13.614 -0.7391  0.8664  0.9296
 1760TIP3   OH226694   1.838   3.377   4.495  0.2723 -0.0977 -0.2896
 1760TIP3    H126695   1.857   3.438   4.566 -0.1396 -0.6962  0.3431
 1760TIP3    H226696   1.833   3.432   4.417  2.7785  0.2916 -0.2053
 1761TIP3   OH226697   5.985   6.023   6.504  0.8000 -0.1177 -0.2586
 1761TIP3    H126698   6.049   6.000   6.437  2.0996  1.0403  0.5675
 1761TIP3    H226699   6.005   6.114   6.526 -0.7627  0.0734  0.4267
 1762TIP3   OH226700   6.665   5.443  11.602 -0.1167 -0.0063 -0.0089
 1762TIP3    H126701   6.581   5.426  11.558 -0.1802  0.0365  0.0951
 1762TIP3    H226702   6.682   5.365  11.654  0.5218 -0.5240 -0.9900
 1763TIP3   OH226703   0.310   4.336  11.237 -0.4755 -0.5530 -0.1967
 1763TIP3    H126704   0.265   4.352  11.154 -0.2484 -1.3190 -0.4644
 1763TIP3    H226705   0.327   4.242  11.238 -0.2214 -0.5054  0.5898
 1764TIP3   OH226706   1.112   1.595   4.944  0.1839  0.0134 -0.3527
 1764TIP3    H126707   1.109   1.511   4.899  1.8778  1.0107 -2.3785
 1764TIP3    H226708   1.203   1.604   4.974  0.0536  1.1684 -0.2523
 1765TIP3   OH226709   5.272   0.631  11.669 -0.1184  0.2184 -0.4833
 1765TIP3    H126710   5.219   0.586  11.603  0.4074 -1.4034  0.1698
 1765TIP3    H226711   5.339   0.677  11.619  0.8452 -1.7588 -1.0382
 1766TIP3   OH226712   3.700   5.145   3.793 -0.6442  0.4279 -0.1247
 1766TIP3    H126713   3.669   5.059   3.763 -1.5655  0.8699 -0.4542
 1766TIP3    H226714   3.649   5.162   3.873 -0.0285  0.4054  0.2806
 1767TIP3   OH226715   5.432   0.349  11.791 -0.2399  0.0962  0.2660
 1767TIP3    H126716   5.432   0.443  11.810  1.0208  0.0865  0.3595
 1767TIP3    H226717   5.509   0.316  11.837  0.5325 -0.6121 -1.5190
 1768TIP3   OH226718   3.759   0.260  15.074  0.2425  0.0112 -0.0721
 1768TIP3    H126719   3.750   0.225  14.986 -1.6281  0.5272 -0.1097
 1768TIP3    H226720   3.718   0.194  15.130  0.0417  0.4078  0.2483
 1769TIP3   OH226721   6.105   5.140  16.974 -0.4653 -0.5423 -0.3731
 1769TIP3    H126722   6.160   5.170  16.902  0.1027 -0.4957  0.0715
 1769TIP3    H226723   6.168   5.114  17.042 -0.9327 -2.7683 -0.7530
 1770TIP3   OH226724   0.946   4.237   4.340 -0.3445  0.3847  0.3354
 1770TIP3    H126725   0.958   4.152   4.383  0.1431  0.9564  1.3566
 1770TIP3    H226726   1.008   4.295   4.384  0.3123  0.9489 -1.2839
 1771TIP3   OH226727   0.028   5.015   5.573  0.3894  0.0882  0.0144
 1771TIP3    H126728   0.011   4.990   5.483 -0.8420  0.6784  0.0675
 1771TIP3    H226729  -0.000   5.106   5.578 -0.6945 -0.2955  1.2822
 1772TIP3   OH226730   0.647   0.672   0.699  0.4367 -0.3802 -0.0843
 1772TIP3    H126731   0.559   0.635   0.710  0.4049 -0.1332  0.4787
 1772TIP3    H226732   0.696   0.642   0.776  0.5600  0.3149  0.1097
 1773TIP3   OH226733   3.668   2.543   1.764 -0.0794 -0.3686  0.1968
 1773TIP3    H126734   3.613   2.491   1.823 -0.1507  0.2011  0.6414
 1773TIP3    H226735   3.606   2.588   1.707 -0.0254 -0.6310 -0.0676
 1774TIP3   OH226736   3.232   0.546  12.776  0.2378  0.2208  0.3431
 1774TIP3    H126737   3.254   0.509  12.690 -0.2017 -0.5371  0.5559
 1774TIP3    H226738   3.226   0.470  12.834 -1.7939  0.4985  0.5401
 1775TIP3   OH226739   4.488   1.827   0.733 -0.4747 -0.0656  0.2665
 1775TIP3    H126740   4.478   1.760   0.800  0.5815 -0.3211  0.1779
 1775TIP3    H226741   4.431   1.797   0.661 -0.5845 -0.4761  0.5210
 1776TIP3   OH226742   1.942   2.472   1.651 -0.5355 -0.0884 -0.1645
 1776TIP3    H126743   1.973   2.556   1.687 -2.4754  0.0976  1.1625
 1776TIP3    H226744   2.022   2.422   1.634  0.5385  0.9175  1.7789
 1777TIP3   OH226745   1.916   0.475  16.263  0.1639 -0.0110 -0.6107
 1777TIP3    H126746   1.927   0.495  16.356 -0.7472 -2.6970  0.0978
 1777TIP3    H226747   1.992   0.421  16.241 -0.2610 -0.3908 -1.1327
 1778TIP3   OH226748   4.653   2.319   6.238  0.6336  0.5003 -0.2313
 1778TIP3    H126749   4.716   2.256   6.272 -0.9087 -2.0262 -1.9252
 1778TIP3    H226750   4.700   2.363   6.167  1.3677  0.5641  0.2841
 1779TIP3   OH226751   6.076   3.527   3.674 -0.0735  0.2823 -0.4057
 1779TIP3    H126752   6.010   3.459   3.661 -0.4624  0.5351  0.1901
 1779TIP3    H226753   6.035   3.588   3.735  0.3311  0.9747 -0.8205
 1780TIP3   OH226754   3.182   1.144   0.417 -0.3573  0.1206  0.0812
 1780TIP3    H126755   3.092   1.114   0.419 -0.2579 -0.2912 -1.2725
 1780TIP3    H226756   3.204   1.160   0.509 -1.9352  0.6516  0.3712
 1781TIP3   OH226757   2.338   2.821  16.717 -0.3824  0.4384  0.1695
 1781TIP3    H126758   2.416   2.822  16.773  0.6061  0.9408 -1.1667
 1781TIP3    H226759   2.286   2.895  16.747  1.2497  2.1192 -1.0659
 1782TIP3   OH226760   4.804   5.719   0.146  0.0916 -0.2467  0.2352
 1782TIP3    H126761   4.744   5.644   0.147 -3.7943  2.6263 -0.9355
 1782TIP3    H226762   4.787   5.764   0.229  1.4583  0.0020  0.3816
 1783TIP3   OH226763   5.257   4.825   0.290 -0.3276  0.6152  0.4876
 1783TIP3    H126764   5.327   4.832   0.225 -0.9334  1.6926 -0.0704
 1783TIP3    H226765   5.300   4.787   0.367  1.0014  1.6887  0.3162
 1784TIP3   OH226766   1.760   6.102   0.032  0.0543  0.1006  0.1655
 1784TIP3    H126767   1.771   6.136  -0.057 -0.9490 -0.0759 -0.0301
 1784TIP3    H226768   1.666   6.095   0.044  0.1953 -0.4484  1.0293
 1785TIP3   OH226769   5.441   0.513  14.012  0.0835 -0.1720 -0.2415
 1785TIP3    H126770   5.531   0.510  13.979  0.0315  0.2935 -0.4284
 1785TIP3    H226771   5.418   0.606  14.010 -0.4115 -0.2940 -0.2167
 1786TIP3   OH226772   4.693   2.222  12.472 -0.2281  0.0389 -0.0963
 1786TIP3    H126773   4.665   2.139  12.433 -0.4712 -0.8810  1.9598
 1786TIP3    H226774   4.612   2.269  12.490 -0.2260 -0.4180  1.1451
 1787TIP3   OH226775   2.529   5.241   1.649 -0.0483  0.3193 -0.1846
 1787TIP3    H126776   2.474   5.319   1.637  1.9432  1.2562 -4.2054
 1787TIP3    H226777   2.611   5.275   1.685 -0.3164 -0.4063  1.1492
 1788TIP3   OH226778   1.733   1.807   6.271  0.5112  0.0048  0.3605
 1788TIP3    H126779   1.779   1.734   6.313  2.7816  1.4884  0.4702
 1788TIP3    H226780   1.718   1.777   6.181  0.1241 -1.1565  0.7967
 1789TIP3   OH226781   5.555   3.550   4.064  0.3045  0.3259 -0.8500
 1789TIP3    H126782   5.519   3.628   4.106  2.7613  1.3834 -0.5930
 1789TIP3    H226783   5.561   3.574   3.972 -0.5641 -0.2243 -1.0585
 1790TIP3   OH226784   6.060   0.447   0.557 -0.0332  0.4690  0.7470
 1790TIP3    H126785   5.966   0.451   0.536  0.2707  0.6939 -0.6022
 1790TIP3    H226786   6.100   0.409   0.479  0.9771  0.1427  1.4227
 1791TIP3   OH226787   2.732   1.512   0.333 -0.2986 -0.0882 -0.5161
 1791TIP3    H126788   2.753   1.566   0.409 -1.2989 -1.3140  0.6488
 1791TIP3    H226789   2.639   1.491   0.343 -0.1654 -1.1953 -1.4726
 1792TIP3   OH226790   4.830   4.861   0.080 -0.3518 -0.1568 -0.4043
 1792TIP3    H126791   4.812   4.767   0.078  2.3965 -0.7344  0.6459
 1792TIP3    H226792   4.909   4.871   0.027 -0.4385  1.5431 -0.2366
 1793TIP3   OH226793   5.471   5.538  13.819 -0.5366  0.3364  0.1290
 1793TIP3    H126794   5.495   5.448  13.801 -1.8450  0.2019 -0.9797
 1793TIP3    H226795   5.437   5.572  13.737 -0.0325  1.8664  0.5174
 1794TIP3   OH226796   1.441   4.818  11.722  0.1198  0.4597  0.9212
 1794TIP3    H126797   1.364   4.869  11.745  0.7619  1.0578  1.7990
 1794TIP3    H226798   1.428   4.792  11.631 -1.2241  0.3503  1.1416
 1795TIP3   OH226799   0.064   4.688   3.546  0.2056  0.4306  0.0720
 1795TIP3    H126800   0.049   4.685   3.641  0.3374  2.2253  0.1677
 1795TIP3    H226801   0.134   4.753   3.535 -0.0220  0.4612 -1.2753
 1796TIP3   OH226802   5.794   6.431   0.183 -0.0070  0.0564 -0.0388
 1796TIP3    H126803   5.737   6.355   0.179 -0.0432  0.0724  0.1975
 1796TIP3    H226804   5.745   6.496   0.234  0.7155 -0.3614  1.2248
 1797TIP3   OH226805   0.863   4.304  16.455  0.1326 -0.2390 -0.3218
 1797TIP3    H126806   0.946   4.255  16.453 -0.0492 -0.5146 -1.6655
 1797TIP3    H226807   0.811   4.260  16.521  0.0534 -1.7485 -1.3647
 1798TIP3   OH226808   3.477   0.689   1.931 -0.3814  0.1693  0.1701
 1798TIP3    H126809   3.441   0.700   2.019  0.9178  0.6309  0.6577
 1798TIP3    H226810   3.556   0.637   1.943 -0.5801 -0.3781 -0.8191
 1799TIP3   OH226811   0.309   3.189  15.967  0.3471 -0.8015 -0.3069
 1799TIP3    H126812   0.247   3.133  16.014  0.3613  0.4587  1.2607
 1799TIP3    H226813   0.258   3.267  15.946  0.7828 -0.7065 -0.9895
 1800TIP3   OH226814   3.649   1.614  16.381 -0.0099 -0.1216  0.1723
 1800TIP3    H126815   3.714   1.684  16.368 -1.1834  1.3927  2.2005
 1800TIP3    H226816   3.631   1.615  16.475  0.1388 -3.3640  0.2900
 1801TIP3   OH226817   3.516   0.665  11.048  0.0133  0.1156 -0.1200
 1801TIP3    H126818   3.501   0.697  10.959 -1.8271 -0.3910  0.0005
 1801TIP3    H226819   3.491   0.573  11.045  1.0530 -0.1958  0.6489
 1802TIP3   OH226820   3.343   3.015  16.384  0.2056  0.0318  0.2536
 1802TIP3    H126821   3.283   3.063  16.328  1.3959 -1.6362 -2.5708
 1802TIP3    H226822   3.419   3.072  16.393  1.3445 -0.9247 -2.5581
 1803TIP3   OH226823   4.984   0.413  17.046 -0.2145  0.4133 -0.0592
 1803TIP3    H126824   5.041   0.350  17.002  1.6307  1.0514  1.3571
 1803TIP3    H226825   4.935   0.454  16.975 -0.3733 -1.5462 -1.1325
 1804TIP3   OH226826   5.500   5.909  15.019 -0.5144  0.3595 -0.8013
 1804TIP3    H126827   5.584   5.954  15.008  0.0557 -0.0460  1.7225
 1804TIP3    H226828   5.502   5.874  15.108 -1.9497 -2.5799 -1.8571
 1805TIP3   OH226829   6.617   1.951   4.019 -0.1824 -0.5820  0.1625
 1805TIP3    H126830   6.660   2.001   4.088 -1.6582  1.2774 -0.2200
 1805TIP3    H226831   6.537   2.001   4.000  1.0906 -0.0002 -4.1975
 1806TIP3   OH226832   0.986   5.487   0.679  0.2710 -0.0639 -0.3326
 1806TIP3    H126833   0.943   5.405   0.655 -0.0805  0.3414 -1.1398
 1806TIP3    H226834   0.930   5.524   0.747 -1.1664  0.8582 -1.9521
 1807TIP3   OH226835   2.253   3.836   5.729 -0.3554 -0.0628 -0.1906
 1807TIP3    H126836   2.299   3.917   5.704  0.4603 -0.2250  0.7703
 1807TIP3    H226837   2.269   3.827   5.823 -1.5946 -0.6181 -0.0284
 1808TIP3   OH226838   3.001   0.190   2.818  0.0303 -0.2105  0.2824
 1808TIP3    H126839   3.034   0.173   2.906  1.9354  0.2100 -0.3314
 1808TIP3    H226840   2.977   0.283   2.818  1.0403  0.0523  0.0447
 1809TIP3   OH226841   3.900   0.252  13.137 -0.0818 -0.0842 -0.0243
 1809TIP3    H126842   3.830   0.218  13.081 -0.1594 -1.8914  1.1402
 1809TIP3    H226843   3.859   0.262  13.222  0.7457  0.0699  0.3579
 1810TIP3   OH226844   0.251   0.905  13.245 -0.1461  0.5600  0.3724
 1810TIP3    H126845   0.314   0.939  13.181  0.0581 -0.0171  0.2602
 1810TIP3    H226846   0.226   0.820  13.209 -0.2421  0.3595  0.9246
 1811TIP3   OH226847   5.274   4.033  12.235 -0.0392  0.4298  0.1255
 1811TIP3    H126848   5.230   3.990  12.162 -1.7786  1.7796  0.3292
 1811TIP3    H226849   5.283   4.124  12.207  0.3916  0.6918  1.0787
 1812TIP3   OH226850   0.988   0.249  16.607  0.1600 -0.4302  0.7524
 1812TIP3    H126851   0.993   0.221  16.698  0.3110  0.6498  1.0811
 1812TIP3    H226852   1.063   0.208  16.564  0.9426  0.2568  1.4467
 1813TIP3   OH226853   5.940   1.806   6.437  0.2094  0.4185  0.0529
 1813TIP3    H126854   5.906   1.776   6.353  1.0880  2.5598 -1.1099
 1813TIP3    H226855   6.013   1.747   6.456 -0.5270 -0.5986 -0.2467
 1814TIP3   OH226856   0.123   5.204   1.013  0.2338  0.6905  0.1281
 1814TIP3    H126857   0.173   5.183   0.935  4.8458 -0.2985  3.1419
 1814TIP3    H226858   0.062   5.131   1.024 -1.1086  1.2706 -2.8866
 1815TIP3   OH226859   2.747   3.045  17.053 -0.2993 -0.7442  0.0980
 1815TIP3    H126860   2.768   2.951  17.046 -1.4543 -0.9057 -1.5638
 1815TIP3    H226861   2.825   3.089  17.019 -0.0722 -1.1268  0.1085
 1816TIP3   OH226862   2.596   4.173  12.379 -0.8465  0.2965 -0.2583
 1816TIP3    H126863   2.586   4.082  12.404 -0.5187  0.6312  1.1036
 1816TIP3    H226864   2.514   4.215  12.404  0.1469  0.9999  1.9742
 1817TIP3   OH226865   2.617   1.489  16.011 -0.4770 -0.2346 -0.0267
 1817TIP3    H126866   2.612   1.574  15.967 -0.6261  0.0758  0.5698
 1817TIP3    H226867   2.639   1.511  16.102  1.7437 -0.9765 -0.3514
 1818TIP3   OH226868   4.080   1.009  17.061  0.3473 -0.4922 -0.0635
 1818TIP3    H126869   4.158   0.974  17.103 -0.4961 -0.5236  1.5076
 1818TIP3    H226870   4.017   0.937  17.064 -0.8939  0.6416  1.8257
 1819TIP3   OH226871   3.245   6.093  16.567 -0.1112 -0.1413 -0.0111
 1819TIP3    H126872   3.233   6.032  16.639 -1.7923  2.0603  1.6187
 1819TIP3    H226873   3.166   6.085  16.514  0.9923 -1.5439 -1.5298
 1820TIP3   OH226874   3.403   4.294   0.451 -0.3351  0.5207 -0.5446
 1820TIP3    H126875   3.360   4.259   0.373 -0.8096  0.6537 -0.3402
 1820TIP3    H226876   3.373   4.238   0.523  1.3199 -0.5894 -0.6843
 1821TIP3   OH226877   2.545   3.470   4.564  0.0798  0.0348  0.2400
 1821TIP3    H126878   2.639   3.481   4.578  0.1095  1.7327 -1.1105
 1821TIP3    H226879   2.504   3.543   4.610 -0.6387 -1.1174  1.4403
 1822TIP3   OH226880   6.786   2.213  15.333 -0.2953 -0.3175 -0.2183
 1822TIP3    H126881   6.723   2.214  15.405 -0.7085 -2.4999 -0.5191
 1822TIP3    H226882   6.839   2.135  15.349  0.7307  0.1437 -1.3289
 1823TIP3   OH226883   4.787   4.370  12.281 -0.6612 -0.8237 -0.6773
 1823TIP3    H126884   4.828   4.445  12.324 -0.4060 -0.4049 -1.6210
 1823TIP3    H226885   4.724   4.337  12.344  0.9072 -1.2806  0.6941
 1824TIP3   OH226886   4.294   2.307   3.621  0.4396 -0.1422 -0.6594
 1824TIP3    H126887   4.325   2.368   3.688  1.4904 -0.7233 -0.6098
 1824TIP3    H226888   4.213   2.347   3.589 -0.1224  0.1134  0.9970
 1825TIP3   OH226889   5.848   4.761   1.537 -0.0338  0.2642 -0.2804
 1825TIP3    H126890   5.864   4.675   1.574 -0.4677 -0.5608 -1.9329
 1825TIP3    H226891   5.909   4.819   1.582  0.7588 -1.0382  0.3467
 1826TIP3   OH226892   0.746   3.066   4.594 -0.4147  0.2609 -0.0023
 1826TIP3    H126893   0.680   3.002   4.621 -0.5722  1.1241  1.7062
 1826TIP3    H226894   0.746   3.132   4.663  2.6699 -0.0458  0.4048
 1827TIP3   OH226895   0.485   0.750  16.431 -0.1510 -0.3401  0.7429
 1827TIP3    H126896   0.409   0.794  16.393  0.5863  1.9493  1.7830
 1827TIP3    H226897   0.501   0.675  16.374 -0.1254  2.0067 -2.4551
 1828TIP3   OH226898   3.672   2.570   5.804 -0.2063  0.5638  0.0013
 1828TIP3    H126899   3.606   2.553   5.871 -2.3459  1.9717 -1.6965
 1828TIP3    H226900   3.747   2.604   5.853 -1.2745  0.3902  1.8088
 1829TIP3   OH226901   3.121   0.677  15.428 -0.3394  0.1070 -0.4154
 1829TIP3    H126902   3.174   0.698  15.351  1.2654 -0.4976  0.5032
 1829TIP3    H226903   3.070   0.756  15.444  1.0945  1.1228 -0.6827
 1830TIP3   OH226904   0.716   4.807  12.837  0.2511 -0.2235  0.1329
 1830TIP3    H126905   0.626   4.788  12.811  0.1070  0.3943  0.1725
 1830TIP3    H226906   0.745   4.874  12.776  0.6299 -0.2943  0.2337
 1831TIP3   OH226907   0.008   5.902   0.167  0.3564  0.5464  0.1298
 1831TIP3    H126908   0.043   5.983   0.130 -0.4022  0.4104 -0.8927
 1831TIP3    H226909   0.036   5.834   0.106 -0.0249  0.1940  0.3472
 1832TIP3   OH226910   4.547   4.807  12.309  0.9417  0.3175 -0.1169
 1832TIP3    H126911   4.613   4.776  12.371  0.7502 -0.8487 -0.4870
 1832TIP3    H226912   4.468   4.819  12.361  0.7794 -0.6676 -0.1248
 1833TIP3   OH226913   3.733   3.489   0.254  0.4371 -0.5388  0.3045
 1833TIP3    H126914   3.789   3.444   0.317  1.9521 -2.2476 -2.1783
 1833TIP3    H226915   3.793   3.521   0.187 -1.3111 -0.3376 -1.2016
 1834TIP3   OH226916   5.531   0.709  11.232 -0.0102  0.1577 -0.2320
 1834TIP3    H126917   5.528   0.640  11.166  0.1891 -0.4498  0.3865
 1834TIP3    H226918   5.439   0.729  11.250 -0.0635  0.2768 -0.6504
 1835TIP3   OH226919   5.317   1.701  13.559  0.0889  0.1973 -0.0858
 1835TIP3    H126920   5.375   1.625  13.566  0.2918  0.2023 -1.5575
 1835TIP3    H226921   5.255   1.678  13.490 -0.9095  0.6976  0.6235
 1836TIP3   OH226922   4.839   1.452  15.052  0.0907 -0.0808 -0.1103
 1836TIP3    H126923   4.783   1.462  14.975  2.1607  2.3903 -1.3729
 1836TIP3    H226924   4.884   1.536  15.060  3.0425 -1.6977  1.2807
 1837TIP3   OH226925   6.210   2.711  13.225 -0.8550  0.1842  0.8233
 1837TIP3    H126926   6.165   2.692  13.143  0.9813 -3.3948  0.5618
 1837TIP3    H226927   6.295   2.746  13.199  0.2057 -2.0933  1.1290
 1838TIP3   OH226928   0.662   4.610  11.077 -0.3582 -0.3295 -0.0878
 1838TIP3    H126929   0.647   4.684  11.135 -0.6283 -0.8948  0.5791
 1838TIP3    H226930   0.750   4.623  11.043 -0.5889  0.5410 -0.3374
 1839TIP3   OH226931   1.414   1.544   0.134  0.2496 -0.0602 -0.5610
 1839TIP3    H126932   1.396   1.514   0.223 -0.3297  0.8198 -0.3828
 1839TIP3    H226933   1.332   1.584   0.104  0.7569  0.5696 -1.1196
 1840TIP3   OH226934   5.997   2.025  14.827  0.3595  0.0953  0.0501
 1840TIP3    H126935   5.985   1.977  14.908  0.9822 -0.2204 -0.0387
 1840TIP3    H226936   6.016   1.958  14.762  1.0547  0.4485 -0.1134
 1841TIP3   OH226937   0.894   0.012   1.520 -0.1648  0.0755 -0.4793
 1841TIP3    H126938   0.896   0.074   1.593 -3.0585  0.2431 -0.4872
 1841TIP3    H226939   0.884  -0.074   1.561  0.9167 -0.1097 -0.5869
 1842TIP3   OH226940   4.236   2.011   1.342 -0.3816 -0.0540 -0.2256
 1842TIP3    H126941   4.180   2.072   1.390  0.5224  0.4263  0.2518
 1842TIP3    H226942   4.325   2.033   1.371  0.1152 -0.3258 -1.4863
 1843TIP3   OH226943   4.010   3.617   1.951 -0.4648 -0.3688 -0.2335
 1843TIP3    H126944   4.040   3.528   1.965  0.2321 -0.3159 -1.3575
 1843TIP3    H226945   3.984   3.619   1.859  0.8551  0.9684 -0.5930
 1844TIP3   OH226946   4.601   0.045   6.585  0.0074  0.0504  0.7160
 1844TIP3    H126947   4.512   0.011   6.591  0.4774 -1.9302 -2.1141
 1844TIP3    H226948   4.640   0.025   6.670 -2.2175  0.9816  2.0057
 1845TIP3   OH226949   2.124   5.326  11.967  0.1977  0.0269  0.4312
 1845TIP3    H126950   2.212   5.330  12.005  0.4407  2.5183 -0.2608
 1845TIP3    H226951   2.094   5.417  11.969 -1.9761 -0.6529 -0.2528
 1846TIP3   OH226952   0.235   0.923   2.134  0.1667 -0.9843 -0.1626
 1846TIP3    H126953   0.244   0.927   2.039 -0.4608 -0.2066 -0.1953
 1846TIP3    H226954   0.141   0.921   2.149  0.0648  3.9431  0.5908
 1847TIP3   OH226955   6.576   2.739  17.158 -0.1950 -0.0786  0.3897
 1847TIP3    H126956   6.584   2.657  17.108  2.1706  0.0177  0.5385
 1847TIP3    H226957   6.529   2.798  17.100 -0.2611 -0.9725 -0.4768
 1848TIP3   OH226958   5.478   6.007  12.136 -0.2683  0.0988 -0.2331
 1848TIP3    H126959   5.416   6.072  12.103 -1.4758  1.0508  3.6015
 1848TIP3    H226960   5.556   6.058  12.160  0.6622 -0.5981 -1.6766
 1849TIP3   OH226961   6.542   3.002  15.395  0.3435  0.2239  0.2249
 1849TIP3    H126962   6.520   3.092  15.371  0.5237  0.1426 -0.2460
 1849TIP3    H226963   6.467   2.971  15.444 -0.9501 -0.3438 -2.0737
 1850TIP3   OH226964   0.693   3.421  12.561  0.4493 -0.0421  0.1302
 1850TIP3    H126965   0.616   3.441  12.613 -0.3793  0.0048 -1.0872
 1850TIP3    H226966   0.696   3.325  12.557 -1.3752 -0.0282 -2.4477
 1851TIP3   OH226967   5.168   0.529   6.294  0.3129  0.1689 -0.2793
 1851TIP3    H126968   5.234   0.586   6.256 -0.6583  1.2152 -0.4421
 1851TIP3    H226969   5.094   0.587   6.312 -0.1941 -0.7857  0.8247
 1852TIP3   OH226970   6.513   5.332   6.142  0.0022  0.1981  0.8501
 1852TIP3    H126971   6.501   5.262   6.078  0.4838 -1.5749  2.6535
 1852TIP3    H226972   6.604   5.359   6.132  0.1715 -0.3110  1.0000
 1853TIP3   OH226973   3.039   1.254  12.797 -0.1759 -0.0297  0.2832
 1853TIP3    H126974   3.059   1.180  12.853 -0.6869  0.1676  0.7357
 1853TIP3    H226975   3.124   1.294  12.778  0.3617 -2.0598 -1.8548
 1854TIP3   OH226976   1.249   1.603   5.289  0.1948 -0.5141 -0.5285
 1854TIP3    H126977   1.318   1.639   5.233 -0.8756  2.2596 -0.1709
 1854TIP3    H226978   1.295   1.551   5.354  1.7536 -0.5578 -1.6466
 1855TIP3   OH226979   3.642   6.447  11.938  0.2660 -0.4327 -0.4409
 1855TIP3    H126980   3.659   6.540  11.948 -0.2785 -0.4294  0.4718
 1855TIP3    H226981   3.677   6.407  12.018 -0.4557 -0.8900 -0.3526
 1856TIP3   OH226982   4.124   4.282   3.398  0.2303  0.0950 -0.1076
 1856TIP3    H126983   4.117   4.313   3.488 -0.0221 -1.3674  0.4037
 1856TIP3    H226984   4.218   4.283   3.379  0.2242  1.0934 -0.0780
 1857TIP3   OH226985   6.567   2.354  14.710  0.4538 -0.2153 -0.1900
 1857TIP3    H126986   6.492   2.297  14.691 -1.2358  2.0608 -0.5386
 1857TIP3    H226987   6.584   2.399  14.627  0.5968  1.0983  0.5462
 1858TIP3   OH226988   5.891   6.675  11.434 -0.7318  0.4633  0.2872
 1858TIP3    H126989   5.805   6.682  11.475 -1.1617  0.9189 -0.6893
 1858TIP3    H226990   5.874   6.682  11.341  0.2473 -0.5989  0.0161
 1859TIP3   OH226991   6.099   5.047   4.937 -0.1822 -0.1927 -0.3934
 1859TIP3    H126992   6.018   5.082   4.972  0.2844 -1.3505  1.9421
 1859TIP3    H226993   6.072   4.996   4.860 -1.7402 -1.0236  0.6798
 1860TIP3   OH226994   4.679   5.809   1.608 -0.4240 -0.1286 -0.6208
 1860TIP3    H126995   4.627   5.818   1.527 -0.2754  0.3907 -0.6618
 1860TIP3    H226996   4.642   5.733   1.652 -1.2600  0.2594 -0.6319
 1861TIP3   OH226997   3.190   5.281   3.545  0.3733 -0.1598  0.3753
 1861TIP3    H126998   3.101   5.308   3.521  1.4188  2.0783 -1.0810
 1861TIP3    H226999   3.229   5.249   3.463  0.8252 -1.4862  1.0802
 1862TIP3   OH227000   0.556   4.419   6.371  0.2317  0.1057  0.4451
 1862TIP3    H127001   0.590   4.394   6.285  2.4183 -1.4956  1.7335
 1862TIP3    H227002   0.516   4.339   6.405 -0.9170  0.8157  0.8156
 1863TIP3   OH227003   0.551   6.592   3.202  0.3309  0.2035  0.1166
 1863TIP3    H127004   0.501   6.543   3.267  1.2051 -1.0137 -0.1034
 1863TIP3    H227005   0.489   6.611   3.132  0.5695 -2.9185 -1.0330
 1864TIP3   OH227006   3.152   4.191  14.579  0.0112 -0.1530 -0.2295
 1864TIP3    H127007   3.063   4.222  14.565 -0.2626 -0.4702  0.7613
 1864TIP3    H227008   3.151   4.099  14.553  0.0480 -0.1563 -0.2185
 1865TIP3   OH227009   1.220   0.010  15.145 -0.0402  0.0651  0.0918
 1865TIP3    H127010   1.272  -0.016  15.220 -0.0826 -1.0326 -0.2479
 1865TIP3    H227011   1.262  -0.032  15.070 -0.9693 -0.2209 -0.2818
 1866TIP3   OH227012   1.911   2.558  11.176  0.2142 -0.0576  0.3389
 1866TIP3    H127013   1.976   2.609  11.223  0.5490 -0.4208  0.2778
 1866TIP3    H227014   1.882   2.615  11.105  1.5497 -0.4217 -0.5234
 1867TIP3   OH227015   3.664   6.437  12.447  0.1921 -1.0304  0.5189
 1867TIP3    H127016   3.622   6.367  12.498 -0.5882 -1.2383 -0.4191
 1867TIP3    H227017   3.744   6.457  12.497 -0.9300 -0.7212  2.2196
 1868TIP3   OH227018   2.705   6.728  16.465  0.0735  0.2431 -0.2922
 1868TIP3    H127019   2.785   6.763  16.504 -0.1974  1.1044 -0.4923
 1868TIP3    H227020   2.707   6.634  16.485 -0.1285  0.6784  1.9169
 1869TIP3   OH227021   1.570   6.314  12.601 -0.7150 -0.5324  0.1573
 1869TIP3    H127022   1.574   6.339  12.509 -0.7711 -1.2851 -0.0499
 1869TIP3    H227023   1.633   6.372  12.644  1.6093 -2.2441 -0.8208
 1870TIP3   OH227024   4.332   0.591   5.765 -0.1424 -0.0644  0.0738
 1870TIP3    H127025   4.370   0.638   5.839 -1.0892 -0.6715  0.9562
 1870TIP3    H227026   4.248   0.633   5.750 -0.4565 -0.6717  0.0856
 1871TIP3   OH227027   0.435   5.632  11.190  0.0139  0.3265  0.1864
 1871TIP3    H127028   0.395   5.693  11.128  0.7820  0.5352 -0.1115
 1871TIP3    H227029   0.521   5.670  11.209 -0.4526  0.5835  1.8506
 1872TIP3   OH227030   4.382   4.815   0.427  0.0495 -0.0518  0.0469
 1872TIP3    H127031   4.291   4.829   0.401  0.3875  0.5023 -0.8705
 1872TIP3    H227032   4.408   4.898   0.468  0.3794  0.0558 -0.3853
 1873TIP3   OH227033   3.176   1.703  16.190 -0.1100  0.0740  0.2513
 1873TIP3    H127034   3.247   1.641  16.174 -0.8930 -0.6924 -0.2951
 1873TIP3    H227035   3.125   1.663  16.261 -0.4042  0.2788  0.1569
 1874TIP3   OH227036   6.215   3.034  14.854  0.3051  0.5684 -0.3830
 1874TIP3    H127037   6.205   2.983  14.934  0.3969  0.2765 -0.5575
 1874TIP3    H227038   6.237   3.122  14.884 -0.9827  0.7916 -0.0399
 1875TIP3   OH227039   1.541   2.147   1.485 -0.3927 -0.4438 -0.4470
 1875TIP3    H127040   1.617   2.193   1.520  0.2858 -1.1722 -0.9416
 1875TIP3    H227041   1.466   2.186   1.530  0.1941  0.9246 -0.6341
 1876TIP3   OH227042   4.410   6.366  12.255 -0.1286 -0.5095  0.0353
 1876TIP3    H127043   4.475   6.416  12.207 -1.3483  1.8101  0.7503
 1876TIP3    H227044   4.403   6.283  12.207  2.1873 -0.1811 -0.9173
 1877TIP3   OH227045   4.800   6.304  15.071  0.0758  0.4623  0.2431
 1877TIP3    H127046   4.794   6.208  15.065 -0.9805  0.4575  1.3027
 1877TIP3    H227047   4.780   6.334  14.983 -0.1510 -0.2694  0.0366
 1878TIP3   OH227048   5.616   3.944   1.577 -0.4475 -0.0683 -0.1997
 1878TIP3    H127049   5.526   3.918   1.599 -0.5247 -1.4656 -2.0680
 1878TIP3    H227050   5.606   4.029   1.534 -1.1613 -1.2770 -2.5342
 1879TIP3   OH227051   2.930   5.257  15.536 -0.3199  0.3483  0.1170
 1879TIP3    H127052   2.859   5.303  15.490 -0.7285 -0.3180  0.0744
 1879TIP3    H227053   3.002   5.255  15.474 -0.6752 -0.0417 -0.2875
 1880TIP3   OH227054   5.663   0.255   3.708  0.2379  0.0195 -0.3075
 1880TIP3    H127055   5.593   0.320   3.697 -0.2547 -0.4915 -0.2115
 1880TIP3    H227056   5.738   0.294   3.664 -0.5977 -0.2253 -1.9884
 1881TIP3   OH227057   1.351   2.039   2.283 -0.2353 -0.5752 -0.6811
 1881TIP3    H127058   1.317   2.058   2.371  0.6504 -0.3219 -0.3879
 1881TIP3    H227059   1.275   2.008   2.234 -1.2452  1.5051 -0.4877
 1882TIP3   OH227060   1.506   1.836   1.506  0.0737 -0.1923  0.4803
 1882TIP3    H127061   1.509   1.928   1.530 -2.2588 -0.5664  2.3706
 1882TIP3    H227062   1.470   1.835   1.417 -0.3790  0.6832  0.6580
 1883TIP3   OH227063   1.039   5.417  11.292  0.0001 -0.1053  0.3616
 1883TIP3    H127064   0.988   5.340  11.269 -0.6425  0.5733 -0.5515
 1883TIP3    H227065   1.115   5.414  11.234 -0.3472  0.2671 -0.1260
 1884TIP3   OH227066   3.433   3.782  15.249  0.3785  0.2131  0.2866
 1884TIP3    H127067   3.528   3.770  15.252  0.7681  2.6873 -0.7545
 1884TIP3    H227068   3.420   3.858  15.191 -2.2849 -0.7157 -0.4222
 1885TIP3   OH227069   5.880   1.811   2.300 -0.5462  0.5366  0.1789
 1885TIP3    H127070   5.951   1.858   2.256 -0.4731  0.1324 -0.1323
 1885TIP3    H227071   5.800   1.849   2.264 -0.5187 -1.6196 -2.2979
 1886TIP3   OH227072   5.027   1.709  15.183 -0.1147 -0.7904 -0.3880
 1886TIP3    H127073   5.041   1.651  15.258 -1.3936 -1.7057 -0.8319
 1886TIP3    H227074   5.066   1.663  15.109  1.9346  0.5124 -0.1696
 1887TIP3   OH227075   1.926   0.368   3.845  0.6186  0.0431  0.3865
 1887TIP3    H127076   1.960   0.279   3.838  1.8681  0.4326  1.2732
 1887TIP3    H227077   1.916   0.398   3.755 -0.9224 -1.4063  0.0731
 1888TIP3   OH227078   4.134   2.072   6.533  0.3076 -0.1435  0.1808
 1888TIP3    H127079   4.162   2.161   6.513  0.9113 -0.2798  0.4278
 1888TIP3    H227080   4.191   2.044   6.605 -0.4834 -0.4020  0.7183
 1889TIP3   OH227081   6.582   4.237   3.197  0.4132  0.6477  0.8303
 1889TIP3    H127082   6.489   4.253   3.185  0.8250  0.0164 -4.3966
 1889TIP3    H227083   6.586   4.153   3.242 -1.5847 -0.2652 -0.6194
 1890TIP3   OH227084   3.000   6.506   2.629  0.6008  0.5074  0.0216
 1890TIP3    H127085   3.054   6.577   2.594  2.5026 -1.0811 -0.3340
 1890TIP3    H227086   2.992   6.526   2.722 -0.4102  2.1493 -0.3935
 1891TIP3   OH227087   3.728   3.139   5.116  0.2258 -0.0009 -0.0974
 1891TIP3    H127088   3.670   3.072   5.154  0.1498 -0.0713 -0.3363
 1891TIP3    H227089   3.795   3.089   5.069  1.2981  0.0419  1.3557
 1892TIP3   OH227090   0.379   4.770   0.467 -0.0371 -0.1645  0.6550
 1892TIP3    H127091   0.331   4.721   0.534  0.2488  0.2894  1.1956
 1892TIP3    H227092   0.450   4.711   0.440  1.2260  0.5104  2.3940
 1893TIP3   OH227093   4.239   4.829  11.792 -0.4012 -0.0910 -0.6801
 1893TIP3    H127094   4.323   4.788  11.812 -1.4709 -1.5392  0.9920
 1893TIP3    H227095   4.244   4.851  11.699  2.1159  0.5482 -0.4305
 1894TIP3   OH227096   2.522   0.122  13.556 -0.5993 -0.1146  0.4829
 1894TIP3    H127097   2.465   0.143  13.482  1.7590 -1.4316 -1.7906
 1894TIP3    H227098   2.541   0.029  13.546  3.2848  0.6608  0.2166
 1895TIP3   OH227099   2.909   2.274  13.544 -0.2326 -0.0358  0.0593
 1895TIP3    H127100   2.943   2.282  13.633 -0.5207  0.1022  0.1582
 1895TIP3    H227101   2.978   2.310  13.488  1.0920 -2.5581 -0.0046
 1896TIP3   OH227102   4.881   0.469  15.435  0.5011  0.1655  0.4549
 1896TIP3    H127103   4.846   0.542  15.488 -1.9494  0.1137 -0.9848
 1896TIP3    H227104   4.833   0.476  15.352  2.3798 -1.3379 -0.7742
 1897TIP3   OH227105   4.569   5.392  15.547 -0.0665  0.2694 -0.3443
 1897TIP3    H127106   4.479   5.407  15.574 -0.2382 -1.3562  0.0327
 1897TIP3    H227107   4.565   5.377  15.453 -0.2683 -0.4262 -0.2251
 1898TIP3   OH227108   4.943   3.574   2.067  0.3879  0.6203  0.5120
 1898TIP3    H127109   4.990   3.652   2.096  0.8379  0.7369 -0.4955
 1898TIP3    H227110   4.884   3.606   1.999  0.1362  0.1830  0.5242
 1899TIP3   OH227111   1.264   3.644  13.770  1.0343  0.0318 -0.5303
 1899TIP3    H127112   1.284   3.556  13.804 -0.8389 -0.5210 -0.7772
 1899TIP3    H227113   1.193   3.676  13.827  1.8654  1.4843 -0.3001
 1900TIP3   OH227114   2.815   3.270  12.813 -0.1980 -0.1580  0.7012
 1900TIP3    H127115   2.792   3.243  12.901 -1.1340 -0.1745  0.4580
 1900TIP3    H227116   2.812   3.189  12.761  0.2082 -0.1255  0.6260
 1901TIP3   OH227117   6.097   2.425  12.767 -0.2667  0.6227 -0.0502
 1901TIP3    H127118   6.110   2.515  12.735 -0.4712  1.3019  1.7618
 1901TIP3    H227119   6.003   2.413  12.765 -0.3134  0.8459  0.7798
 1902TIP3   OH227120   4.633   5.499  13.934  0.1377 -0.7827  0.2609
 1902TIP3    H127121   4.667   5.582  13.898 -0.3179 -0.9461 -0.5633
 1902TIP3    H227122   4.690   5.480  14.008  0.9226 -0.2841 -0.2044
 1903TIP3   OH227123   4.033   4.884  13.706  0.9123 -0.0479  0.2819
 1903TIP3    H127124   4.103   4.904  13.644 -0.4619 -0.2843 -1.3567
 1903TIP3    H227125   3.963   4.947  13.685 -0.3224 -1.3961  0.2922
 1904TIP3   OH227126   1.456   6.061   5.284 -0.3973 -0.7908  0.1403
 1904TIP3    H127127   1.370   6.042   5.322 -0.7568 -0.3952 -0.4700
 1904TIP3    H227128   1.492   6.130   5.339 -0.9444 -0.1701 -0.2707
 1905TIP3   OH227129   4.090   4.926   1.165 -0.2149 -0.2234 -0.0433
 1905TIP3    H127130   4.004   4.968   1.160  0.5997  1.6392  1.1894
 1905TIP3    H227131   4.072   4.840   1.202 -1.7138 -0.4002 -1.1143
 1906TIP3   OH227132   1.049   3.742  14.461 -0.0273  0.3962  0.3584
 1906TIP3    H127133   1.131   3.777  14.497  0.4880  1.2025 -1.5514
 1906TIP3    H227134   0.983   3.769  14.525  1.1942 -0.3911  1.9996
 1907TIP3   OH227135   2.767   2.899   2.292  0.6012  0.3123 -0.2430
 1907TIP3    H127136   2.813   2.816   2.296  1.7564  0.9712  0.1154
 1907TIP3    H227137   2.798   2.940   2.211 -0.1024  0.3187 -0.5145
 1908TIP3   OH227138   0.705   0.680  16.908  0.1145 -0.0140  0.1767
 1908TIP3    H127139   0.683   0.673  16.815  0.9319 -1.2809  0.0604
 1908TIP3    H227140   0.780   0.622  16.919  1.3707  1.7576  1.2125
 1909TIP3   OH227141   5.368   6.182   3.034  0.0805  0.1968  0.0654
 1909TIP3    H127142   5.346   6.109   2.977 -1.6494  0.6643  0.0941
 1909TIP3    H227143   5.388   6.254   2.974 -1.4111  0.5952  0.0344
 1910TIP3   OH227144   3.305   0.454   5.020  0.6183 -0.1577  0.0383
 1910TIP3    H127145   3.306   0.431   5.113  0.3294 -0.9810 -0.1555
 1910TIP3    H227146   3.217   0.429   4.990  1.0139 -0.7343 -0.6535
 1911TIP3   OH227147   2.302   2.597   0.186  0.4807  0.1052  1.1809
 1911TIP3    H127148   2.392   2.567   0.192  0.6596  0.5642  0.8029
 1911TIP3    H227149   2.291   2.656   0.261  1.2762  2.0826 -0.2366
 1912TIP3   OH227150   2.682   1.770  12.598 -0.0573 -0.0287 -0.0113
 1912TIP3    H127151   2.762   1.736  12.558  0.7292  2.0967 -0.3116
 1912TIP3    H227152   2.711   1.807  12.681 -1.0097 -0.6839  0.6174
 1913TIP3   OH227153   5.536   4.955   5.227  0.2823 -0.0659  0.1161
 1913TIP3    H127154   5.527   5.018   5.299  1.5565  1.5446 -1.1114
 1913TIP3    H227155   5.616   4.906   5.248  0.1554 -0.2101  0.2628
 1914TIP3   OH227156   5.819   4.513   6.652 -0.0865 -0.1662 -0.2500
 1914TIP3    H127157   5.883   4.564   6.603  0.5834 -1.1504 -0.4077
 1914TIP3    H227158   5.864   4.491   6.734 -1.3939  1.9769  1.1229
 1915TIP3   OH227159   4.401   6.336   5.300 -0.4629  0.1639  0.5227
 1915TIP3    H127160   4.331   6.395   5.327 -2.1864 -1.6857  0.2403
 1915TIP3    H227161   4.427   6.368   5.213 -0.5259  1.2214  0.8851
 1916TIP3   OH227162   3.643   4.737  16.522  0.0784  0.3407  1.0265
 1916TIP3    H127163   3.601   4.690  16.594 -0.2074  0.7110  1.1028
 1916TIP3    H227164   3.725   4.770  16.559  0.6280 -0.7159  0.7650
 1917TIP3   OH227165   3.309   6.684   2.829 -0.6128  0.1521 -0.1335
 1917TIP3    H127166   3.288   6.605   2.879 -0.9821  0.0352 -0.4713
 1917TIP3    H227167   3.356   6.740   2.891 -0.5221 -0.2487  0.1640
 1918TIP3   OH227168   4.960   3.222   4.968 -0.2118 -0.3590 -0.5101
 1918TIP3    H127169   5.054   3.204   4.970 -0.3751 -1.2784 -0.6169
 1918TIP3    H227170   4.946   3.261   4.882  0.1878  0.4799 -0.1994
 1919TIP3   OH227171   5.821   5.041   4.825  0.2658 -0.4145  0.0372
 1919TIP3    H127172   5.749   4.994   4.867  0.0609  0.2243  0.4130
 1919TIP3    H227173   5.843   5.110   4.887  1.3240 -0.7157  0.0002
 1920TIP3   OH227174   4.313   4.397  14.735  0.3385  0.3461  0.2038
 1920TIP3    H127175   4.277   4.474  14.780  2.2780  0.5046  1.5473
 1920TIP3    H227176   4.280   4.322  14.785  0.5365  0.4176  0.4425
 1921TIP3   OH227177   4.095   0.246   5.763  0.1128  0.0352 -0.0563
 1921TIP3    H127178   4.165   0.184   5.744  1.4450  1.4046  0.2867
 1921TIP3    H227179   4.104   0.314   5.696 -0.2697  0.7305  0.5836
 1922TIP3   OH227180   0.505   6.414   0.061 -0.7503  0.2919 -0.1947
 1922TIP3    H127181   0.539   6.427  -0.027  0.5763 -0.0010  0.2681
 1922TIP3    H227182   0.528   6.494   0.108 -0.0087 -0.2262  0.3334
 1923TIP3   OH227183   1.253   0.313   0.627  0.2709  0.3558  0.1758
 1923TIP3    H127184   1.289   0.237   0.581  1.3946  0.8497  0.2295
 1923TIP3    H227185   1.188   0.349   0.567 -0.8967 -1.1427  0.5025
 1924TIP3   OH227186   1.531   0.225  15.106 -0.8304  0.1799  0.7815
 1924TIP3    H127187   1.465   0.190  15.045 -0.1131  0.0834  0.0526
 1924TIP3    H227188   1.614   0.189  15.075 -0.1615  1.9831  0.4261
 1925TIP3   OH227189   4.970   4.507  11.872  0.1384 -0.1321 -0.4918
 1925TIP3    H127190   5.017   4.452  11.809 -0.2902 -0.5496 -0.4474
 1925TIP3    H227191   4.879   4.506  11.843  0.3083  1.4652 -1.1372
 1926TIP3   OH227192   4.902   0.112  10.507  0.1146  0.3870 -0.0563
 1926TIP3    H127193   4.862   0.112  10.594  0.9371  1.3043  0.3338
 1926TIP3    H227194   4.836   0.151  10.450 -0.3938 -0.1416  0.1681
 1927TIP3   OH227195   3.836   4.287  13.094 -0.9555  0.0347 -0.0624
 1927TIP3    H127196   3.779   4.288  13.170 -0.5125 -1.1130  0.2913
 1927TIP3    H227197   3.911   4.233  13.120 -0.1123  0.8122 -0.8119
 1928TIP3   OH227198   6.494   5.024   0.463  0.7142  0.7256 -0.0239
 1928TIP3    H127199   6.410   5.048   0.423  0.7878  1.2019  0.1059
 1928TIP3    H227200   6.498   5.076   0.543  0.9286  0.3655  0.1986
 1929TIP3   OH227201   0.708   1.553   2.351 -0.0415 -0.5595  0.0003
 1929TIP3    H127202   0.703   1.499   2.272  1.9515 -1.5832  0.5493
 1929TIP3    H227203   0.694   1.643   2.320 -1.6017 -1.1832 -1.1665
 1930TIP3   OH227204   5.340   5.608  12.986 -0.0703 -0.0594 -0.8161
 1930TIP3    H127205   5.340   5.512  12.991  0.6277  0.0240  1.2711
 1930TIP3    H227206   5.277   5.635  13.052 -1.3799  0.9063 -2.4365
 1931TIP3   OH227207   0.530   4.900  17.158  0.8095 -0.1726  0.0932
 1931TIP3    H127208   0.466   4.866  17.096  2.3521 -2.0307 -0.5337
 1931TIP3    H227209   0.577   4.968  17.109  2.2040 -1.8188 -0.9370
 1932TIP3   OH227210   6.752   6.364  12.548  0.0094  0.3813 -0.0766
 1932TIP3    H127211   6.745   6.282  12.500  2.1265  0.0814  0.0696
 1932TIP3    H227212   6.685   6.420  12.510 -1.4881 -1.4132 -0.1623
 1933TIP3   OH227213   5.703   4.030  12.958 -0.5829  0.2249  0.1727
 1933TIP3    H127214   5.664   3.999  13.040 -1.1227  1.2237  0.2975
 1933TIP3    H227215   5.783   4.075  12.986  1.0669 -2.3702 -0.1291
 1934TIP3   OH227216   3.979   0.463  11.314 -0.5909 -0.7958  0.0215
 1934TIP3    H127217   4.073   0.455  11.300 -0.2140  3.6677 -0.8410
 1934TIP3    H227218   3.942   0.477  11.226 -1.6216  0.6178  0.6515
 1935TIP3   OH227219   1.630   1.081  16.096 -0.2454  0.0683  0.6910
 1935TIP3    H127220   1.641   0.988  16.078 -0.5276  0.4094 -1.2896
 1935TIP3    H227221   1.566   1.084  16.168  0.2912 -1.2795  1.2283
 1936TIP3   OH227222   4.949   6.651   2.799  0.0452 -0.1724 -0.1796
 1936TIP3    H127223   4.921   6.596   2.873 -0.3809 -0.7210 -0.7491
 1936TIP3    H227224   4.868   6.677   2.756  0.3458 -0.8239 -1.1607
 1937TIP3   OH227225   3.724   3.271   3.977  0.2999 -0.6232  0.5313
 1937TIP3    H127226   3.763   3.338   3.921 -1.2641  0.9050  1.2085
 1937TIP3    H227227   3.662   3.225   3.921 -0.2974  0.0369  0.6345
 1938TIP3   OH227228   6.744   4.368   4.364 -0.0008  0.0552  0.0452
 1938TIP3    H127229   6.700   4.330   4.288 -2.2518  1.7117  0.4687
 1938TIP3    H227230   6.770   4.455   4.335  0.5589  0.0973  0.6657
 1939TIP3   OH227231   4.553   0.799  13.353  0.2792  0.2019  0.0168
 1939TIP3    H127232   4.577   0.834  13.267  2.2326 -1.3338 -0.1046
 1939TIP3    H227233   4.616   0.728  13.368 -0.4566  0.0249  2.4253
 1940TIP3   OH227234   5.423   3.442  14.294  0.2621  0.1434  0.5217
 1940TIP3    H127235   5.462   3.441  14.382 -2.1868 -2.1087  1.6606
 1940TIP3    H227236   5.351   3.505  14.301  1.5033  1.7221 -0.5851
 1941TIP3   OH227237   0.267   5.564   3.267  0.2067 -0.0273  0.3259
 1941TIP3    H127238   0.203   5.562   3.197  0.5027 -0.3935  0.0631
 1941TIP3    H227239   0.286   5.472   3.286  2.6395  0.0664 -1.4390
 1942TIP3   OH227240   2.526   0.581   2.597  0.6391  0.2909 -0.0847
 1942TIP3    H127241   2.432   0.583   2.576  0.7257  0.2587 -0.4723
 1942TIP3    H227242   2.541   0.661   2.647 -0.0663 -0.8108  1.9809
 1943TIP3   OH227243   4.573   1.234   2.783 -0.0494  0.4350 -0.3745
 1943TIP3    H127244   4.546   1.148   2.817  0.5842  0.3301 -0.1387
 1943TIP3    H227245   4.646   1.216   2.725  0.3531  0.8573 -0.0065
 1944TIP3   OH227246   0.912   3.001  15.135 -0.9427 -0.2590  0.2202
 1944TIP3    H127247   0.997   2.968  15.164 -0.6141 -1.0336 -1.5238
 1944TIP3    H227248   0.923   3.096  15.133 -0.3709 -0.3080  0.7580
 1945TIP3   OH227249   3.009   0.097   3.731 -0.6692 -0.0706  0.1213
 1945TIP3    H127250   2.920   0.078   3.703 -0.8449 -0.3848  0.8817
 1945TIP3    H227251   3.000   0.123   3.823  0.1219 -0.9190  0.4442
 1946TIP3   OH227252   2.601   6.564   0.673 -0.1726  0.5210 -0.4929
 1946TIP3    H127253   2.558   6.604   0.748 -1.2621  1.4270 -1.5855
 1946TIP3    H227254   2.628   6.637   0.618 -1.0738 -0.1790 -1.9033
 1947TIP3   OH227255   3.743   1.644  15.594  0.3287 -0.8587  0.8355
 1947TIP3    H127256   3.649   1.628  15.587  0.0700  1.2253 -0.8414
 1947TIP3    H227257   3.761   1.638  15.688 -1.4529 -1.2991  1.1695
 1948TIP3   OH227258   2.361   3.836   4.911  0.5459  0.7283  0.0507
 1948TIP3    H127259   2.406   3.871   4.988  0.1710 -0.8725  1.0089
 1948TIP3    H227260   2.271   3.867   4.920  0.4911  0.5027  0.2816
 1949TIP3   OH227261   2.405   6.569  15.166  0.1363  0.4336  0.0808
 1949TIP3    H127262   2.314   6.537  15.171 -0.4041  1.6844 -1.6201
 1949TIP3    H227263   2.424   6.573  15.073  2.7177 -1.8909  0.4580
 1950TIP3   OH227264   4.470   6.382   2.834  0.2619 -0.0738 -0.6022
 1950TIP3    H127265   4.489   6.475   2.832 -0.6776  0.1449 -0.0261
 1950TIP3    H227266   4.419   6.366   2.754 -0.6312  0.1644 -0.0959
 1951TIP3   OH227267   3.713   0.824  13.321 -0.0082 -0.2312 -0.6889
 1951TIP3    H127268   3.647   0.828  13.390  0.8220  2.0848  0.0401
 1951TIP3    H227269   3.718   0.732  13.297 -0.8927 -0.9665  1.8116
 1952TIP3   OH227270   4.298   2.787   4.150 -0.4305  0.0125 -0.9005
 1952TIP3    H127271   4.225   2.724   4.144 -0.0818 -0.3214 -1.6391
 1952TIP3    H227272   4.275   2.843   4.224 -1.8136  0.3778 -1.5863
 1953TIP3   OH227273   1.842   3.017   0.521 -0.3707  0.4034 -0.4053
 1953TIP3    H127274   1.869   3.087   0.461  1.6425 -0.1505 -0.1708
 1953TIP3    H227275   1.807   2.949   0.464  0.3612  0.4025 -0.8604
 1954TIP3   OH227276   3.293   0.839   0.301  0.0363 -0.3797  0.1113
 1954TIP3    H127277   3.315   0.790   0.222 -1.1361  0.7401 -0.9188
 1954TIP3    H227278   3.213   0.798   0.333  0.6333 -0.9783  0.8606
 1955TIP3   OH227279   5.613   0.806   6.501 -0.3577  0.3534  0.1839
 1955TIP3    H127280   5.670   0.810   6.425 -0.0244  1.6360  0.4873
 1955TIP3    H227281   5.648   0.735   6.554  0.5208  0.6680  0.0230
 1956TIP3   OH227282   3.917   1.888   5.486  0.3692  0.7122 -0.1361
 1956TIP3    H127283   3.914   1.983   5.491 -0.4506  0.6052  1.5059
 1956TIP3    H227284   3.883   1.858   5.570  1.8814 -1.0271 -0.1209
 1957TIP3   OH227285   0.178   3.857   2.843 -0.2862 -0.1083  0.3093
 1957TIP3    H127286   0.170   3.763   2.827 -0.1523 -0.1823  0.6616
 1957TIP3    H227287   0.261   3.881   2.802 -0.5099 -0.0659 -0.1208
 1958TIP3   OH227288   1.693   1.138  15.358  0.2005  0.3473  0.6486
 1958TIP3    H127289   1.635   1.193  15.411 -0.4140  1.0236 -0.7068
 1958TIP3    H227290   1.781   1.157  15.392  0.0272  2.3588  0.0554
 1959TIP3   OH227291   0.099   4.118  15.763 -0.7555 -0.6577 -0.1276
 1959TIP3    H127292   0.022   4.101  15.708  0.4143  0.2135 -2.0909
 1959TIP3    H227293   0.143   4.191  15.721  0.8147 -0.7108  1.3512
 1960TIP3   OH227294   4.139   3.363   2.073 -0.2572 -0.3657 -0.2418
 1960TIP3    H127295   4.139   3.271   2.099 -2.0457 -1.3697 -3.4072
 1960TIP3    H227296   4.231   3.386   2.064  0.2178 -1.7367  0.9939
 1961TIP3   OH227297   2.490   6.734  16.240  0.0971 -0.2373  0.0732
 1961TIP3    H127298   2.420   6.790  16.275 -0.4741 -0.8356 -0.0976
 1961TIP3    H227299   2.543   6.792  16.186 -0.8489  0.0111 -0.6019
 1962TIP3   OH227300   2.828   0.769   3.211 -0.1584  0.3077 -0.2986
 1962TIP3    H127301   2.744   0.761   3.257 -0.2385  0.7200 -0.3717
 1962TIP3    H227302   2.814   0.839   3.148 -0.1417 -0.4689 -1.1666
 1963TIP3   OH227303   4.674   4.345   3.826  0.2352 -0.1019  0.0814
 1963TIP3    H127304   4.732   4.377   3.756 -1.2213 -0.7341 -1.4457
 1963TIP3    H227305   4.703   4.255   3.841  0.6148  0.0668  0.3573
 1964TIP3   OH227306   4.450   1.460  14.652  0.3669  0.1409  0.4350
 1964TIP3    H127307   4.360   1.432  14.668 -0.3324  1.7556 -0.5375
 1964TIP3    H227308   4.444   1.555  14.643  1.9012  0.0822 -1.4404
 1965TIP3   OH227309   4.317   1.066   4.531 -0.1449 -0.1793  0.0585
 1965TIP3    H127310   4.291   1.158   4.526 -1.8848 -0.6230  0.7369
 1965TIP3    H227311   4.243   1.018   4.494 -0.2912 -1.4724  1.9673
 1966TIP3   OH227312   4.796   3.559  16.307 -0.5452  0.4808 -0.5036
 1966TIP3    H127313   4.715   3.559  16.357 -0.3150 -0.0062 -0.1260
 1966TIP3    H227314   4.861   3.596  16.366 -0.0651 -0.9833 -0.0831
 1967TIP3   OH227315   3.060   1.839  12.094  0.0148  0.6574  0.8644
 1967TIP3    H127316   3.105   1.921  12.074  0.2533  0.7965  1.9250
 1967TIP3    H227317   2.967   1.860  12.084  0.1727  0.2676 -1.6849
 1968TIP3   OH227318   2.959   3.228   0.190  0.4443 -0.2015  0.9774
 1968TIP3    H127319   3.050   3.250   0.173  0.4948 -0.5986  0.7283
 1968TIP3    H227320   2.949   3.237   0.285  0.5426  0.5915  0.9089
 1969TIP3   OH227321   2.870   3.020   2.077  0.1798  0.1260  0.4276
 1969TIP3    H127322   2.961   2.994   2.089 -0.4183 -1.9376  0.6820
 1969TIP3    H227323   2.847   2.986   1.990 -0.5677  0.0256  0.6626
 1970TIP3   OH227324   5.417   6.420  13.823 -0.0383  1.0852 -0.1757
 1970TIP3    H127325   5.346   6.479  13.799 -0.6993  1.1004  1.6758
 1970TIP3    H227326   5.475   6.473  13.879  1.6147  1.1622 -1.9207
 1971TIP3   OH227327   3.803   1.051  11.080  0.5378 -0.1857  0.1361
 1971TIP3    H127328   3.744   1.005  11.140  0.5335  1.4409  1.3962
 1971TIP3    H227329   3.751   1.064  11.000 -0.6126  0.6980  1.0157
 1972TIP3   OH227330   3.211   4.209  13.891 -0.2256  0.6354 -0.3845
 1972TIP3    H127331   3.192   4.145  13.822 -0.5083 -1.7387  1.7818
 1972TIP3    H227332   3.128   4.252  13.908 -0.4945  0.1581 -0.4892
 1973TIP3   OH227333   1.411   3.692   3.802  0.2472  0.0013  0.2131
 1973TIP3    H127334   1.436   3.780   3.774  2.0707 -0.9439 -1.1974
 1973TIP3    H227335   1.344   3.665   3.738 -1.7013  1.0540  1.7510
 1974TIP3   OH227336   5.608   1.926   3.835 -0.0338  0.4383  0.6428
 1974TIP3    H127337   5.616   1.994   3.768  1.0622  0.4835  0.8072
 1974TIP3    H227338   5.601   1.844   3.785 -0.5862  0.6003  0.4549
 1975TIP3   OH227339   0.025   2.638   4.872  0.4422  0.4950  0.0171
 1975TIP3    H127340   0.017   2.701   4.800  0.3481 -0.2509 -0.6222
 1975TIP3    H227341  -0.001   2.688   4.950 -1.3907  0.7669 -0.7332
 1976TIP3   OH227342   2.563   0.879   1.298 -0.1198 -0.1331  0.3989
 1976TIP3    H127343   2.599   0.841   1.378  0.2714 -1.9560 -0.5923
 1976TIP3    H227344   2.634   0.871   1.234 -0.8223  0.2192 -0.4367
 1977TIP3   OH227345   3.083   6.273   1.996  0.0654 -0.3008 -0.0386
 1977TIP3    H127346   3.162   6.306   1.954  0.9925 -0.7263  1.3509
 1977TIP3    H227347   3.034   6.231   1.925  0.8735  0.3476 -0.9846
 1978TIP3   OH227348   2.994   6.218   3.964  0.3042  0.2355  0.0502
 1978TIP3    H127349   2.903   6.243   3.979  0.5761  0.6618  1.0635
 1978TIP3    H227350   3.040   6.245   4.044  1.6775  1.7630 -1.2287
 1979TIP3   OH227351   5.914   0.809  16.992 -0.0768  0.2722 -0.1142
 1979TIP3    H127352   5.851   0.882  16.992 -0.7280 -0.2849 -0.0175
 1979TIP3    H227353   5.999   0.851  16.979 -0.4583  1.0442 -0.1587
 1980TIP3   OH227354   3.186   5.379  13.866  0.3123 -0.7227 -0.1386
 1980TIP3    H127355   3.145   5.427  13.936  1.6499  1.5534 -0.8644
 1980TIP3    H227356   3.245   5.317  13.910 -1.0241 -1.3473  0.7828
 1981TIP3   OH227357   3.147   2.823   3.780 -0.2122 -0.1014  0.8773
 1981TIP3    H127358   3.221   2.773   3.746  0.5950 -0.0437  2.4880
 1981TIP3    H227359   3.072   2.763   3.772 -0.2221  0.1800 -1.6413
 1982TIP3   OH227360   3.171   2.766  12.807 -0.2202  0.0645  0.5404
 1982TIP3    H127361   3.106   2.718  12.858 -0.6540  0.1587  0.0814
 1982TIP3    H227362   3.182   2.849  12.853  0.1052 -0.2399  1.0147
 1983TIP3   OH227363   6.315   1.489  16.308  0.1650  0.0801 -0.0726
 1983TIP3    H127364   6.303   1.522  16.219 -0.2606  0.3315  0.0759
 1983TIP3    H227365   6.327   1.568  16.361  0.2622 -0.0612  0.1155
 1984TIP3   OH227366   6.372   1.227  12.415  0.0700 -0.1598 -0.2395
 1984TIP3    H127367   6.425   1.166  12.466  1.0291 -0.8608 -2.0259
 1984TIP3    H227368   6.288   1.231  12.461 -0.0214 -2.8616 -0.1094
 1985TIP3   OH227369   0.446   6.115   6.202  0.1128  0.2471 -0.0412
 1985TIP3    H127370   0.383   6.186   6.193 -1.2283 -0.8009  0.8237
 1985TIP3    H227371   0.520   6.141   6.148 -0.5778  2.0515 -0.1407
 1986TIP3   OH227372   5.248   5.338  12.931  0.1399 -0.2628  0.4751
 1986TIP3    H127373   5.202   5.367  12.852 -0.6789 -1.3619  0.5325
 1986TIP3    H227374   5.293   5.258  12.904  2.0367  0.7974  0.4289
 1987TIP3   OH227375   0.466   1.138  14.876  0.1303  0.0675 -0.0188
 1987TIP3    H127376   0.561   1.148  14.881  0.3203 -1.0572 -1.1085
 1987TIP3    H227377   0.449   1.048  14.902 -0.6054  0.1633 -0.1446
 1988TIP3   OH227378   0.070   6.563  15.464  0.3953 -0.2219  0.4257
 1988TIP3    H127379   0.166   6.565  15.462  0.3860  0.7052  0.7278
 1988TIP3    H227380   0.049   6.507  15.539  0.6934 -0.6806  0.1754
 1989TIP3   OH227381   5.912   4.822   1.283 -0.0958 -0.0365 -0.1704
 1989TIP3    H127382   5.932   4.916   1.284  0.5477 -0.1723 -0.3867
 1989TIP3    H227383   5.902   4.799   1.376  0.2110  0.1383 -0.0948
 1990TIP3   OH227384   0.141   4.253   5.286  0.3859  0.2752 -0.0722
 1990TIP3    H127385   0.176   4.194   5.219 -1.3183  0.3683 -1.0646
 1990TIP3    H227386   0.207   4.322   5.294  1.8934 -1.1691  0.3242
 1991TIP3   OH227387   3.640   1.291  13.367  0.3213 -0.2166  0.3324
 1991TIP3    H127388   3.544   1.298  13.364  0.3726  0.9466  1.3761
 1991TIP3    H227389   3.665   1.335  13.448  1.7387 -0.6656  0.1499
 1992TIP3   OH227390   0.051   2.552  13.560 -0.1188 -0.1352 -0.1238
 1992TIP3    H127391  -0.016   2.488  13.534 -1.1337  0.8433  0.0915
 1992TIP3    H227392   0.092   2.513  13.637 -1.4893 -0.0288  0.6774
 1993TIP3   OH227393   0.433   1.697   1.397  0.4520 -0.0253 -0.1330
 1993TIP3    H127394   0.403   1.607   1.409  1.6364 -0.5320 -0.8854
 1993TIP3    H227395   0.493   1.693   1.322 -1.0647  1.7490 -1.4858
 1994TIP3   OH227396   1.316   0.404  12.432 -0.5477  0.3575  0.2889
 1994TIP3    H127397   1.287   0.351  12.358  1.7580 -0.5632  0.0030
 1994TIP3    H227398   1.401   0.438  12.406  1.1279 -1.4008  3.1617
 1995TIP3   OH227399   2.355   4.556  12.026  0.1456 -0.8408  0.3877
 1995TIP3    H127400   2.441   4.532  12.060  1.8430 -0.0824 -3.1259
 1995TIP3    H227401   2.342   4.498  11.950 -1.2113  0.8634 -0.7188
 1996TIP3   OH227402   5.597   1.355  11.489 -0.0580  0.0897  0.9485
 1996TIP3    H127403   5.666   1.388  11.546 -1.2772 -0.8359  3.0181
 1996TIP3    H227404   5.643   1.310  11.419  1.4602  0.1350  1.8971
 1997TIP3   OH227405   0.084   5.697  13.471  0.6449  0.0385 -0.0346
 1997TIP3    H127406   0.125   5.616  13.501  1.0422  0.1020 -0.3996
 1997TIP3    H227407   0.051   5.676  13.383  3.6074  1.1888 -1.4999
 1998TIP3   OH227408   3.267   4.812  15.391 -0.4245  0.2342  0.2400
 1998TIP3    H127409   3.228   4.725  15.397  0.4806 -0.0271  3.7108
 1998TIP3    H227410   3.322   4.819  15.469 -0.4258  3.8997  0.0206
 1999TIP3   OH227411   3.539   5.337  12.640 -0.6269  0.0660 -0.0059
 1999TIP3    H127412   3.610   5.278  12.617 -0.9015 -0.6797  1.0103
 1999TIP3    H227413   3.495   5.356  12.557 -1.2103 -2.0473 -0.1894
 2000TIP3   OH227414   3.706   6.012   1.042  0.3472  0.2183  0.6489
 2000TIP3    H127415   3.771   5.992   1.110  0.4409 -0.0595  0.4747
 2000TIP3    H227416   3.713   5.941   0.979 -1.8457 -1.1691  1.8786
 2001TIP3   OH227417   6.565   0.897  11.043 -0.0249 -0.3875 -0.1549
 2001TIP3    H127418   6.481   0.870  11.081  0.1024 -1.9924 -0.9748
 2001TIP3    H227419   6.588   0.826  10.983  0.6286  1.2742 -1.9393
 2002TIP3   OH227420   6.238   5.945  12.836  0.1902  0.3122 -0.0293
 2002TIP3    H127421   6.206   6.008  12.771  1.2494  1.6877  0.7521
 2002TIP3    H227422   6.220   5.987  12.921  2.2760  0.2629  0.4643
 2003TIP3   OH227423   4.679   2.549   2.689 -0.1259 -0.4300  0.2938
 2003TIP3    H127424   4.646   2.589   2.769 -0.1535  1.5579 -0.6824
 2003TIP3    H227425   4.735   2.616   2.650  1.8743 -2.2568 -0.1265
 2004TIP3   OH227426   3.634   3.058   3.601 -0.9330 -0.0647 -0.1984
 2004TIP3    H127427   3.575   3.082   3.672 -1.6049 -1.4439 -0.2769
 2004TIP3    H227428   3.701   3.004   3.643 -0.5220  0.3295 -0.3542
 2005TIP3   OH227429   2.600   4.208  11.226  0.6094  0.0968  0.3465
 2005TIP3    H127430   2.554   4.292  11.237 -0.8382 -0.7276  0.7536
 2005TIP3    H227431   2.561   4.171  11.147  1.0678 -0.3063  0.3150
 2006TIP3   OH227432   2.154   5.722  15.853  0.3797 -0.6754  0.1831
 2006TIP3    H127433   2.130   5.629  15.858  2.2247 -1.1814  0.2836
 2006TIP3    H227434   2.073   5.769  15.871 -0.8121 -2.2528 -0.8315
 2007TIP3   OH227435   3.410   5.874   6.009 -0.2624  0.1109  0.4533
 2007TIP3    H127436   3.354   5.797   6.022  3.0297 -2.5156 -0.4331
 2007TIP3    H227437   3.445   5.893   6.096 -0.9670  0.5554  0.6464
 2008TIP3   OH227438   1.465   2.805  15.926 -0.4206 -0.2958  0.7405
 2008TIP3    H127439   1.516   2.740  15.879 -2.0025 -1.2138  0.2359
 2008TIP3    H227440   1.482   2.789  16.018 -0.7691 -1.4143  0.6157
 2009TIP3   OH227441   4.368   1.585  11.582  0.4699  0.1985  0.2279
 2009TIP3    H127442   4.448   1.633  11.605  0.5275 -0.2154  0.8866
 2009TIP3    H227443   4.336   1.629  11.503  1.2061  0.5304  0.1075
 2010TIP3   OH227444   3.392   4.929   0.090  0.3147 -0.0507 -0.2733
 2010TIP3    H127445   3.384   5.019   0.060  0.0967 -0.1076 -0.3833
 2010TIP3    H227446   3.401   4.878   0.010 -1.7136 -0.3628 -0.3216
 2011TIP3   OH227447   3.328   3.802  11.579 -0.6905 -0.1073  0.0902
 2011TIP3    H127448   3.275   3.858  11.636 -0.2008  1.3941 -0.8867
 2011TIP3    H227449   3.317   3.839  11.492  0.0053 -1.2824 -0.5129
 2012TIP3   OH227450   4.316   6.095  15.723  0.0779  0.5042  0.9229
 2012TIP3    H127451   4.246   6.030  15.731  1.3346 -0.7985  1.6070
 2012TIP3    H227452   4.396   6.044  15.731  1.1519  1.7510 -1.5425
 2013TIP3   OH227453   0.880   4.164  11.539 -0.3483  0.4379  0.3016
 2013TIP3    H127454   0.893   4.190  11.630 -0.5303  0.5778  0.2893
 2013TIP3    H227455   0.788   4.139  11.534 -0.0058 -0.8680  0.4637
 2014TIP3   OH227456   5.783   4.580  11.814 -0.0184 -0.0568 -0.5649
 2014TIP3    H127457   5.793   4.501  11.762  3.3145  1.2306 -2.0118
 2014TIP3    H227458   5.763   4.648  11.750 -1.3630  0.5795  0.4978
 2015TIP3   OH227459   2.852   5.203   0.035  0.2550  0.2116 -0.3724
 2015TIP3    H127460   2.794   5.231  -0.036 -0.9687 -2.8996 -0.6812
 2015TIP3    H227461   2.927   5.164  -0.010  0.4484  0.0990  0.0485
 2016TIP3   OH227462   1.934   4.616   5.485 -0.5397  0.1591  0.7151
 2016TIP3    H127463   1.944   4.606   5.580  1.0917  1.4753  0.7009
 2016TIP3    H227464   1.942   4.527   5.451 -1.4884 -0.3680  1.8286
 2017TIP3   OH227465   4.170   0.837   2.953 -0.4227  0.4038 -0.0657
 2017TIP3    H127466   4.243   0.800   2.904  0.6615  1.5695  0.6468
 2017TIP3    H227467   4.104   0.768   2.953  0.6242 -0.6227 -0.8113
 2018TIP3   OH227468   6.071   4.296  13.621  0.2999 -0.1471  0.0133
 2018TIP3    H127469   6.044   4.211  13.654 -0.8818  0.1596 -0.1104
 2018TIP3    H227470   6.097   4.345  13.699  0.0784 -0.3090  0.1912
 2019TIP3   OH227471   0.935   0.411   0.466  0.3100 -0.0563  0.3844
 2019TIP3    H127472   0.903   0.327   0.500  0.1220 -1.4407 -2.9938
 2019TIP3    H227473   0.866   0.440   0.407 -0.0714  3.0464  2.2507
 2020TIP3   OH227474   3.136   4.893  12.594 -0.3312  0.4133  0.1889
 2020TIP3    H127475   3.044   4.922  12.593 -0.0985  1.1285 -1.0805
 2020TIP3    H227476   3.162   4.900  12.686 -1.2110  1.2908  0.3772
 2021TIP3   OH227477   5.909   1.041  12.770 -0.0358 -0.5724  0.0724
 2021TIP3    H127478   5.845   1.017  12.836 -0.4761 -0.0452 -0.1555
 2021TIP3    H227479   5.871   1.118  12.727 -0.0134 -1.2445 -1.1708
 2022TIP3   OH227480   4.377   6.491  13.220  0.3256  0.3029 -0.6294
 2022TIP3    H127481   4.322   6.512  13.295  0.4741  1.3208 -0.7882
 2022TIP3    H227482   4.458   6.540  13.236  0.2329  0.7819 -1.6064
 2023TIP3   OH227483   4.865   6.273   1.581 -0.1731 -0.0567 -0.3879
 2023TIP3    H127484   4.883   6.179   1.589  1.3025  0.3624  1.4284
 2023TIP3    H227485   4.805   6.292   1.654 -0.3066  0.4615 -0.6291
 2024TIP3   OH227486   0.250   1.412   1.039  0.4194 -0.4408  0.0073
 2024TIP3    H127487   0.241   1.400   0.944 -0.8472  1.6649 -0.1721
 2024TIP3    H227488   0.343   1.425   1.053  0.4105  1.1210 -1.2141
 2025TIP3   OH227489   3.304   0.858  11.349  0.1227  0.0772  0.0125
 2025TIP3    H127490   3.226   0.804  11.333  0.3682 -0.2518 -0.0695
 2025TIP3    H227491   3.374   0.796  11.365  0.2072  0.3895  0.8505
 2026TIP3   OH227492   2.592   1.502   2.186 -0.1960 -0.2018 -1.0954
 2026TIP3    H127493   2.548   1.505   2.102 -1.5703  1.2015 -0.3420
 2026TIP3    H227494   2.613   1.593   2.206  0.0061 -0.5087  0.1376
 2027TIP3   OH227495   1.743   1.744  11.477 -0.1885  0.1669  0.2612
 2027TIP3    H127496   1.750   1.807  11.406  0.9422 -0.8588 -0.5706
 2027TIP3    H227497   1.834   1.725  11.501 -0.4515 -2.1282 -0.4186
 2028TIP3   OH227498   3.746   0.875   6.236  0.6791 -0.1708 -0.7755
 2028TIP3    H127499   3.798   0.829   6.301 -0.8785 -1.8880 -0.7052
 2028TIP3    H227500   3.700   0.806   6.188 -2.5839  1.3086  0.0881
 2029TIP3   OH227501   1.640   1.388   4.261 -0.0977  0.0347 -0.2473
 2029TIP3    H127502   1.588   1.454   4.307  1.4066  1.1927 -0.1790
 2029TIP3    H227503   1.576   1.325   4.229 -1.3021 -0.1193  2.3322
 2030TIP3   OH227504   0.227   4.528  12.138  0.1114  0.0633 -0.2478
 2030TIP3    H127505   0.320   4.510  12.152 -0.2390 -0.9760  0.7715
 2030TIP3    H227506   0.187   4.521  12.225 -0.7557  1.5549 -0.4999
 2031TIP3   OH227507   4.770   4.863  11.644  0.3791 -0.3401  0.0754
 2031TIP3    H127508   4.803   4.806  11.575  0.0294 -0.4113 -0.0338
 2031TIP3    H227509   4.848   4.907  11.679  0.1251  3.0961 -3.3545
 2032TIP3   OH227510   6.512   3.812   2.760  0.3065  0.0679 -0.1878
 2032TIP3    H127511   6.512   3.900   2.722 -0.1481 -0.6656 -1.9230
 2032TIP3    H227512   6.550   3.756   2.693  1.3144 -0.9586  1.2072
 2033TIP3   OH227513   0.769   2.151  16.994  0.1822  0.8356 -0.4303
 2033TIP3    H127514   0.824   2.137  17.072 -0.1908  1.1718 -0.1031
 2033TIP3    H227515   0.689   2.102  17.012  0.5848 -0.0924 -1.1406
 2034TIP3   OH227516   5.480   0.463   0.627  0.6240 -0.5033 -0.6414
 2034TIP3    H127517   5.470   0.415   0.544 -0.1886  0.5794 -1.1847
 2034TIP3    H227518   5.462   0.554   0.604  0.8936 -0.1222  0.6364
 2035TIP3   OH227519   2.771   4.840  13.645  0.6031 -0.6358  0.5051
 2035TIP3    H127520   2.694   4.896  13.634  0.8531 -0.5660 -1.0408
 2035TIP3    H227521   2.743   4.773  13.708 -0.1145  0.4705  1.3706
 2036TIP3   OH227522   2.590   4.613   1.675  0.4081 -0.0457 -0.3924
 2036TIP3    H127523   2.628   4.689   1.718  1.6981 -1.1396  0.4608
 2036TIP3    H227524   2.579   4.639   1.584  0.0465  1.4438  0.0794
 2037TIP3   OH227525   1.564   6.668  13.492  0.2538  0.1793 -0.6395
 2037TIP3    H127526   1.542   6.697  13.581 -1.0768 -2.4610 -0.0602
 2037TIP3    H227527   1.594   6.578  13.503 -0.0996 -0.2318 -2.8909
 2038TIP3   OH227528   4.589   5.153  11.354 -1.1045 -0.4104 -0.6051
 2038TIP3    H127529   4.539   5.097  11.414 -1.6720  0.2532 -0.4531
 2038TIP3    H227530   4.557   5.130  11.267 -2.9108  1.1981 -0.4046
 2039TIP3   OH227531   3.197   2.333  13.595  0.6164 -0.1987  0.5676
 2039TIP3    H127532   3.288   2.356  13.611  0.9271 -1.9356  1.4796
 2039TIP3    H227533   3.195   2.308  13.502  0.9206  0.5196  0.3683
 2040TIP3   OH227534   0.833   0.297  14.210 -0.2565  0.1713 -0.5664
 2040TIP3    H127535   0.814   0.362  14.278 -0.1974 -0.1161 -0.2742
 2040TIP3    H227536   0.896   0.340  14.153  0.0207  0.2589 -0.1980
 2041TIP3   OH227537   5.022   5.943  11.290  0.9681  0.0165 -0.2469
 2041TIP3    H127538   4.976   5.942  11.374 -1.6326 -1.0695 -1.6062
 2041TIP3    H227539   5.005   6.031  11.255  0.4660 -0.1578 -0.4492
 2042TIP3   OH227540   3.488   3.232   5.500  0.5060 -0.0133  0.2848
 2042TIP3    H127541   3.502   3.283   5.420 -0.7383  1.4938  1.0081
 2042TIP3    H227542   3.424   3.165   5.476  1.7147 -0.9089 -0.5160
 2043TIP3   OH227543   6.330   4.214   1.698  0.0336  0.0000  0.0953
 2043TIP3    H127544   6.308   4.293   1.747  0.3731 -0.6840  1.3720
 2043TIP3    H227545   6.276   4.219   1.619 -0.0863  1.4029  0.2540
 2044TIP3   OH227546   0.088   0.526   5.299 -0.0887  0.0065 -0.3933
 2044TIP3    H127547   0.138   0.599   5.261 -1.4673  0.2284 -1.8654
 2044TIP3    H227548   0.054   0.480   5.222  1.6631 -2.8592  0.4818
 2045TIP3   OH227549   4.594   5.431   2.271 -0.1961 -0.8100 -0.6986
 2045TIP3    H127550   4.555   5.518   2.283  1.2569 -0.1745 -0.4395
 2045TIP3    H227551   4.610   5.400   2.360  1.2709 -0.4066 -0.8038
 2046TIP3   OH227552   0.823   3.888  14.297 -0.3214  0.2477 -0.8068
 2046TIP3    H127553   0.764   3.918  14.366  0.4903 -0.2888  0.1377
 2046TIP3    H227554   0.907   3.930  14.317  0.0555 -0.3358 -1.1504
 2047TIP3   OH227555   5.035   3.834  15.386  0.1766 -0.4248  0.8577
 2047TIP3    H127556   5.114   3.780  15.380 -0.1040 -0.8365  0.8702
 2047TIP3    H227557   5.030   3.879  15.301  0.8812  0.2372  1.1665
 2048TIP3   OH227558   5.489   4.949   1.358 -0.0902 -0.9692  0.5359
 2048TIP3    H127559   5.402   4.939   1.319  0.2681 -0.8356 -0.3104
 2048TIP3    H227560   5.531   5.017   1.306  0.3443 -0.6810  1.2598
 2049TIP3   OH227561   6.204   6.440  14.520  0.0929 -0.4818  0.5855
 2049TIP3    H127562   6.297   6.441  14.498  0.4869  1.8082  2.1995
 2049TIP3    H227563   6.173   6.528  14.498 -2.0481 -1.6192 -1.2241
 2050TIP3   OH227564   4.149   6.061   4.693  0.1724  0.1306 -0.0455
 2050TIP3    H127565   4.096   5.982   4.702 -0.2157  0.3094 -0.7107
 2050TIP3    H227566   4.170   6.065   4.600 -0.7978  1.4418 -0.2160
 2051TIP3   OH227567   1.023   0.627  11.917 -0.2365 -0.4053  0.4619
 2051TIP3    H127568   1.055   0.625  12.007  1.2187 -1.8482 -0.0675
 2051TIP3    H227569   1.044   0.715  11.886  0.2592 -0.2714  1.1720
 2052TIP3   OH227570   2.506   0.973  16.136  0.2761  0.4211  0.2385
 2052TIP3    H127571   2.594   1.009  16.123 -0.5208  2.1837 -0.4802
 2052TIP3    H227572   2.452   1.019  16.072 -1.2709 -0.2472  1.0483
 2053TIP3   OH227573   0.224   5.330   5.337 -0.4599  0.1689  0.1167
 2053TIP3    H127574   0.290   5.338   5.268 -1.3358 -0.5192 -0.8150
 2053TIP3    H227575   0.195   5.420   5.354 -0.3373  0.3244 -0.5061
 2054TIP3   OH227576   5.160   5.282  12.462 -0.2121 -0.3197  0.7263
 2054TIP3    H127577   5.065   5.291  12.471 -0.0602  0.1367  1.9940
 2054TIP3    H227578   5.172   5.233  12.380 -1.5031  0.3023  0.1551
 2055TIP3   OH227579   2.727   5.060   2.757  0.5738 -0.0146  0.4504
 2055TIP3    H127580   2.818   5.031   2.757  0.1897 -1.2610  0.0837
 2055TIP3    H227581   2.678   4.982   2.782 -0.5744  0.0519 -1.5084
 2056TIP3   OH227582   0.786   0.055   1.999  0.0560  0.0509 -0.1793
 2056TIP3    H127583   0.850   0.044   2.069  0.6583 -1.6377 -0.9625
 2056TIP3    H227584   0.730   0.127   2.028  1.8582  1.0734  0.8517
 2057TIP3   OH227585   5.293   2.384  12.822  0.7379  0.5352  0.4005
 2057TIP3    H127586   5.267   2.408  12.733 -0.0838 -0.8063  0.2672
 2057TIP3    H227587   5.235   2.434  12.878 -0.3464 -0.4134  0.1407
 2058TIP3   OH227588   2.822   3.647  15.600 -0.4885 -0.0053 -0.2024
 2058TIP3    H127589   2.790   3.733  15.572  0.9512  0.8705  0.7821
 2058TIP3    H227590   2.772   3.627  15.679 -0.9229 -0.1422 -0.5095
 2059TIP3   OH227591   5.816   0.225   1.888 -0.6911  0.1554  0.2354
 2059TIP3    H127592   5.753   0.240   1.818 -1.2291  0.3162  0.7470
 2059TIP3    H227593   5.896   0.268   1.859 -0.6108 -0.6291 -0.7189
 2060TIP3   OH227594   3.303   5.744   1.598 -0.6582 -0.0998  0.1000
 2060TIP3    H127595   3.395   5.765   1.585 -0.8627  0.4618 -0.4902
 2060TIP3    H227596   3.284   5.774   1.687 -0.5685  0.8894 -0.2017
 2061TIP3   OH227597   6.545   5.020  12.904 -0.1879  0.8655 -0.4391
 2061TIP3    H127598   6.494   5.027  12.985  0.5212 -2.5946  0.3631
 2061TIP3    H227599   6.481   5.035  12.834 -1.6529 -0.2120  0.6388
 2062TIP3   OH227600   1.986   3.797   0.185  0.0206 -0.4871 -0.8017
 2062TIP3    H127601   1.967   3.817   0.276  0.4735  0.6792 -0.9464
 2062TIP3    H227602   2.004   3.703   0.183 -1.1550 -0.7355  0.0986
 2063TIP3   OH227603   1.788   2.276  15.349  0.2792  0.1436  0.2803
 2063TIP3    H127604   1.842   2.346  15.384  1.2035  0.1551 -1.0988
 2063TIP3    H227605   1.777   2.215  15.422 -0.8458  1.8915  1.5862
 2064TIP3   OH227606   5.740   5.531   6.066 -0.1705 -0.1415 -0.1107
 2064TIP3    H127607   5.799   5.511   6.138 -1.0234 -0.1218  0.6112
 2064TIP3    H227608   5.684   5.454   6.058 -0.8003  0.2972 -0.0162
 2065TIP3   OH227609   4.765   0.686   0.402  0.5238  0.2535  0.2789
 2065TIP3    H127610   4.736   0.736   0.479  2.8986  0.7517  0.8986
 2065TIP3    H227611   4.774   0.597   0.433  1.6800  0.4931  0.6363
 2066TIP3   OH227612   5.925   4.551  11.067  1.0361  0.2089  0.5164
 2066TIP3    H127613   5.917   4.456  11.073 -2.5238  0.3520 -0.4910
 2066TIP3    H227614   5.880   4.584  11.145  1.0520  1.0622  0.1763
 2067TIP3   OH227615   4.339   4.161   4.726  0.2419  0.1286  0.2439
 2067TIP3    H127616   4.298   4.142   4.642  1.8764 -1.6257 -0.1792
 2067TIP3    H227617   4.296   4.242   4.755 -2.3756 -0.7765 -0.8998
 2068TIP3   OH227618   3.637   2.281   0.831 -0.0319  0.2762 -0.6069
 2068TIP3    H127619   3.676   2.199   0.801 -0.4698 -0.9384  2.0075
 2068TIP3    H227620   3.697   2.312   0.899 -1.3198  0.6497  0.3743
 2069TIP3   OH227621   3.703   3.587  13.139  0.1128  0.3672 -0.1147
 2069TIP3    H127622   3.762   3.629  13.202  0.5494  0.2761 -0.4572
 2069TIP3    H227623   3.673   3.659  13.083  0.1097  0.3699 -0.1086
 2070TIP3   OH227624   1.968   4.815   3.388  0.6534  0.0730  0.4443
 2070TIP3    H127625   1.951   4.722   3.398  1.4937  0.1479  2.7677
 2070TIP3    H227626   1.961   4.851   3.476  0.5125  2.1910 -0.3872
 2071TIP3   OH227627   2.337   2.328   2.622  0.2577  0.6437  0.1345
 2071TIP3    H127628   2.248   2.323   2.588 -0.1070 -1.6167  1.3169
 2071TIP3    H227629   2.328   2.310   2.716  1.9140  0.7847  0.3368
 2072TIP3   OH227630   3.202   3.019  12.931 -0.5379  0.9910 -0.5405
 2072TIP3    H127631   3.193   3.114  12.935 -0.7141  0.9892 -0.8370
 2072TIP3    H227632   3.128   2.985  12.981 -0.4103  1.0121 -0.3384
 2073TIP3   OH227633   4.011   5.518   1.729  0.1760  0.2449 -0.2487
 2073TIP3    H127634   4.078   5.461   1.692 -0.5041  0.0957 -1.2821
 2073TIP3    H227635   3.968   5.557   1.653 -0.3575  0.9747  0.4216
 2074TIP3   OH227636   0.828   6.572  13.449 -0.2494  0.3689  0.0492
 2074TIP3    H127637   0.771   6.647  13.466  0.9798  1.0132  1.4580
 2074TIP3    H227638   0.916   6.603  13.472  0.0680 -2.0229  2.3118
 2075TIP3   OH227639   5.615   6.785   4.492  0.3409 -0.6931  0.2259
 2075TIP3    H127640   5.588   6.864   4.446 -1.4218 -1.5503 -0.2304
 2075TIP3    H227641   5.604   6.806   4.585  1.2918  0.0826  0.1789
 2076TIP3   OH227642   0.708   0.725  13.425 -0.1130  0.4574 -0.6121
 2076TIP3    H127643   0.734   0.635  13.405  0.3389  1.0173 -2.7444
 2076TIP3    H227644   0.615   0.718  13.448 -0.0294 -0.5921 -0.5601
 2077TIP3   OH227645   3.581   3.295  16.052 -0.1465 -0.0386 -0.8534
 2077TIP3    H127646   3.643   3.350  16.100  0.3141 -1.3375  0.0765
 2077TIP3    H227647   3.637   3.234  16.004 -0.6387  0.5985 -2.2458
 2078TIP3   OH227648   2.758   1.117  11.009  0.0663  0.4016  0.2863
 2078TIP3    H127649   2.813   1.163  11.072 -1.4038  0.3314  1.6539
 2078TIP3    H227650   2.791   1.027  11.009  0.0965  0.4091  0.9559
 2079TIP3   OH227651   4.031   1.873  11.602  0.7656 -0.1368  0.8635
 2079TIP3    H127652   4.119   1.842  11.627  0.5193 -2.0615 -0.5280
 2079TIP3    H227653   4.021   1.845  11.511 -0.0545  2.9141 -0.0368
 2080TIP3   OH227654   5.919   3.351  13.343 -0.3890 -0.3138 -0.5021
 2080TIP3    H127655   6.004   3.358  13.387  0.1130  1.5043 -1.6878
 2080TIP3    H227656   5.870   3.287  13.395  1.0555 -0.0328  1.2572
 2081TIP3   OH227657   0.378   0.358   2.181  0.6610  0.2200  0.6044
 2081TIP3    H127658   0.445   0.327   2.120  0.8524  0.4792  0.6832
 2081TIP3    H227659   0.383   0.453   2.176  0.3176  0.2412  0.6332
 2082TIP3   OH227660   5.205   4.277  15.270  0.7918  0.9589  0.2920
 2082TIP3    H127661   5.190   4.294  15.363  0.2399  1.1679  0.1679
 2082TIP3    H227662   5.215   4.182  15.265  2.3214  1.0761  0.7706
 2083TIP3   OH227663   5.990   4.966   1.638  0.0749  0.0523 -0.1118
 2083TIP3    H127664   6.053   5.006   1.578 -0.5605 -0.4798 -1.1412
 2083TIP3    H227665   5.947   5.041   1.680  2.9629  0.4319  2.3224
 2084TIP3   OH227666   3.231   0.723  12.264  0.1887 -0.1649  0.2193
 2084TIP3    H127667   3.202   0.814  12.257  3.4835  0.8622 -0.8712
 2084TIP3    H227668   3.259   0.714  12.355 -1.1934 -0.4450  0.6280
 2085TIP3   OH227669   5.400   2.795  12.167 -0.3734 -0.2955  0.1216
 2085TIP3    H127670   5.454   2.810  12.089 -1.6521 -0.5867 -0.8359
 2085TIP3    H227671   5.426   2.709  12.197  0.4220 -0.0139  0.2657
 2086TIP3   OH227672   0.631   1.167   4.119 -0.0375  0.9118 -0.4240
 2086TIP3    H127673   0.544   1.196   4.093 -0.0552  0.6343 -0.6690
 2086TIP3    H227674   0.642   1.082   4.076 -0.2252  0.2614  0.7843
 2087TIP3   OH227675   3.678   2.903  16.193 -0.1692 -0.0214 -0.4349
 2087TIP3    H127676   3.610   2.836  16.195  0.8079 -1.0560 -0.9264
 2087TIP3    H227677   3.725   2.892  16.276  0.0573 -0.0354 -0.5626
 2088TIP3   OH227678   4.417   2.490   4.360 -0.0255  0.4707  0.1736
 2088TIP3    H127679   4.503   2.525   4.386 -0.1525  0.5683  0.4629
 2088TIP3    H227680   4.399   2.422   4.425  1.1384 -1.5502 -1.5095
 2089TIP3   OH227681   4.640   5.155  14.681 -0.3265 -0.4567 -0.1171
 2089TIP3    H127682   4.558   5.141  14.632 -0.3026  0.2921 -0.3681
 2089TIP3    H227683   4.708   5.151  14.615 -0.1102 -1.5535  0.1592
 2090TIP3   OH227684   4.270   5.982   4.142  0.3471 -0.3811  0.2275
 2090TIP3    H127685   4.250   6.076   4.141  0.5950 -0.3262  0.5577
 2090TIP3    H227686   4.362   5.977   4.167  0.3128 -0.7172  0.2876
 2091TIP3   OH227687   2.578   2.011  13.178  0.8281 -0.8405  0.4396
 2091TIP3    H127688   2.516   2.069  13.221 -0.9321 -2.3146 -0.0265
 2091TIP3    H227689   2.626   2.067  13.116  1.4883  0.7361  2.3301
 2092TIP3   OH227690   0.265   5.844   4.970  0.2296 -0.3305 -0.3192
 2092TIP3    H127691   0.219   5.838   5.054  0.7058 -2.8783 -0.2114
 2092TIP3    H227692   0.355   5.863   4.994  0.1474  0.0648 -0.3172
 2093TIP3   OH227693   1.532   4.329   4.274  0.2399  0.3158 -0.0305
 2093TIP3    H127694   1.449   4.362   4.238 -0.3055 -0.1619  0.7679
 2093TIP3    H227695   1.516   4.236   4.290  0.8721  0.2610  0.2837
 2094TIP3   OH227696   0.819   5.897   5.002  0.1761  0.0384 -0.0054
 2094TIP3    H127697   0.886   5.963   4.985  0.7075 -0.2355  0.9581
 2094TIP3    H227698   0.868   5.818   5.023 -0.4518 -0.3199  0.1326
 2095TIP3   OH227699   6.408   4.147  13.051  0.5250  0.2879 -0.1100
 2095TIP3    H127700   6.482   4.204  13.071  0.8854 -0.6594  1.3542
 2095TIP3    H227701   6.447   4.060  13.040 -0.3066 -0.1260  0.1746
 2096TIP3   OH227702   1.531   0.231   3.227  0.2192  0.4318  0.0974
 2096TIP3    H127703   1.480   0.211   3.305 -0.6185 -2.6821 -1.1869
 2096TIP3    H227704   1.622   0.215   3.251 -0.1184 -1.3865  0.1865
 2097TIP3   OH227705   5.509   0.538  11.037 -0.3014 -0.8068  0.5023
 2097TIP3    H127706   5.421   0.506  11.014 -1.2382  1.7744  0.2677
 2097TIP3    H227707   5.567   0.497  10.973 -1.9751  0.8731 -2.2298
 2098TIP3   OH227708   1.876   1.556  15.115 -0.1198  0.3082  0.5270
 2098TIP3    H127709   1.845   1.602  15.037 -2.5842 -2.1415  0.0103
 2098TIP3    H227710   1.928   1.483  15.081 -0.9788 -0.6149  1.1961
 2099TIP3   OH227711   1.938   3.183   3.154 -0.2509  0.4874 -0.0330
 2099TIP3    H127712   1.897   3.259   3.196  0.8825  0.5925  0.9108
 2099TIP3    H227713   2.009   3.159   3.214 -0.4194 -1.1286 -0.4776
 2100TIP3   OH227714   4.364   3.609   5.975 -0.2896  0.1222 -0.4845
 2100TIP3    H127715   4.390   3.677   5.914 -1.5924  0.4592 -0.6943
 2100TIP3    H227716   4.354   3.655   6.059  3.0954 -0.6375  0.4006
 2101TIP3   OH227717   0.425   5.355  14.514 -0.0995  0.0066  0.0129
 2101TIP3    H127718   0.422   5.276  14.568  0.5909 -0.3882 -0.5231
 2101TIP3    H227719   0.337   5.392  14.521  0.2680  0.5482  2.2810
 2102TIP3   OH227720   5.309   5.102  13.703 -0.0011 -0.0165  0.7612
 2102TIP3    H127721   5.335   5.061  13.785 -0.8084  1.9273  2.0203
 2102TIP3    H227722   5.214   5.088  13.698  0.3299 -1.9439 -0.9053
 2103TIP3   OH227723   2.790   0.607   4.848 -0.1394 -0.0224 -0.4234
 2103TIP3    H127724   2.730   0.542   4.885  0.2753 -0.6262 -0.8140
 2103TIP3    H227725   2.769   0.608   4.754 -0.7651  1.0597 -0.2828
 2104TIP3   OH227726   1.001   0.238  16.207  0.1810  0.3059  0.6878
 2104TIP3    H127727   0.980   0.152  16.243  0.7315  0.0868  0.4949
 2104TIP3    H227728   1.094   0.252  16.228  0.1441  0.7710  0.5624
 2105TIP3   OH227729   4.051   0.592  17.116  0.2172 -0.6091  0.4284
 2105TIP3    H127730   4.011   0.679  17.121  0.4261 -0.5441  0.9685
 2105TIP3    H227731   3.984   0.533  17.151  0.3614 -0.5729  0.7684
 2106TIP3   OH227732   3.260   1.881  12.845  0.3999 -0.8192  0.0600
 2106TIP3    H127733   3.233   1.860  12.755  0.4679  0.3601 -0.2512
 2106TIP3    H227734   3.325   1.951  12.834 -1.1253  0.8200  1.0930
 2107TIP3   OH227735   0.224   2.852  13.572  0.4454  0.3410 -0.4780
 2107TIP3    H127736   0.280   2.923  13.539 -1.0869  2.2797  1.0093
 2107TIP3    H227737   0.137   2.873  13.539  0.3680 -2.1589 -1.9810
 2108TIP3   OH227738   0.584   4.847  11.236  1.4324 -0.4119 -0.1155
 2108TIP3    H127739   0.624   4.883  11.157 -1.3788 -1.7294 -2.1983
 2108TIP3    H227740   0.530   4.918  11.270  2.8043  0.2242  0.7786
 2109TIP3   OH227741   4.830   4.373  15.303 -0.4501 -0.1348  0.0833
 2109TIP3    H127742   4.867   4.401  15.219 -1.6062 -0.1278 -0.4402
 2109TIP3    H227743   4.850   4.444  15.363 -1.3473  0.7948 -0.6851
 2110TIP3   OH227744   2.981   0.616   2.187 -0.1666 -0.8572 -0.1296
 2110TIP3    H127745   2.979   0.604   2.282 -0.0116  0.7368  0.0903
 2110TIP3    H227746   3.009   0.707   2.175 -3.3095 -0.0250 -1.6225
 2111TIP3   OH227747   0.763   4.373  16.172 -0.1370  0.1022  0.0724
 2111TIP3    H127748   0.810   4.336  16.247 -1.4987 -0.6320  0.5725
 2111TIP3    H227749   0.809   4.456  16.154  0.1946  0.2987  1.7274
 2112TIP3   OH227750   4.561   5.188  17.229 -0.2615 -0.6460 -0.1829
 2112TIP3    H127751   4.514   5.172  17.147 -0.6383 -0.8235  0.0669
 2112TIP3    H227752   4.505   5.150  17.297  1.0165 -2.3628 -0.0360
 2113TIP3   OH227753   2.551   3.597   6.437  0.1822  1.2534  0.1538
 2113TIP3    H127754   2.544   3.685   6.474 -0.9073  1.5387 -0.7259
 2113TIP3    H227755   2.461   3.567   6.428  0.5227  0.3175 -0.2093
 2114TIP3   OH227756   4.464   5.008  11.544 -0.3383  0.3860 -0.1243
 2114TIP3    H127757   4.383   5.050  11.572 -0.3399  0.4710 -0.2564
 2114TIP3    H227758   4.489   4.952  11.618 -1.0128 -0.3510 -0.4525
 2115TIP3   OH227759   2.962   4.833   3.864  0.4820  0.1874 -0.2862
 2115TIP3    H127760   2.918   4.806   3.784 -0.5480 -0.8640  0.6161
 2115TIP3    H227761   2.924   4.918   3.885  0.2376  0.1335 -0.5147
 2116TIP3   OH227762   0.408   5.344  13.538  0.6683  0.3596 -0.4521
 2116TIP3    H127763   0.384   5.260  13.577  0.6158 -0.9467 -3.2165
 2116TIP3    H227764   0.488   5.369  13.584  0.7600 -1.2483  0.3208
 2117TIP3   OH227765   1.392   1.788  13.872  0.5095 -0.0835 -0.0074
 2117TIP3    H127766   1.377   1.858  13.808 -0.3195  0.8193  1.1466
 2117TIP3    H227767   1.333   1.718  13.844  0.4357  0.1560 -0.4656
 2118TIP3   OH227768   2.110   3.426  16.367 -0.4955  0.4904 -0.0347
 2118TIP3    H127769   2.195   3.429  16.409 -0.9506  1.3997  0.8316
 2118TIP3    H227770   2.113   3.348  16.311  1.9703  2.1760 -2.3624
 2119TIP3   OH227771   1.016   5.465  16.765 -0.1827  0.5629 -0.2318
 2119TIP3    H127772   0.940   5.520  16.749  0.3028  1.7008  1.2888
 2119TIP3    H227773   0.979   5.384  16.801 -0.5934  1.7729  2.1752
 2120TIP3   OH227774   4.493   4.559   1.771  0.0589  0.0505  0.4499
 2120TIP3    H127775   4.565   4.616   1.796  0.7565 -1.1922  1.3496
 2120TIP3    H227776   4.418   4.591   1.821  0.2059  0.7903  0.1960
 2121TIP3   OH227777   3.441   2.757   4.292  0.0829  0.6062  0.2022
 2121TIP3    H127778   3.417   2.668   4.318  0.6336  0.0513 -1.1614
 2121TIP3    H227779   3.378   2.813   4.338 -3.4948 -0.7680 -2.7611
 2122TIP3   OH227780   3.985   6.181  12.011 -0.0067  0.0639 -0.2035
 2122TIP3    H127781   3.904   6.149  12.052  0.1196  0.9277  0.7416
 2122TIP3    H227782   3.974   6.161  11.918 -2.1679  1.9281 -0.4058
 2123TIP3   OH227783   6.367   5.057   2.309 -0.5761 -0.8887  0.3191
 2123TIP3    H127784   6.337   5.134   2.357  2.2948  0.6068 -0.1885
 2123TIP3    H227785   6.327   5.065   2.222  2.0129  1.6582 -0.7145
 2124TIP3   OH227786   4.999   3.949  16.356 -0.2008  0.3502 -0.3253
 2124TIP3    H127787   5.070   3.894  16.322  2.0927  0.7492  3.5367
 2124TIP3    H227788   5.044   4.016  16.408 -3.1702  3.6546 -1.8299
 2125TIP3   OH227789   6.732   0.843  14.907 -0.0149 -0.0137  0.4462
 2125TIP3    H127790   6.685   0.763  14.928 -0.1149 -0.5231 -1.6315
 2125TIP3    H227791   6.808   0.843  14.965 -0.5547 -1.0766  1.1608
 2126TIP3   OH227792   5.059   3.224  16.815 -0.0587 -0.2145 -0.0003
 2126TIP3    H127793   5.042   3.130  16.822 -0.5918  0.0140  2.0455
 2126TIP3    H227794   5.151   3.233  16.842 -0.1963 -0.0793  0.4275
 2127TIP3   OH227795   3.677   4.696   5.303  0.5342 -0.2841 -0.1068
 2127TIP3    H127796   3.683   4.776   5.250  1.7741  0.0845  0.5783
 2127TIP3    H227797   3.689   4.727   5.393 -0.9483 -0.9834  0.3489
 2128TIP3   OH227798   0.340   6.614   2.891  0.5947 -0.3838 -0.1060
 2128TIP3    H127799   0.275   6.558   2.849  0.2908  0.2279 -0.4574
 2128TIP3    H227800   0.290   6.666   2.954  0.6667  0.4616 -0.7511
 2129TIP3   OH227801   2.055   4.265  16.579  0.2546  0.2988 -0.1357
 2129TIP3    H127802   1.981   4.303  16.626  0.2142 -2.1344  1.8829
 2129TIP3    H227803   2.128   4.270  16.640  1.6733  2.1529 -1.9069
 2130TIP3   OH227804   4.866   0.420  12.535 -0.4797  0.2449  0.3980
 2130TIP3    H127805   4.958   0.401  12.522 -0.6933  0.0370 -0.9160
 2130TIP3    H227806   4.852   0.505  12.492 -1.0371 -0.0400  0.0039
 2131TIP3   OH227807   0.525   5.365  15.697 -0.3719  0.1204 -0.4146
 2131TIP3    H127808   0.461   5.306  15.656 -1.0313 -0.2892  1.1658
 2131TIP3    H227809   0.481   5.398  15.775  1.5820 -0.6916  1.0828
 2132TIP3   OH227810   1.848   0.151  15.308  0.1454 -0.4807 -0.9425
 2132TIP3    H127811   1.762   0.174  15.343  0.9964 -0.1731  1.0178
 2132TIP3    H227812   1.887   0.235  15.283  0.6634 -0.4105  0.0744
 2133TIP3   OH227813   5.535   0.737  13.317 -0.3683  0.2866  0.3436
 2133TIP3    H127814   5.612   0.759  13.370  0.0751  1.5193 -0.7760
 2133TIP3    H227815   5.556   0.653  13.278  0.1476  0.3162  0.5496
 2134TIP3   OH227816   3.357   0.381   4.677 -0.6800  0.1224 -0.0793
 2134TIP3    H127817   3.353   0.420   4.764 -1.5752  0.9847 -0.4974
 2134TIP3    H227818   3.438   0.415   4.639 -0.4044 -0.0782  0.3217
 2135TIP3   OH227819   6.649   5.169  16.858 -0.2971  0.0698 -1.0025
 2135TIP3    H127820   6.610   5.197  16.775 -0.3484  0.8469 -0.7214
 2135TIP3    H227821   6.741   5.152  16.837 -0.7912 -1.8928 -1.6901
 2136TIP3   OH227822   5.060   6.654   3.358  0.2839 -0.0674 -0.1785
 2136TIP3    H127823   5.120   6.725   3.339 -0.0691 -0.7054 -4.1463
 2136TIP3    H227824   5.107   6.599   3.420  2.3739  1.2939 -0.5097
 2137TIP3   OH227825   6.490   3.959  10.702  0.3054 -0.9080 -0.0375
 2137TIP3    H127826   6.464   4.051  10.690 -0.2708 -0.9144  1.0741
 2137TIP3    H227827   6.491   3.923  10.613 -2.2851 -0.5723 -0.2377
 2138TIP3   OH227828   2.467   4.998   1.280 -0.0563 -0.1760  0.5358
 2138TIP3    H127829   2.482   4.960   1.193  0.4348 -1.7098  1.2628
 2138TIP3    H227830   2.375   5.024   1.280  0.0589  0.2418 -0.5991
 2139TIP3   OH227831   6.162   0.978  13.095 -0.0772  0.4445 -0.1603
 2139TIP3    H127832   6.165   0.884  13.078 -1.0135  0.6014 -1.3284
 2139TIP3    H227833   6.072   0.994  13.123  0.4999  0.7592  1.5603
 2140TIP3   OH227834   5.142   6.344  10.988 -0.1951  0.0269  0.8268
 2140TIP3    H127835   5.219   6.391  11.019 -2.4701  3.4622  1.5226
 2140TIP3    H227836   5.141   6.359  10.893  0.5588 -0.9859  0.6439
 2141TIP3   OH227837   3.243   5.798   1.856 -0.2011 -0.0426 -0.4164
 2141TIP3    H127838   3.311   5.865   1.864 -0.1416 -0.2787  1.2880
 2141TIP3    H227839   3.187   5.811   1.932 -1.5291 -0.4561 -1.3104
 2142TIP3   OH227840   2.934   1.547  12.057 -0.3872  0.0441 -0.4997
 2142TIP3    H127841   2.886   1.625  12.087  0.0631  0.9522 -2.0730
 2142TIP3    H227842   2.875   1.507  11.993  0.6066  0.7560 -1.8909
 2143TIP3   OH227843   4.342   6.172   3.004  0.2440  0.0746 -0.2939
 2143TIP3    H127844   4.380   6.246   2.955 -1.3270  0.5314 -0.8530
 2143TIP3    H227845   4.256   6.203   3.031  1.4328  0.2009  3.6954
 2144TIP3   OH227846   5.536   5.016   0.585  0.4686 -0.2321 -0.5871
 2144TIP3    H127847   5.597   5.065   0.530  0.2991 -0.1668 -0.7222
 2144TIP3    H227848   5.578   4.932   0.599  0.8477  0.0181 -0.1947
 2145TIP3   OH227849   3.106   6.512   0.038 -0.0109  0.1863 -0.0168
 2145TIP3    H127850   3.079   6.479   0.124 -1.7248 -2.6316 -1.5496
 2145TIP3    H227851   3.155   6.439  -0.001 -0.4918  0.8794 -1.9656
 2146TIP3   OH227852   4.798   4.587   6.391 -0.1914  0.1841 -0.3452
 2146TIP3    H127853   4.769   4.578   6.300  0.9004  1.2938 -0.8194
 2146TIP3    H227854   4.852   4.511   6.406 -2.0139 -1.0699  0.0380
 2147TIP3   OH227855   4.302   6.536  11.428  0.3325 -0.5974  0.0803
 2147TIP3    H127856   4.207   6.538  11.434  0.3826  1.4064  0.8391
 2147TIP3    H227857   4.320   6.547  11.335 -0.2066  2.4627  0.2534
 2148TIP3   OH227858   1.043   2.276  15.273 -0.7597  0.1106  0.0848
 2148TIP3    H127859   1.029   2.346  15.209  1.6531  0.2129 -0.3703
 2148TIP3    H227860   1.091   2.317  15.344  0.4477 -1.0032 -0.0620
 2149TIP3   OH227861   6.147   2.829   0.723  0.2173 -0.0666 -0.1973
 2149TIP3    H127862   6.054   2.851   0.718  0.1391 -0.2665  0.3801
 2149TIP3    H227863   6.167   2.829   0.816  1.2005  1.6534 -0.3660
 2150TIP3   OH227864   0.175   3.336  12.152  0.3421 -0.2213  0.0554
 2150TIP3    H127865   0.112   3.371  12.215 -0.0490  0.5085 -0.7286
 2150TIP3    H227866   0.134   3.348  12.067  2.0492  1.4445 -0.5874
 2151TIP3   OH227867   6.105   6.592   0.739  0.0116  0.6653  0.0965
 2151TIP3    H127868   6.113   6.609   0.645 -0.8160  2.0878  0.2639
 2151TIP3    H227869   6.022   6.634   0.763 -0.6702 -1.2120  1.1201
 2152TIP3   OH227870   2.897   4.479   2.448  0.4560 -0.1836  0.1836
 2152TIP3    H127871   2.873   4.549   2.388  1.1790  0.1585  0.2953
 2152TIP3    H227872   2.873   4.398   2.402  2.3739  0.0096 -1.1885
 2153TIP3   OH227873   2.464   4.018   4.682  0.0925 -0.0271 -0.6023
 2153TIP3    H127874   2.409   4.089   4.714 -0.9485 -1.3435  0.5647
 2153TIP3    H227875   2.484   3.965   4.759 -0.4953 -1.9161 -1.7102
 2154TIP3   OH227876   0.866   5.273  12.263 -0.0185  0.2070  0.5528
 2154TIP3    H127877   0.912   5.197  12.228 -0.4440  0.8621 -1.5356
 2154TIP3    H227878   0.881   5.342  12.198 -0.1003  1.7491  2.1350
 2155TIP3   OH227879   6.004   2.594   4.695 -0.6058 -0.1669 -0.3931
 2155TIP3    H127880   6.091   2.558   4.675 -0.1080  1.7862 -1.9235
 2155TIP3    H227881   6.010   2.622   4.786 -0.0238 -1.1368 -0.1186
 2156TIP3   OH227882   1.359   4.840   2.239 -0.0969  0.3867 -0.5027
 2156TIP3    H127883   1.418   4.772   2.205 -0.0320 -0.7878  1.8631
 2156TIP3    H227884   1.408   4.921   2.231  1.1376 -0.3282 -0.2301
 2157TIP3   OH227885   4.241   5.560  14.086 -0.3507 -0.4490 -0.6806
 2157TIP3    H127886   4.242   5.563  14.182  0.0891 -0.5941 -0.6775
 2157TIP3    H227887   4.196   5.641  14.060 -0.5433 -0.4497 -0.3514
 2158TIP3   OH227888   3.369   6.190  16.947  0.6246 -0.3296  0.2058
 2158TIP3    H127889   3.354   6.119  16.885  0.5120  1.0221 -1.3410
 2158TIP3    H227890   3.460   6.217  16.932  0.5866  0.0279  0.5841
 2159TIP3   OH227891   2.888   1.471  16.845  0.0541 -0.1354 -0.1112
 2159TIP3    H127892   2.811   1.421  16.819  0.2371 -0.1012 -0.7154
 2159TIP3    H227893   2.863   1.512  16.928  0.1807 -1.8408  0.7798
 2160TIP3   OH227894   5.498   0.667  12.930  0.2915  0.1948 -0.8430
 2160TIP3    H127895   5.573   0.607  12.927 -0.3541 -0.6568 -0.0536
 2160TIP3    H227896   5.422   0.611  12.940 -0.3687  1.1214 -0.5830
 2161TIP3   OH227897   5.900   0.050  16.623  0.3146  0.0593 -0.4860
 2161TIP3    H127898   5.978   0.007  16.587  0.7017  2.3382 -2.4760
 2161TIP3    H227899   5.829  -0.012  16.607  1.7892 -2.3235  1.9197
 2162TIP3   OH227900   5.521   3.364  16.080  0.3186  0.1851  0.5429
 2162TIP3    H127901   5.601   3.311  16.079  0.0556 -0.2097 -1.9870
 2162TIP3    H227902   5.551   3.453  16.097  1.2251 -0.0885  0.3880
 2163TIP3   OH227903   4.584   1.128   1.443 -0.0721  0.4114 -0.4168
 2163TIP3    H127904   4.633   1.201   1.481 -0.5811 -0.3072  1.6307
 2163TIP3    H227905   4.501   1.128   1.489  0.5263 -2.4662  0.7432
 2164TIP3   OH227906   5.384   2.192   4.150 -0.3366  0.2862 -0.0337
 2164TIP3    H127907   5.438   2.114   4.149  0.9778  1.1686  0.2373
 2164TIP3    H227908   5.372   2.212   4.243  1.3064  1.7201 -0.1058
 2165TIP3   OH227909   3.945   3.895  13.964  0.0451  0.0539  0.1518
 2165TIP3    H127910   3.893   3.845  14.026 -0.3992 -0.0595 -0.3097
 2165TIP3    H227911   4.034   3.895  14.001 -0.2375  0.0685  0.8266
 2166TIP3   OH227912   0.684   0.325   0.075 -0.0754 -0.0692 -0.0630
 2166TIP3    H127913   0.723   0.300  -0.009  0.0085 -0.8032  0.1850
 2166TIP3    H227914   0.618   0.389   0.053  1.4224  1.3624 -0.4720
 2167TIP3   OH227915   0.743   3.343   6.371  0.1917  0.1568 -0.7041
 2167TIP3    H127916   0.674   3.381   6.317  0.5139  1.5644 -0.1283
 2167TIP3    H227917   0.735   3.388   6.455  1.2655 -0.2913 -0.3588
 2168TIP3   OH227918   2.028   5.974   3.336  0.0058 -0.1741 -0.6874
 2168TIP3    H127919   1.988   5.975   3.423  0.3146 -1.7291 -0.5127
 2168TIP3    H227920   2.080   6.054   3.332  1.0034 -0.7165  1.0556
 2169TIP3   OH227921   4.363   3.475   0.401 -0.7269 -0.7330 -0.0749
 2169TIP3    H127922   4.344   3.564   0.431 -0.7299 -0.7626  0.0118
 2169TIP3    H227923   4.407   3.486   0.317 -0.1004 -0.6224  0.2624
 2170TIP3   OH227924   6.101   1.913  16.092  0.7973 -0.4320 -0.3108
 2170TIP3    H127925   6.104   1.826  16.133  1.6793  0.0563  0.6803
 2170TIP3    H227926   6.185   1.920  16.046 -0.4096 -1.1977 -2.6927
 2171TIP3   OH227927   6.537   4.244   1.056 -0.6103 -0.0530 -0.2028
 2171TIP3    H127928   6.463   4.262   1.113 -0.6661 -1.8550  0.3308
 2171TIP3    H227929   6.528   4.151   1.035  1.6086 -0.3338  0.0308
 2172TIP3   OH227930   6.392   5.897   1.209  0.6777 -0.4982  0.1598
 2172TIP3    H127931   6.468   5.954   1.213  0.3913  0.0770 -2.2478
 2172TIP3    H227932   6.323   5.945   1.255  1.1425 -0.0301  0.3654
 2173TIP3   OH227933   1.765   1.772  13.570  0.1601  0.9618  0.3379
 2173TIP3    H127934   1.846   1.746  13.526  0.2578  0.6693  0.6857
 2173TIP3    H227935   1.779   1.863  13.596  0.0649  1.1691 -0.3150
 2174TIP3   OH227936   6.633   1.036  14.743 -0.0575 -0.0697 -0.3318
 2174TIP3    H127937   6.673   0.976  14.807  0.9809  1.8919  0.9147
 2174TIP3    H227938   6.635   0.987  14.660 -0.0115 -2.0700  0.8147
 2175TIP3   OH227939   5.387   4.733  13.616 -0.5872  0.4624  0.2119
 2175TIP3    H127940   5.428   4.744  13.530  0.2439 -0.9847  0.3933
 2175TIP3    H227941   5.296   4.710  13.597  0.1760 -2.3194 -0.4003
 2176TIP3   OH227942   1.300   1.942   1.824  0.7472  0.0621 -0.6633
 2176TIP3    H127943   1.300   1.878   1.896  0.7251 -1.3954 -1.9209
 2176TIP3    H227944   1.365   2.007   1.849  0.3252 -0.1140  0.9438
 2177TIP3   OH227945   5.005   0.714  12.729  0.1418  0.1822 -0.5346
 2177TIP3    H127946   5.048   0.724  12.813  2.1811 -0.8087 -1.4185
 2177TIP3    H227947   5.076   0.697  12.667 -1.5775 -2.5086 -1.8876
 2178TIP3   OH227948   2.413   1.142  10.872  0.2442  0.5701  0.2135
 2178TIP3    H127949   2.360   1.086  10.816  1.1288  0.2007 -0.2583
 2178TIP3    H227950   2.393   1.231  10.844  2.1463  0.3413 -2.0606
 2179TIP3   OH227951   5.983   0.039  12.466  0.2100  0.5561  1.0509
 2179TIP3    H127952   5.933   0.067  12.390  1.9798  0.9277  0.0137
 2179TIP3    H227953   5.989  -0.056  12.457  0.3216  0.5878  0.7923
 2180TIP3   OH227954   3.189   3.030  11.356 -0.6267 -0.1090  0.1596
 2180TIP3    H127955   3.240   2.990  11.285 -0.7954  0.3446 -0.2186
 2180TIP3    H227956   3.240   3.012  11.435  0.1539  0.3813 -0.2227
 2181TIP3   OH227957   1.663   1.914  16.799  0.6489 -0.4819  0.1020
 2181TIP3    H127958   1.702   1.849  16.857  1.2541 -0.5920 -0.4162
 2181TIP3    H227959   1.737   1.970  16.774  0.2370  0.0590  0.0961
 2182TIP3   OH227960   1.631   0.815  16.974 -0.1468  0.6717 -0.2668
 2182TIP3    H127961   1.566   0.863  16.921 -0.4780  0.0728 -0.4159
 2182TIP3    H227962   1.713   0.861  16.960 -0.1785  0.3623 -1.5346
 2183TIP3   OH227963   0.981   4.228  15.364  0.3276 -0.1223 -0.1858
 2183TIP3    H127964   0.945   4.254  15.449  0.5236 -0.2684 -0.0568
 2183TIP3    H227965   0.972   4.305  15.309  0.1866 -0.0312 -0.0353
 2184TIP3   OH227966   2.632   4.569  13.000  0.0297 -0.4055 -0.3496
 2184TIP3    H127967   2.615   4.650  13.048 -0.2559 -0.3249 -0.5795
 2184TIP3    H227968   2.663   4.507  13.066  0.9516  0.1056 -0.2948
 2185TIP3   OH227969   0.024   3.091   2.797  0.0734  0.1474  0.2061
 2185TIP3    H127970  -0.041   3.042   2.748  1.2741 -0.2890 -0.9595
 2185TIP3    H227971   0.004   3.072   2.889 -1.1071 -0.3867 -0.1514
 2186TIP3   OH227972   5.516   2.915  12.908  0.9947 -0.1344  0.3110
 2186TIP3    H127973   5.484   2.966  12.834  0.8677 -0.3590  0.2093
 2186TIP3    H227974   5.556   2.979  12.967  0.2310  0.1558  0.5089
 2187TIP3   OH227975   4.123   2.616  12.685 -0.3500  0.3051 -0.1857
 2187TIP3    H127976   4.141   2.709  12.672 -2.2669  0.3631 -2.7574
 2187TIP3    H227977   4.044   2.614  12.739 -0.0265  0.1417  0.2891
 2188TIP3   OH227978   1.120   0.436   0.168 -0.2921 -0.0561 -0.5269
 2188TIP3    H127979   1.139   0.400   0.081  0.7501  1.9149 -1.1556
 2188TIP3    H227980   1.193   0.496   0.185 -0.5437 -0.3355  1.6722
 2189TIP3   OH227981   0.695   4.261  13.197 -0.0880 -0.4999 -0.1353
 2189TIP3    H127982   0.764   4.197  13.177  1.6149  1.2176  0.1401
 2189TIP3    H227983   0.697   4.270  13.292  0.3331  0.6845 -0.2517
 2190TIP3   OH227984   3.392   3.386  13.822 -0.2942 -0.2057  0.3820
 2190TIP3    H127985   3.305   3.348  13.826 -0.4610  0.1336  0.0096
 2190TIP3    H227986   3.402   3.431  13.906 -0.6353  0.1031  0.2563
 2191TIP3   OH227987   2.893   1.740  17.085  0.7440 -0.6002 -0.2896
 2191TIP3    H127988   2.866   1.658  17.127  0.2489  0.6665  1.9435
 2191TIP3    H227989   2.835   1.807  17.123  2.0043  0.9850 -1.0935
 2192TIP3   OH227990   2.184   6.546   4.695  0.3550  0.5651 -0.9696
 2192TIP3    H127991   2.231   6.561   4.777 -0.9558  0.2271 -0.1430
 2192TIP3    H227992   2.193   6.628   4.647  1.6537  0.5531 -0.7468
 2193TIP3   OH227993   1.993   5.303  11.271  0.2155 -0.4603 -0.4194
 2193TIP3    H127994   2.038   5.224  11.301 -1.4476 -1.0503  0.6361
 2193TIP3    H227995   2.063   5.362  11.244  1.8011 -0.4466  3.3508
 2194TIP3   OH227996   2.639   0.061   5.241  0.4478 -0.3825  0.0328
 2194TIP3    H127997   2.568   0.117   5.209  0.0675 -1.2544 -0.6662
 2194TIP3    H227998   2.701   0.121   5.282 -0.4359  0.4444  0.1695
 2195TIP3   OH227999   5.441   6.198   1.186  0.1060  0.2278 -0.0495
 2195TIP3    H128000   5.352   6.165   1.200  0.1884  0.1888  0.3923
 2195TIP3    H228001   5.497   6.126   1.212  0.2624  0.1497 -0.6077
 2196TIP3   OH228002   6.474   4.447  13.910  0.0968  0.3467 -0.0710
 2196TIP3    H128003   6.477   4.373  13.849  2.0379  0.6865 -0.4273
 2196TIP3    H228004   6.564   4.457  13.940 -0.2454  2.2044  0.3999
 2197TIP3   OH228005   0.956   5.611  12.961 -0.2529 -0.7554  0.0917
 2197TIP3    H128006   1.017   5.538  12.955  0.2809 -0.2355 -1.0539
 2197TIP3    H228007   1.000   5.683  12.915 -1.6967 -0.3545 -0.7050
 2198TIP3   OH228008   4.517   1.904   5.660 -0.2096 -0.9651 -0.0088
 2198TIP3    H128009   4.601   1.935   5.627 -1.4148  2.5455 -0.0962
 2198TIP3    H228010   4.484   1.846   5.592  0.1481  1.2588 -2.1657
 2199TIP3   OH228011   3.872   1.961  14.543  0.2579 -0.2828 -0.1944
 2199TIP3    H128012   3.921   2.043  14.544  1.1099 -0.7850  2.1946
 2199TIP3    H228013   3.831   1.958  14.456  1.5640  1.8522 -0.9078
 2200TIP3   OH228014   5.257   5.374   2.124  0.4237 -0.4243 -0.5101
 2200TIP3    H128015   5.261   5.470   2.118 -1.4198 -0.3706 -1.0600
 2200TIP3    H228016   5.341   5.345   2.088  1.3285  1.0053  0.3986
 2201TIP3   OH228017   4.892   1.676  12.080 -0.6048  0.5214 -0.2116
 2201TIP3    H128018   4.892   1.623  12.160 -1.7255  0.1150 -0.4795
 2201TIP3    H228019   4.981   1.711  12.075 -0.3071 -0.0670  0.8037
 2202TIP3   OH228020   1.464   4.635   0.837  0.1763 -0.5798 -0.4719
 2202TIP3    H128021   1.559   4.642   0.823  0.2052  1.4480  0.4873
 2202TIP3    H228022   1.426   4.692   0.770 -0.2381  0.1222  0.3357
 2203TIP3   OH228023   6.613   1.095   1.866  1.1852 -0.4666  1.1365
 2203TIP3    H128024   6.527   1.056   1.876  0.0487  2.2582  2.4865
 2203TIP3    H228025   6.658   1.039   1.803 -1.2347 -2.4380  1.1084
 2204TIP3   OH228026   4.336   4.268   5.849 -0.3445 -0.0316  0.3694
 2204TIP3    H128027   4.344   4.363   5.837  0.7029 -0.1382  0.2566
 2204TIP3    H228028   4.340   4.232   5.761  1.4166 -0.3428  0.5594
 2205TIP3   OH228029   1.301   5.260   2.897 -0.4666 -0.3935 -0.7736
 2205TIP3    H128030   1.288   5.348   2.932  2.4924 -0.8167  1.6516
 2205TIP3    H228031   1.354   5.272   2.819  0.4197 -0.0452 -0.1217
 2206TIP3   OH228032   1.245   2.091   3.004 -0.1444 -0.6157  0.5055
 2206TIP3    H128033   1.268   2.020   2.943 -1.4347 -0.2119 -0.4797
 2206TIP3    H228034   1.304   2.162   2.981 -0.1170 -0.7277  0.2244
 2207TIP3   OH228035   0.592   4.076  11.608 -0.7937  0.2094  0.6034
 2207TIP3    H128036   0.510   4.123  11.592 -0.7375  0.4267  0.9503
 2207TIP3    H228037   0.571   3.985  11.588 -1.1323  0.2609  0.7152
 2208TIP3   OH228038   5.136   0.137   2.552  0.2878 -0.0494 -0.1772
 2208TIP3    H128039   5.219   0.097   2.523 -0.6594 -3.6631  1.8027
 2208TIP3    H228040   5.071   0.105   2.489 -0.0890  0.2567  0.0565
 2209TIP3   OH228041   4.210   4.465   3.897 -0.1526 -0.5469  0.1398
 2209TIP3    H128042   4.262   4.447   3.819  0.9727  0.4021  0.6515
 2209TIP3    H228043   4.260   4.426   3.969 -0.6859 -0.5545  0.5159
 2210TIP3   OH228044   2.802   4.498   4.517 -0.7495 -0.2120  0.2432
 2210TIP3    H128045   2.765   4.442   4.586 -0.2504 -0.7607  0.0706
 2210TIP3    H228046   2.774   4.456   4.436  0.4975 -0.8097  0.1067
 2211TIP3   OH228047   4.170   5.704   6.185  0.3148 -0.5142  0.0268
 2211TIP3    H128048   4.109   5.645   6.230  0.5098 -0.3904  0.4524
 2211TIP3    H228049   4.229   5.735   6.254  1.5265 -1.4564 -0.5717
 2212TIP3   OH228050   1.433   3.652  14.410  0.5588  0.3041 -0.0194
 2212TIP3    H128051   1.430   3.724  14.473  1.5113  0.2226  0.1331
 2212TIP3    H228052   1.373   3.587  14.446  0.8835  0.3738  0.6707
 2213TIP3   OH228053   0.531   4.709  12.009 -0.1497 -0.4862 -0.3885
 2213TIP3    H128054   0.627   4.713  12.007 -0.1527 -0.7521 -1.2137
 2213TIP3    H228055   0.511   4.628  12.054  0.0159 -0.6831 -0.6698
 2214TIP3   OH228056   0.958   5.718  13.247  0.3303 -0.2492  0.1967
 2214TIP3    H128057   0.922   5.689  13.164 -0.3037  0.3868  0.2423
 2214TIP3    H228058   0.916   5.663  13.313 -0.8898  0.7580  0.2856
 2215TIP3   OH228059   3.789   4.869   1.765  0.2222  0.1656  0.4975
 2215TIP3    H128060   3.823   4.880   1.676 -0.7628  0.0636  0.1083
 2215TIP3    H228061   3.783   4.958   1.800 -1.4813  0.3773 -0.3196
 2216TIP3   OH228062   2.403   5.246   4.991 -0.5565  0.5153  0.0083
 2216TIP3    H128063   2.331   5.292   5.034  0.1974  0.9348  0.8513
 2216TIP3    H228064   2.482   5.291   5.022  0.3041 -2.1256  1.8578
 2217TIP3   OH228065   1.027   2.514   4.418  0.0449  0.1202  0.3905
 2217TIP3    H128066   1.081   2.543   4.491  0.2139 -0.2161  0.4007
 2217TIP3    H228067   1.088   2.468   4.360 -0.4135 -1.1350  0.8930
 2218TIP3   OH228068   1.796   2.476   3.642 -0.0853 -0.3667  0.3616
 2218TIP3    H128069   1.788   2.508   3.552  1.0109  1.6974  0.9752
 2218TIP3    H228070   1.747   2.539   3.695 -0.2893 -1.2714  1.2697
 2219TIP3   OH228071   3.667   2.006   2.575  0.3514 -0.4686 -0.3407
 2219TIP3    H128072   3.647   1.951   2.500 -0.8316  0.0577 -0.4115
 2219TIP3    H228073   3.689   2.091   2.538  0.2941 -0.3577 -0.1248
 2220TIP3   OH228074   1.470   0.013  12.951  0.3366 -0.6397 -0.9888
 2220TIP3    H128075   1.503  -0.028  13.031 -0.0175 -0.6164 -0.8279
 2220TIP3    H228076   1.378  -0.014  12.946 -0.7917  2.5043  0.7487
 2221TIP3   OH228077   1.360   2.863  11.391 -0.2742 -0.4289  0.1366
 2221TIP3    H128078   1.342   2.939  11.337 -1.2416 -1.2093 -0.6514
 2221TIP3    H228079   1.413   2.805  11.336 -0.0070 -0.5739  0.5380
 2222TIP3   OH228080   4.549   0.778  16.810 -0.2702 -0.3221  0.0841
 2222TIP3    H128081   4.526   0.871  16.806  0.8385 -0.0840 -0.7969
 2222TIP3    H228082   4.595   0.768  16.894 -0.9616 -0.2216  0.4846
 2223TIP3   OH228083   0.704   6.382   1.657  0.4402  0.4462 -0.0307
 2223TIP3    H128084   0.625   6.363   1.607 -0.0676  1.0448  0.5417
 2223TIP3    H228085   0.707   6.477   1.662  1.2986  0.4308 -0.2091
 2224TIP3   OH228086   3.042   0.985   4.571  0.5908  0.1969 -0.1490
 2224TIP3    H128087   2.985   0.919   4.531  2.1478 -0.4610 -1.3337
 2224TIP3    H228088   2.986   1.030   4.634 -1.3335 -0.1865 -1.5450
 2225TIP3   OH228089   1.823   3.924   4.682  0.1059 -0.6375  0.6174
 2225TIP3    H128090   1.755   3.990   4.669  0.0666 -1.1054 -1.7203
 2225TIP3    H228091   1.891   3.968   4.732 -0.8997  0.4965  1.0104
 2226TIP3   OH228092   2.316   2.741   3.783  0.0428 -0.1876  0.3239
 2226TIP3    H128093   2.262   2.676   3.829 -2.3750  0.4824 -1.4813
 2226TIP3    H228094   2.308   2.820   3.835 -1.8016  0.2603 -0.5787
 2227TIP3   OH228095   4.867   6.392  10.654  0.0556  0.2672  0.4076
 2227TIP3    H128096   4.904   6.475  10.626 -0.3818  0.5733  0.7311
 2227TIP3    H228097   4.870   6.336  10.577 -1.7916  1.3147 -0.4434
 2228TIP3   OH228098   2.733   6.713  14.559 -0.2043  0.2248 -0.4105
 2228TIP3    H128099   2.713   6.805  14.543 -0.4778  0.4786  1.3165
 2228TIP3    H228100   2.809   6.715  14.616  0.3937 -0.6521 -1.1540
 2229TIP3   OH228101   1.028   5.955   2.752 -0.3376  0.5042 -0.0751
 2229TIP3    H128102   1.053   6.048   2.747  0.6256  0.2343 -0.4181
 2229TIP3    H228103   1.089   5.917   2.815 -0.9773  0.1756  0.3501
 2230TIP3   OH228104   1.177   0.687  15.503 -0.0850  0.2319  0.0830
 2230TIP3    H128105   1.253   0.707  15.556  0.3253 -2.3949  0.5830
 2230TIP3    H228106   1.103   0.722  15.552  0.7657  2.7196 -0.3681
 2231TIP3   OH228107   3.532   3.676   2.704  0.0548 -0.6255  0.0491
 2231TIP3    H128108   3.522   3.767   2.732  0.5383 -0.4970 -0.1934
 2231TIP3    H228109   3.611   3.645   2.747  0.0947 -0.8212 -0.1622
 2232TIP3   OH228110   2.260   2.547   5.672  0.8073  0.1240  0.2566
 2232TIP3    H128111   2.244   2.482   5.604  3.0562 -2.1364  1.8062
 2232TIP3    H228112   2.355   2.558   5.673  0.6436  1.5949  1.7230
 2233TIP3   OH228113   5.382   4.394   1.771  0.0302 -0.1259 -0.0124
 2233TIP3    H128114   5.473   4.381   1.744  0.2559 -2.8871  1.8262
 2233TIP3    H228115   5.388   4.437   1.857 -0.3457 -1.0782  0.5013
 2234TIP3   OH228116   3.714   6.129   4.473 -0.4954 -0.4456 -0.0906
 2234TIP3    H128117   3.789   6.161   4.524 -0.1954 -2.4012  0.7382
 2234TIP3    H228118   3.645   6.194   4.489  0.4566  0.4330  0.5721
 2235TIP3   OH228119   5.688   0.483   1.104  0.4498 -0.6241 -0.4425
 2235TIP3    H128120   5.639   0.427   1.045 -2.2415  0.5441  0.5857
 2235TIP3    H228121   5.709   0.426   1.179  2.1484 -1.5681 -1.6102
 2236TIP3   OH228122   1.468   6.015   2.508  0.4527 -0.0579 -0.5367
 2236TIP3    H128123   1.427   6.066   2.439 -0.9730 -0.6355 -0.1308
 2236TIP3    H228124   1.463   5.925   2.478 -1.2280 -0.4403  0.8266
 2237TIP3   OH228125   6.224   3.058   0.611  0.2750 -0.5472 -0.2105
 2237TIP3    H128126   6.316   3.080   0.626 -0.5343  0.2095  4.4623
 2237TIP3    H228127   6.214   2.969   0.644 -0.1798 -1.6034 -3.0713
 2238TIP3   OH228128   3.900   3.083   2.694 -0.5659 -0.5262 -0.0826
 2238TIP3    H128129   3.919   2.993   2.719  0.5704 -0.5196 -0.9293
 2238TIP3    H228130   3.948   3.097   2.613  0.4758  1.3226  0.8192
 2239TIP3   OH228131   0.318   4.676  16.483 -0.2682 -0.2232 -0.5638
 2239TIP3    H128132   0.290   4.746  16.424  0.5310  0.3641 -0.2418
 2239TIP3    H228133   0.413   4.672  16.473 -0.2706 -1.0283 -0.3185
 2240TIP3   OH228134   6.301   6.745   0.862  0.0876 -0.0486  0.0001
 2240TIP3    H128135   6.244   6.698   0.801  2.4608 -0.5526 -1.9164
 2240TIP3    H228136   6.252   6.822   0.887 -1.2118 -0.1670 -2.0839
 2241TIP3   OH228137   6.120   1.704   5.361  0.3611 -0.3573 -0.3860
 2241TIP3    H128138   6.057   1.654   5.412 -0.2270  1.6196  0.8462
 2241TIP3    H228139   6.182   1.738   5.425  1.1214 -0.0449 -1.2738
 2242TIP3   OH228140   4.277   3.904   0.731 -0.0217  0.1101  0.0529
 2242TIP3    H128141   4.232   3.982   0.697  0.9710  0.5504 -0.2854
 2242TIP3    H228142   4.359   3.938   0.766 -0.1374 -0.6265  1.0548
 2243TIP3   OH228143   1.456   2.456  10.481  0.1844 -0.5809  0.0188
 2243TIP3    H128144   1.518   2.386  10.464 -0.1144 -0.8255 -0.0641
 2243TIP3    H228145   1.372   2.412  10.497 -0.1606 -0.2162 -0.7428
 2244TIP3   OH228146   2.731   4.677   2.284 -0.0535 -0.0804 -0.3954
 2244TIP3    H128147   2.739   4.645   2.194  0.3254  0.2478 -0.4820
 2244TIP3    H228148   2.763   4.767   2.280 -0.2529  0.0094  0.0244
 2245TIP3   OH228149   2.257   3.574  14.090  0.0305 -0.1645  0.3272
 2245TIP3    H128150   2.220   3.581  14.002  1.3264 -1.9908 -0.3907
 2245TIP3    H228151   2.184   3.597  14.148 -0.4494  2.4141 -1.2316
 2246TIP3   OH228152   4.025   6.744   0.919 -0.6621 -0.3569 -0.0482
 2246TIP3    H128153   4.086   6.685   0.874 -0.4036 -0.1950  0.0914
 2246TIP3    H228154   4.004   6.811   0.854 -0.1581 -0.0288  0.1234
 2247TIP3   OH228155   1.299   4.109  12.329  0.4513  0.0238 -0.0712
 2247TIP3    H128156   1.394   4.109  12.334  0.4009 -1.2232  1.3575
 2247TIP3    H228157   1.273   4.197  12.357  1.0818 -0.5586  2.4466
 2248TIP3   OH228158   5.851   5.408   0.563  0.1723  0.2786 -0.2767
 2248TIP3    H128159   5.756   5.416   0.576 -0.0738 -1.5414 -0.8913
 2248TIP3    H228160   5.861   5.390   0.470  1.1006  0.1059 -0.1450
 2249TIP3   OH228161   5.680   1.398  17.167 -0.0381 -0.6361  0.5985
 2249TIP3    H128162   5.616   1.339  17.127  0.8264 -0.9772 -0.2734
 2249TIP3    H228163   5.718   1.446  17.094 -1.2929  1.5774  1.3669
 2250TIP3   OH228164   0.194   6.614  15.900  0.0563 -0.4699 -0.0706
 2250TIP3    H128165   0.191   6.552  15.973 -1.1065 -0.2035  0.1302
 2250TIP3    H228166   0.193   6.559  15.821 -1.3307 -0.7137  0.1012
 2251TIP3   OH228167   5.502   2.914  14.969  0.6127 -0.4604  0.6010
 2251TIP3    H128168   5.471   2.913  15.059  0.8240  0.6547  0.6955
 2251TIP3    H228169   5.592   2.947  14.974  0.7769 -0.8012  0.0262
 2252TIP3   OH228170   1.315   3.958   1.815 -0.2413  0.4283 -0.5636
 2252TIP3    H128171   1.342   3.964   1.723  2.3536 -0.4426  0.0941
 2252TIP3    H228172   1.277   3.870   1.823 -0.2863  0.4303 -0.7591
 2253TIP3   OH228173   2.373   1.481  16.544 -0.3639  0.2386 -0.7169
 2253TIP3    H128174   2.303   1.416  16.543 -0.0544 -0.1870  2.3392
 2253TIP3    H228175   2.384   1.506  16.452 -0.6785 -3.8034 -1.9250
 2254TIP3   OH228176   6.667   4.234  14.881 -0.0258 -0.0179  0.1893
 2254TIP3    H128177   6.699   4.319  14.911  0.5360 -0.0988 -0.1761
 2254TIP3    H228178   6.572   4.239  14.891  0.0380  0.5057  0.5468
 2255TIP3   OH228179   2.980   5.824  12.885  0.2103  0.0264 -0.2020
 2255TIP3    H128180   2.964   5.730  12.873  0.7208 -0.3009  1.5528
 2255TIP3    H228181   2.911   5.853  12.944  0.9100  0.4401  0.4277
 2256TIP3   OH228182   2.528   0.141  16.623 -0.0548  0.1244  0.3878
 2256TIP3    H128183   2.583   0.206  16.666 -1.6346  1.1698  0.8556
 2256TIP3    H228184   2.589   0.071  16.598  1.0526 -0.1108  3.5292
 2257TIP3   OH228185   3.902   2.186  12.143  0.1963 -0.1425 -0.1689
 2257TIP3    H128186   3.961   2.261  12.149  1.2274 -0.8347 -1.3051
 2257TIP3    H228187   3.872   2.187  12.052 -0.1897 -0.7956 -0.0501
 2258TIP3   OH228188   2.424   2.907   1.051  0.8447 -0.0647  0.0671
 2258TIP3    H128189   2.338   2.933   1.018  1.0468 -2.6605 -2.6523
 2258TIP3    H228190   2.483   2.977   1.023 -0.0287  0.7777  0.3054
 2259TIP3   OH228191   0.422   2.120  16.754 -0.2544  0.6017  0.5233
 2259TIP3    H128192   0.499   2.149  16.802 -0.0665  0.5178  0.2718
 2259TIP3    H228193   0.357   2.103  16.821  0.3792 -0.6461  0.8199
 2260TIP3   OH228194   4.115   4.519  11.662 -0.1500 -0.2035 -0.4416
 2260TIP3    H128195   4.020   4.517  11.664 -0.1916  1.8935  0.0711
 2260TIP3    H228196   4.141   4.546  11.750  0.9255 -0.7047 -0.5944
 2261TIP3   OH228197   4.293   5.688  14.698 -0.2016  0.0807 -0.0490
 2261TIP3    H128198   4.303   5.680  14.603 -0.6881 -0.5859 -0.0421
 2261TIP3    H228199   4.366   5.638  14.734  0.0712  0.4600 -0.0703
 2262TIP3   OH228200   2.678   3.802  12.756  0.1575  0.2717 -0.1176
 2262TIP3    H128201   2.679   3.717  12.801 -0.1707 -0.1065 -0.8222
 2262TIP3    H228202   2.589   3.809  12.721  0.7551  0.0408 -1.6941
 2263TIP3   OH228203   2.275   0.864   0.822 -0.6797 -0.3783  0.2566
 2263TIP3    H128204   2.186   0.893   0.842  0.0370  0.7244  1.9425
 2263TIP3    H228205   2.299   0.806   0.894  1.4102  2.5241  2.0432
 2264TIP3   OH228206   4.318   4.441  15.111 -0.1998  0.0745 -0.8919
 2264TIP3    H128207   4.386   4.418  15.174 -2.5780 -2.2604  0.9027
 2264TIP3    H228208   4.295   4.359  15.069 -1.4292  0.9543 -1.9786
 2265TIP3   OH228209   0.651   6.770  17.192 -0.4999 -0.6681 -0.0983
 2265TIP3    H128210   0.697   6.854  17.190  1.0295 -1.4910 -1.0094
 2265TIP3    H228211   0.687   6.722  17.117 -2.8612 -1.3538 -0.8332
 2266TIP3   OH228212   1.157   3.605   0.497 -0.7756 -0.2627 -0.4666
 2266TIP3    H128213   1.162   3.532   0.558  0.5487 -0.2037 -0.5068
 2266TIP3    H228214   1.183   3.681   0.548 -1.5665  0.0981 -0.5897
 2267TIP3   OH228215   6.700   1.633  11.171  0.2618 -0.1969 -0.0806
 2267TIP3    H128216   6.627   1.619  11.110 -1.6634  0.8342  1.9417
 2267TIP3    H228217   6.690   1.563  11.236  1.4473 -0.4117 -0.1200
 2268TIP3   OH228218   6.372   2.179  14.576  0.1540 -0.2898  0.0463
 2268TIP3    H128219   6.406   2.091  14.558  0.5962  0.1594 -1.4100
 2268TIP3    H228220   6.282   2.164  14.604  1.3835 -1.4841  3.7483
 2269TIP3   OH228221   4.601   1.404  11.849 -0.0529  0.9215  0.2362
 2269TIP3    H128222   4.668   1.429  11.912  2.3140 -0.7674 -1.5213
 2269TIP3    H228223   4.596   1.479  11.789  1.9486  0.1736 -0.9314
 2270TIP3   OH228224   0.667   0.500  14.622  0.1476 -0.2790 -0.1469
 2270TIP3    H128225   0.597   0.472  14.563 -2.3467  1.3014  1.9529
 2270TIP3    H228226   0.684   0.423  14.677  0.2514 -0.7385 -0.8114
 2271TIP3   OH228227   0.837   0.544   0.877 -0.6138  0.4411  0.0958
 2271TIP3    H128228   0.891   0.487   0.932 -0.0391 -0.8205 -1.7595
 2271TIP3    H228229   0.892   0.563   0.801 -2.6425 -0.6018 -1.6737
 2272TIP3   OH228230   4.217   1.105  12.916  0.1356 -0.0476  0.0390
 2272TIP3    H128231   4.281   1.083  12.984  1.6303  0.8000 -1.0681
 2272TIP3    H228232   4.256   1.074  12.835 -1.6508 -1.0656 -0.4642
 2273TIP3   OH228233   3.042   3.188   1.848 -0.0734 -0.9348  0.8230
 2273TIP3    H128234   3.085   3.204   1.764 -1.9637  2.9694  0.4712
 2273TIP3    H228235   2.960   3.144   1.825 -0.1529 -0.7121  0.6678
 2274TIP3   OH228236   1.427   4.297   3.845  0.6205 -0.2228 -0.2656
 2274TIP3    H128237   1.432   4.210   3.883 -0.7729 -0.2495 -0.1149
 2274TIP3    H228238   1.367   4.288   3.771 -0.3955  0.8239  0.4075
 2275TIP3   OH228239   5.792   6.680   3.632 -0.1470  0.1105  0.6143
 2275TIP3    H128240   5.848   6.632   3.693 -0.7005 -1.7232 -0.3007
 2275TIP3    H228241   5.703   6.652   3.652 -0.4568  0.5209 -0.1359
 2276TIP3   OH228242   3.483   0.563   4.468 -0.6796  0.4554 -0.1959
 2276TIP3    H128243   3.555   0.624   4.484 -0.2924  0.0477 -0.3554
 2276TIP3    H228244   3.522   0.494   4.414 -1.4242  0.7179 -1.0875
 2277TIP3   OH228245   2.397   5.907  17.003 -0.2913 -0.3451  0.1473
 2277TIP3    H128246   2.443   5.891  16.921  0.1298 -0.4901  0.4087
 2277TIP3    H228247   2.395   6.003  17.011  0.9546 -0.3464  0.6787
 2278TIP3   OH228248   6.241   6.456  12.954 -0.2830 -0.2057  0.0442
 2278TIP3    H128249   6.293   6.509  12.893  0.2905 -1.9312 -0.9896
 2278TIP3    H228250   6.256   6.366  12.926 -1.6818 -0.8888  1.4545
 2279TIP3   OH228251   0.469   1.536  11.826 -0.1838 -0.3068  0.1484
 2279TIP3    H128252   0.486   1.544  11.919 -0.0697  0.7773  0.0453
 2279TIP3    H228253   0.379   1.568  11.815 -0.8802 -2.2101  0.1416
 2280TIP3   OH228254   2.505   4.833  13.773 -0.6424  0.0160 -0.4105
 2280TIP3    H128255   2.561   4.777  13.826 -2.1268 -0.8800  0.2578
 2280TIP3    H228256   2.450   4.772  13.723 -0.9676  0.8620 -1.1128
 2281TIP3   OH228257   4.715   1.814  14.902 -0.0622 -0.0586  0.0969
 2281TIP3    H128258   4.631   1.832  14.944 -0.7715  0.9923 -1.7255
 2281TIP3    H228259   4.779   1.862  14.955 -0.9114  1.1018  0.0743
 2282TIP3   OH228260   5.572   4.395   0.897 -0.5560 -0.4864  0.6025
 2282TIP3    H128261   5.597   4.488   0.900 -1.2572 -0.2891  0.3114
 2282TIP3    H228262   5.479   4.394   0.919 -0.4858 -1.1501  0.8739
 2283TIP3   OH228263   1.844   4.663  17.174  0.1189 -0.0957 -0.2505
 2283TIP3    H128264   1.931   4.628  17.155 -0.1299 -0.9720  0.1681
 2283TIP3    H228265   1.843   4.672  17.270  0.2995  1.3890 -0.3830
 2284TIP3   OH228266   3.153   1.155  11.824 -0.1374 -0.1801  0.3571
 2284TIP3    H128267   3.123   1.078  11.871 -2.0971  1.3210  1.6726
 2284TIP3    H228268   3.206   1.203  11.887  0.2419  0.0583 -0.1354
 2285TIP3   OH228269   3.421   2.159   2.427 -0.2862  0.1343  0.3691
 2285TIP3    H128270   3.422   2.129   2.518 -2.1553  1.3577  0.8299
 2285TIP3    H228271   3.450   2.250   2.431 -0.8498  0.3461 -0.1843
 2286TIP3   OH228272   1.825   2.249  14.675 -0.5437 -0.3391 -0.3161
 2286TIP3    H128273   1.750   2.259  14.617 -2.4696  0.7291  2.2541
 2286TIP3    H228274   1.885   2.319  14.649 -1.8464  0.7827 -0.3756
 2287TIP3   OH228275   2.752   4.771   1.801 -0.1681  0.7438 -0.2001
 2287TIP3    H128276   2.838   4.744   1.769  0.8619  0.9149  2.3021
 2287TIP3    H228277   2.765   4.860   1.834 -0.9174  0.2144  1.5780
 2288TIP3   OH228278   2.538   5.364   6.180  0.4901 -0.4046  0.2027
 2288TIP3    H128279   2.445   5.342   6.172  1.0124 -2.6251 -0.1398
 2288TIP3    H228280   2.565   5.322   6.261  1.1041  0.6009  0.5232
 2289TIP3   OH228281   4.722   0.625  14.373 -0.2676  0.2471 -0.8395
 2289TIP3    H128282   4.803   0.649  14.327  1.0302 -2.0915  0.1244
 2289TIP3    H228283   4.697   0.704  14.419  2.4631  0.5491  0.2176
 2290TIP3   OH228284   1.834   6.352  11.672 -0.7337  0.0562 -0.3264
 2290TIP3    H128285   1.812   6.262  11.647  0.5995  0.0640 -1.6073
 2290TIP3    H228286   1.758   6.404  11.645 -1.0577 -0.5391 -0.5741
 2291TIP3   OH228287   6.353   5.294  14.759  0.5854 -0.1111  0.4329
 2291TIP3    H128288   6.276   5.257  14.715  2.1154 -0.2430 -2.2837
 2291TIP3    H228289   6.355   5.385  14.731  2.3155 -0.5295 -0.9241
 2292TIP3   OH228290   2.432   1.563  13.460 -0.2618 -0.4084  0.2537
 2292TIP3    H128291   2.467   1.503  13.395 -2.8089  1.3118 -2.8761
 2292TIP3    H228292   2.377   1.508  13.516  0.5385 -1.6390 -0.1617
 2293TIP3   OH228293   2.516   2.159  16.102 -0.0705 -0.2062  0.2963
 2293TIP3    H128294   2.582   2.229  16.104 -1.9687  1.6946 -0.8177
 2293TIP3    H228295   2.542   2.100  16.172  3.0143  0.2893 -0.3449
 2294TIP3   OH228296   6.259   2.818  11.452  0.2143  0.0793 -0.2863
 2294TIP3    H128297   6.292   2.787  11.536  0.0771 -0.5325 -0.4565
 2294TIP3    H228298   6.223   2.740  11.410  0.0304  0.4344 -0.7952
 2295TIP3   OH228299   2.258   2.169   5.016  0.1232 -0.3548 -0.4985
 2295TIP3    H128300   2.242   2.097   4.955  0.7167  0.1482 -1.2712
 2295TIP3    H228301   2.256   2.247   4.960 -2.4191  0.4163  0.6143
 2296TIP3   OH228302   0.930   1.621  15.532 -0.2132 -0.2202  0.0861
 2296TIP3    H128303   1.019   1.638  15.500 -0.7735 -0.8944 -1.9242
 2296TIP3    H228304   0.879   1.696  15.503 -0.9039 -1.2329 -1.4246
 2297TIP3   OH228305   3.478   4.376   1.163  0.2233 -0.0213 -0.0115
 2297TIP3    H128306   3.506   4.286   1.148 -0.4072 -0.1866 -0.2238
 2297TIP3    H228307   3.448   4.377   1.254 -0.8816 -0.3281 -0.3607
 2298TIP3   OH228308   1.027   2.092  11.130  0.1386 -0.2673  0.4556
 2298TIP3    H128309   1.097   2.052  11.182  0.6930  0.9245  0.6465
 2298TIP3    H228310   1.036   2.186  11.147 -0.2938  0.0480 -1.0453
 2299TIP3   OH228311   0.223   6.148   4.293  0.2826  0.4146  0.2329
 2299TIP3    H128312   0.290   6.095   4.336 -0.6538 -0.5070  0.5968
 2299TIP3    H228313   0.182   6.197   4.365  0.1442  0.4990  0.0977
 2300TIP3   OH228314   4.594   3.682   1.425  0.2600  0.5093  0.0266
 2300TIP3    H128315   4.631   3.770   1.435 -1.4971  1.7439 -3.3932
 2300TIP3    H228316   4.522   3.678   1.488 -0.3081  1.9357 -0.5187
 2301TIP3   OH228317   3.702   2.713  16.585  0.4163 -0.1981 -0.4152
 2301TIP3    H128318   3.744   2.635  16.620 -1.9724 -0.8786  1.0654
 2301TIP3    H228319   3.654   2.682  16.508 -1.4391 -0.4568  0.8106
 2302TIP3   OH228320   3.482   0.651  11.419  0.6136 -0.4355 -0.2133
 2302TIP3    H128321   3.500   0.637  11.512  2.1099  0.8426 -0.2930
 2302TIP3    H228322   3.552   0.603  11.373  0.3203 -0.4333 -0.6656
 2303TIP3   OH228323   6.729   5.942   1.613  0.2639 -0.0197  0.5691
 2303TIP3    H128324   6.794   5.889   1.567  0.3877  0.1875  0.5045
 2303TIP3    H228325   6.725   5.904   1.701  0.4978 -0.0111  0.5841
 2304TIP3   OH228326   4.823   6.097   1.024 -0.7174  0.2042  0.3036
 2304TIP3    H128327   4.776   6.015   1.011  0.1593 -0.5585  1.8319
 2304TIP3    H228328   4.761   6.165   0.999 -1.4498 -0.9181 -0.9665
 2305TIP3   OH228329   0.853   3.098  14.351  0.5812 -0.0664  0.5192
 2305TIP3    H128330   0.834   3.144  14.269 -0.1312  0.6129  1.0669
 2305TIP3    H228331   0.944   3.069  14.341  0.2849 -0.5891 -0.7934
 2306TIP3   OH228332   4.226   2.117   1.804 -0.4390 -0.0563 -0.4254
 2306TIP3    H128333   4.175   2.092   1.881  0.5455  2.0508  0.9504
 2306TIP3    H228334   4.161   2.140   1.738 -1.2886 -1.5368 -0.1225
 2307TIP3   OH228335   3.988   6.379  13.496 -0.3488  0.5256  0.0044
 2307TIP3    H128336   3.948   6.375  13.409 -0.0178  0.5752 -0.1493
 2307TIP3    H228337   3.930   6.327  13.552  0.2301 -0.7407 -0.5516
 2308TIP3   OH228338   3.174   3.070   3.505 -0.0792 -0.2855 -0.3768
 2308TIP3    H128339   3.216   3.139   3.454 -1.3183 -0.5333 -1.7462
 2308TIP3    H228340   3.099   3.113   3.546  0.5914 -0.2226  0.8196
 2309TIP3   OH228341   3.295   6.539  10.934  0.1486 -0.3593 -0.4576
 2309TIP3    H128342   3.263   6.570  11.019  0.5575  2.8090 -1.3835
 2309TIP3    H228343   3.216   6.523  10.883 -0.0940  2.0469 -0.8999
 2310TIP3   OH228344   0.465   2.839  16.874 -0.1756  1.0851 -0.5629
 2310TIP3    H128345   0.530   2.903  16.847 -0.3139  2.5406  2.3501
 2310TIP3    H228346   0.385   2.865  16.830  0.6589  0.5716 -2.4445
 2311TIP3   OH228347   0.772   5.897   2.854  0.6729 -0.1090 -0.3506
 2311TIP3    H128348   0.859   5.920   2.820 -0.2418  1.4501 -1.7011
 2311TIP3    H228349   0.719   5.975   2.839 -1.0929 -1.2111  0.0499
 2312TIP3   OH228350   0.932   3.877   3.343  0.3582 -0.1057  0.0906
 2312TIP3    H128351   1.025   3.897   3.330  0.2010 -0.2770 -1.3526
 2312TIP3    H228352   0.905   3.935   3.414  1.2088  1.0175 -0.4831
 2313TIP3   OH228353   4.714   4.105  13.577 -0.6249  0.0562  0.1160
 2313TIP3    H128354   4.715   4.135  13.486 -0.1816  0.0364  0.1115
 2313TIP3    H228355   4.765   4.024  13.576  0.2149  0.5689  0.5551
 2314TIP3   OH228356   4.984   2.318  11.474 -0.4004  0.5968 -0.6001
 2314TIP3    H128357   4.970   2.405  11.510 -0.1221 -0.1300  1.3327
 2314TIP3    H228358   4.926   2.314  11.398 -0.8811  2.2344 -0.3374
 2315TIP3   OH228359   0.970   2.270  16.176 -0.3246 -0.2295 -0.2487
 2315TIP3    H128360   0.951   2.284  16.083 -1.2397 -0.0062 -0.0306
 2315TIP3    H228361   1.016   2.350  16.203 -3.2256  1.3433  0.3504
 2316TIP3   OH228362   3.153   4.908   1.203 -0.0383 -0.0100 -0.3668
 2316TIP3    H128363   3.116   4.947   1.123  0.6785  0.0570 -0.6745
 2316TIP3    H228364   3.128   4.816   1.199  0.6085 -0.1616 -1.0401
 2317TIP3   OH228365   0.286   4.078   1.473 -0.4283 -0.7152 -0.7159
 2317TIP3    H128366   0.257   4.168   1.482 -1.3383 -0.9710 -1.0303
 2317TIP3    H228367   0.295   4.065   1.379  1.5102 -0.3944 -0.5904
 2318TIP3   OH228368   6.084   5.363  15.189  0.3820  0.3084 -0.1471
 2318TIP3    H128369   6.051   5.418  15.260  1.7322 -0.1800  0.8783
 2318TIP3    H228370   6.175   5.390  15.177  0.7337 -0.9260 -0.3740
 2319TIP3   OH228371   1.186   4.049   0.360  0.3731 -0.0731  0.0131
 2319TIP3    H128372   1.107   4.076   0.407  0.3342  0.1891 -0.2036
 2319TIP3    H228373   1.153   4.006   0.281  0.4647  1.1212 -0.6734
 2320TIP3   OH228374   4.643   2.478  14.441 -0.1221  0.0735  0.7316
 2320TIP3    H128375   4.655   2.470  14.346  0.5700  2.8293  0.5398
 2320TIP3    H228376   4.573   2.416  14.461  0.6294 -1.5198 -1.3539
 2321TIP3   OH228377   5.623   5.403  15.787  0.1988 -0.9191 -0.6458
 2321TIP3    H128378   5.556   5.343  15.753  0.0064  0.6091 -3.0485
 2321TIP3    H228379   5.672   5.350  15.850  0.2676 -3.7233 -2.9759
 2322TIP3   OH228380   4.693   5.542  15.249 -0.1225  0.9340 -0.6887
 2322TIP3    H128381   4.617   5.486  15.263  0.1472  0.2803 -1.8237
 2322TIP3    H228382   4.725   5.561  15.337 -1.1712  0.6294 -0.2324
 2323TIP3   OH228383   5.530   1.432  14.827 -0.2574  0.1558 -0.3636
 2323TIP3    H128384   5.477   1.403  14.753  0.3827  3.6164 -2.2686
 2323TIP3    H228385   5.594   1.362  14.839 -0.3433 -0.4405 -3.0893
 2324TIP3   OH228386   3.060   2.944   3.166 -0.1292  0.3526 -0.2430
 2324TIP3    H128387   2.997   2.908   3.228  0.5283  0.6673  0.6130
 2324TIP3    H228388   3.145   2.911   3.196  0.0866 -0.3339 -1.5734
 2325TIP3   OH228389   5.519   3.409  15.157  0.1125  0.4447 -0.8501
 2325TIP3    H128390   5.449   3.353  15.123  0.7550 -0.7321 -0.2685
 2325TIP3    H228391   5.592   3.397  15.096  1.0258 -1.1197  0.5168
 2326TIP3   OH228392   5.697   4.390   5.436  0.3424  0.6652 -0.1477
 2326TIP3    H128393   5.701   4.437   5.352  0.1887  1.2307  0.1608
 2326TIP3    H228394   5.779   4.340   5.438  0.1671  0.3447 -0.8141
 2327TIP3   OH228395   1.089   6.564  17.135 -0.3044 -0.2452  0.1350
 2327TIP3    H128396   1.035   6.546  17.212 -0.5575 -0.3246 -0.0613
 2327TIP3    H228397   1.048   6.514  17.064  0.3872 -0.8182  0.1258
 2328TIP3   OH228398   4.749   5.866   3.104 -0.5835 -0.0109  0.6167
 2328TIP3    H128399   4.672   5.810   3.091  0.6938 -1.3369 -1.4194
 2328TIP3    H228400   4.789   5.874   3.017  1.3774  0.9854  1.5703
 2329TIP3   OH228401   5.327   0.427  16.269  0.2159 -0.0185  0.1255
 2329TIP3    H128402   5.410   0.475  16.269  0.7154 -0.8426 -0.9773
 2329TIP3    H228403   5.260   0.495  16.271  0.9149  0.7235 -0.9133
 2330TIP3   OH228404   6.290   0.692   3.437  0.7575  0.6359 -0.1458
 2330TIP3    H128405   6.235   0.677   3.361 -0.3939  0.5189  0.6987
 2330TIP3    H228406   6.372   0.647   3.417  0.0285 -0.4028 -0.8099
 2331TIP3   OH228407   2.072   6.367  16.732 -0.4057  0.0095 -0.5311
 2331TIP3    H128408   2.060   6.462  16.741  0.3096 -0.0442  1.2480
 2331TIP3    H228409   2.032   6.331  16.811  0.2889 -1.0863 -0.6768
 2332TIP3   OH228410   1.289   3.839  12.370 -0.0549  0.0793  0.3860
 2332TIP3    H128411   1.380   3.831  12.341 -0.7278  0.4777 -1.9277
 2332TIP3    H228412   1.273   3.933  12.375 -0.0568  0.0244  1.8334
 2333TIP3   OH228413   5.897   0.945  15.382 -0.0506 -0.2212  0.1146
 2333TIP3    H128414   5.951   0.897  15.445  0.6881  0.9287  0.3629
 2333TIP3    H228415   5.937   0.926  15.297 -0.2933 -0.7533  0.1155
 2334TIP3   OH228416   0.966   5.286   5.624  0.0103  0.3621 -0.5391
 2334TIP3    H128417   0.920   5.366   5.597 -0.6632  0.3043  0.4222
 2334TIP3    H228418   1.021   5.264   5.549  0.3079  1.8086 -0.7769
 2335TIP3   OH228419   5.381   6.636  16.283  0.0407  0.3664  0.2023
 2335TIP3    H128420   5.312   6.679  16.233  0.3378 -0.2098 -0.7211
 2335TIP3    H228421   5.456   6.636  16.224 -0.1404 -1.9609 -0.0550
 2336TIP3   OH228422   2.359   6.216   2.773 -0.1194  0.3078 -0.4197
 2336TIP3    H128423   2.397   6.289   2.821 -0.6272  2.2720 -2.9262
 2336TIP3    H228424   2.399   6.220   2.687  1.1006 -3.4254 -0.1082
 2337TIP3   OH228425   4.458   3.223  11.845  0.1201 -0.0326 -0.2650
 2337TIP3    H128426   4.505   3.287  11.898  1.7233 -2.2079  1.0133
 2337TIP3    H228427   4.514   3.211  11.768 -1.6254  2.2390 -1.9522
 2338TIP3   OH228428   5.614   2.606   6.223  0.6201  0.3503 -0.3236
 2338TIP3    H128429   5.682   2.671   6.206 -0.0936  0.8121 -1.4632
 2338TIP3    H228430   5.616   2.594   6.318  2.8923 -0.3241 -0.4328
 2339TIP3   OH228431   0.817   5.428  14.583 -0.1294 -0.3762  0.6040
 2339TIP3    H128432   0.729   5.466  14.588 -0.3491 -0.8542  0.3999
 2339TIP3    H228433   0.808   5.340  14.620  0.2116 -0.5093  0.3777
 2340TIP3   OH228434   0.753   1.217   5.471  0.5659 -0.2815  0.0589
 2340TIP3    H128435   0.779   1.201   5.562  0.5453  1.3320  0.3657
 2340TIP3    H228436   0.827   1.187   5.419  1.4674  0.7747  0.7286
 2341TIP3   OH228437   2.000   0.185   5.954 -0.7376 -0.2043  0.1246
 2341TIP3    H128438   1.966   0.097   5.963 -0.5009 -0.1161  2.0307
 2341TIP3    H228439   2.036   0.188   5.865 -1.9472 -1.5842 -0.4241
 2342TIP3   OH228440   5.537   0.678   1.272  0.3304  0.5017  1.3374
 2342TIP3    H128441   5.588   0.635   1.203 -0.8051  1.0851  0.1038
 2342TIP3    H228442   5.533   0.770   1.244 -0.0373  0.7730  2.2633
 2343TIP3   OH228443   0.698   6.638  13.863 -0.4497  0.6592  0.4650
 2343TIP3    H128444   0.687   6.555  13.910  0.0247  0.5335  0.3601
 2343TIP3    H228445   0.611   6.658  13.829 -0.0614 -1.0909 -1.6774
 2344TIP3   OH228446   4.508   5.897  16.923  0.5431 -0.1299 -0.0797
 2344TIP3    H128447   4.430   5.897  16.979  0.7685 -2.8581  0.2723
 2344TIP3    H228448   4.475   5.879  16.835  0.7784 -1.4338  0.0931
 2345TIP3   OH228449   5.240   2.731   5.685 -0.4957  0.2545  0.3806
 2345TIP3    H128450   5.173   2.710   5.621 -0.0050 -0.2937  0.0389
 2345TIP3    H228451   5.285   2.807   5.647 -1.7146  1.4073  1.2062
 2346TIP3   OH228452   2.761   4.230   3.258  0.3234 -0.2887 -0.0672
 2346TIP3    H128453   2.691   4.180   3.217 -0.0137 -1.2979  1.7087
 2346TIP3    H228454   2.840   4.177   3.243  0.3114 -0.3262  0.0020
 2347TIP3   OH228455   4.955   4.522  13.176  0.3650  0.4695 -0.2031
 2347TIP3    H128456   4.905   4.568  13.108 -0.8628  3.6978  2.7218
 2347TIP3    H228457   5.043   4.559  13.170  0.2060  0.9004  0.0102
 2348TIP3   OH228458   3.476   2.114   1.164 -0.9246  0.9063  0.4931
 2348TIP3    H128459   3.514   2.202   1.160 -0.7273  0.7748 -1.0554
 2348TIP3    H228460   3.549   2.057   1.188 -1.2952  1.2958  2.5819
 2349TIP3   OH228461   4.058   1.527  15.083 -0.5452 -0.3425 -0.2763
 2349TIP3    H128462   4.003   1.524  15.161  1.6731  1.0279  1.4213
 2349TIP3    H228463   4.142   1.490  15.112  0.5070  0.7400 -1.8357
 2350TIP3   OH228464   5.187   1.008   5.021 -0.6887  0.4380 -0.4145
 2350TIP3    H128465   5.126   1.029   5.091 -0.7334  0.0475 -0.3335
 2350TIP3    H228466   5.148   0.932   4.978 -0.6262  0.6337 -0.8165
 2351TIP3   OH228467   5.666   4.891   1.783 -0.6812  0.5340  0.0851
 2351TIP3    H128468   5.639   4.841   1.705 -0.3307 -1.8078  1.3981
 2351TIP3    H228469   5.587   4.934   1.814 -1.5770 -1.2540  0.3422
 2352TIP3   OH228470   6.399   6.463   5.700  0.1565  0.6838 -0.0817
 2352TIP3    H128471   6.337   6.401   5.736  0.4349  0.6297  0.3047
 2352TIP3    H228472   6.457   6.485   5.773  1.4324 -0.3133 -0.7682
 2353TIP3   OH228473   2.139   0.267  10.396 -0.0978 -0.0546  0.5282
 2353TIP3    H128474   2.077   0.328  10.436  0.3734  0.9272 -0.2001
 2353TIP3    H228475   2.092   0.230  10.322  0.2492  0.8640 -0.1636
 2354TIP3   OH228476   2.514   6.245  13.599 -0.0910  0.2409 -0.2225
 2354TIP3    H128477   2.504   6.302  13.675 -5.2359 -0.6942 -0.0558
 2354TIP3    H228478   2.462   6.287  13.530  0.0106 -1.7383 -1.5556
 2355TIP3   OH228479   4.546   5.884   0.471 -0.2780 -0.4694  0.4980
 2355TIP3    H128480   4.488   5.887   0.547 -0.6599  0.4706  0.1786
 2355TIP3    H228481   4.593   5.967   0.473 -0.9412 -0.0391 -0.7898
 2356TIP3   OH228482   6.175   0.080   4.707 -0.5129  0.7637 -0.1729
 2356TIP3    H128483   6.097   0.113   4.751 -0.6873  0.1188  0.0134
 2356TIP3    H228484   6.242   0.146   4.724 -0.5868  0.5370  1.0467
 2357TIP3   OH228485   4.496   5.252   1.383 -0.0099  0.0174 -0.0070
 2357TIP3    H128486   4.552   5.319   1.424 -0.9872  0.6713  0.2703
 2357TIP3    H228487   4.558   5.191   1.344  0.9398 -0.0407  1.5171
 2358TIP3   OH228488   3.259   0.631   4.248  0.2760 -1.2749 -0.5850
 2358TIP3    H128489   3.264   0.612   4.341 -0.2653 -2.3554 -0.7733
 2358TIP3    H228490   3.350   0.639   4.220  0.4369 -0.8725  0.0453
 2359TIP3   OH228491   6.518   4.743  12.381 -0.3827 -0.0752  0.0653
 2359TIP3    H128492   6.557   4.682  12.319  0.3263 -0.2813  0.7103
 2359TIP3    H228493   6.580   4.747  12.454 -0.7428  0.9022  0.3301
 2360TIP3   OH228494   4.728   2.453  13.227 -0.0707 -0.1477  0.1094
 2360TIP3    H128495   4.805   2.407  13.259  0.0479  0.5665  0.8694
 2360TIP3    H228496   4.688   2.393  13.164  0.9002 -0.6703 -0.0163
 2361TIP3   OH228497   1.011   0.423   1.095  0.6148 -0.2696  0.4053
 2361TIP3    H128498   1.075   0.357   1.068 -1.2988 -1.0213 -2.5413
 2361TIP3    H228499   1.063   0.503   1.108  2.1809 -0.8866 -1.7620
 2362TIP3   OH228500   0.211   2.400   4.978 -0.2026 -0.4766  0.2657
 2362TIP3    H128501   0.252   2.329   4.930  3.3166  1.5561  0.1031
 2362TIP3    H228502   0.167   2.453   4.911 -0.2018 -0.8136  0.0007
 2363TIP3   OH228503   6.737   0.950   2.091  0.0573  0.1433  0.2889
 2363TIP3    H128504   6.783   1.012   2.033 -0.3473 -0.0142 -0.2049
 2363TIP3    H228505   6.726   0.872   2.038 -2.3592  0.7875 -0.2176
 2364TIP3   OH228506   3.651   3.196  17.036  0.4606 -0.4866  0.4200
 2364TIP3    H128507   3.653   3.290  17.057  1.0555 -0.6466  1.1231
 2364TIP3    H228508   3.739   3.165  17.058  0.7288 -0.9216 -1.2157
 2365TIP3   OH228509   0.930   4.520   1.649  0.0063  0.7518  0.5480
 2365TIP3    H128510   0.837   4.502   1.668 -0.1639 -1.2760 -1.8429
 2365TIP3    H228511   0.975   4.439   1.672  0.7879  0.7940 -0.7582
 2366TIP3   OH228512   4.170   1.408   5.194 -0.1754 -0.1493 -0.2860
 2366TIP3    H128513   4.176   1.481   5.131  1.0230  1.1098  1.2332
 2366TIP3    H228514   4.260   1.395   5.224 -0.8259 -0.2528  1.6895
 2367TIP3   OH228515   2.833   3.782   5.210  0.4302  0.0020  0.2371
 2367TIP3    H128516   2.863   3.735   5.288 -1.1579  0.0279  0.8737
 2367TIP3    H228517   2.747   3.816   5.233  0.0010  0.1454 -1.4681
 2368TIP3   OH228518   1.693   0.175  13.112  0.6031 -0.1304  0.1902
 2368TIP3    H128519   1.616   0.121  13.127 -0.5970  2.2009  2.8016
 2368TIP3    H228520   1.765   0.112  13.104 -1.0178 -2.1639  1.2434
 2369TIP3   OH228521   6.164   5.515  14.917  0.6673 -0.8376  0.2201
 2369TIP3    H128522   6.249   5.492  14.881 -0.3582 -0.9097 -2.2443
 2369TIP3    H228523   6.113   5.544  14.842 -0.6614  1.7261  2.0511
 2370TIP3   OH228524   3.608   0.176  11.699 -0.2952 -0.4862 -0.0649
 2370TIP3    H128525   3.590   0.215  11.785 -1.0836  0.1768 -0.5215
 2370TIP3    H228526   3.597   0.082  11.712  0.5891 -0.4770  0.8051
 2371TIP3   OH228527   2.298   3.945  16.806  0.0601 -0.6714 -0.5470
 2371TIP3    H128528   2.218   3.978  16.765 -0.7028 -0.6547  0.9215
 2371TIP3    H228529   2.339   4.023  16.844 -0.3209 -1.0090  0.5526
 2372TIP3   OH228530   4.833   5.590  15.507 -0.0266 -0.7800 -0.1132
 2372TIP3    H128531   4.813   5.515  15.563  1.0562 -1.6545 -0.8800
 2372TIP3    H228532   4.867   5.657  15.567 -1.3744 -0.7441  0.6292
 2373TIP3   OH228533   5.349   1.429   1.888  0.5280 -0.0634  0.1994
 2373TIP3    H128534   5.274   1.485   1.868 -0.5120 -1.0739  1.1929
 2373TIP3    H228535   5.404   1.434   1.810 -1.8099 -1.3408 -1.6099
 2374TIP3   OH228536   1.619   2.359   2.150  0.7170 -0.4715 -0.1092
 2374TIP3    H128537   1.690   2.418   2.173 -0.5314  1.0716 -0.1747
 2374TIP3    H228538   1.563   2.410   2.092 -0.6132 -1.5679  0.1882
 2375TIP3   OH228539   2.837   1.722   4.306 -0.4778  0.3799 -0.1602
 2375TIP3    H128540   2.890   1.758   4.378  0.3788 -0.5492 -0.3044
 2375TIP3    H228541   2.876   1.636   4.289 -0.6797  0.5921 -1.7446
 2376TIP3   OH228542   1.403   4.228   0.311  0.3734 -0.1522  0.1992
 2376TIP3    H128543   1.394   4.223   0.216  0.8420 -0.6932  0.1814
 2376TIP3    H228544   1.404   4.136   0.339 -0.1314  0.0138  0.7585
 2377TIP3   OH228545   1.126   6.314   1.763 -0.3140 -0.6066 -0.3327
 2377TIP3    H128546   1.219   6.323   1.783 -0.5603  0.4267  0.3834
 2377TIP3    H228547   1.091   6.266   1.838 -0.7608  0.9785  0.4965
 2378TIP3   OH228548   1.659   6.036  15.208  0.3273  0.3249  0.3883
 2378TIP3    H128549   1.639   6.012  15.299  1.6100  0.0692  0.6039
 2378TIP3    H228550   1.635   5.958  15.157 -2.7664  1.3240  0.1721
 2379TIP3   OH228551   2.643   2.336  15.458 -0.2164 -0.0040  0.0559
 2379TIP3    H128552   2.550   2.360  15.455 -0.3642 -0.3277  1.8608
 2379TIP3    H228553   2.643   2.240  15.458  0.1022  0.0008  0.8238
 2380TIP3   OH228554   2.484   3.074  12.576 -0.0578  0.2639  0.2938
 2380TIP3    H128555   2.493   3.053  12.483 -1.3994  0.6763  0.0487
 2380TIP3    H228556   2.473   3.170  12.578 -1.1765  0.1362  0.7634
 2381TIP3   OH228557   5.636   5.640  11.360 -0.1928 -0.2253  0.2396
 2381TIP3    H128558   5.602   5.632  11.271  1.2039 -3.2248 -0.0839
 2381TIP3    H228559   5.565   5.610  11.416 -0.3402 -0.3308 -0.0038
 2382TIP3   OH228560   5.232   1.818   0.960  0.2529 -0.0422 -0.2325
 2382TIP3    H128561   5.201   1.903   0.928 -0.5907  0.1313  1.0118
 2382TIP3    H228562   5.230   1.762   0.882  1.1986  1.1627 -1.1528
 2383TIP3   OH228563   1.081   2.570  12.899 -0.5871 -0.3943  0.4687
 2383TIP3    H128564   1.171   2.538  12.885  0.1912  2.7263 -2.3336
 2383TIP3    H228565   1.027   2.511  12.846 -0.0674 -1.6014  1.2673
 2384TIP3   OH228566   6.446   3.001   4.517 -0.4957  0.1315  0.3733
 2384TIP3    H128567   6.461   3.076   4.574 -0.1654  0.2655  0.1178
 2384TIP3    H228568   6.411   3.039   4.436  2.4048  0.3465 -0.8534
 2385TIP3   OH228569   5.287   3.934  14.701 -0.0123  0.2683 -0.8907
 2385TIP3    H128570   5.305   4.003  14.765  1.4255  1.5596 -2.6263
 2385TIP3    H228571   5.255   3.981  14.624  1.2664 -0.9765 -2.2052
 2386TIP3   OH228572   4.176   1.789  12.925 -0.7865 -0.5013 -0.0165
 2386TIP3    H128573   4.081   1.798  12.917 -0.8190  1.5174  2.0071
 2386TIP3    H228574   4.212   1.865  12.880 -0.2561  0.0789  1.3563
 2387TIP3   OH228575   4.644   6.586   4.126  0.0170 -0.7733  0.2377
 2387TIP3    H128576   4.611   6.593   4.036 -0.0196 -2.0286  0.1507
 2387TIP3    H228577   4.680   6.673   4.145  1.8463 -1.0898 -1.6846
 2388TIP3   OH228578   1.622   2.574  13.987 -0.1501  0.4741  0.0579
 2388TIP3    H128579   1.598   2.507  14.051 -0.8529 -0.5312 -1.2354
 2388TIP3    H228580   1.549   2.635  13.988  0.3086  1.0234  0.9451
 2389TIP3   OH228581   2.723   5.439   0.117  0.6610  0.3851  0.1848
 2389TIP3    H128582   2.710   5.419   0.210  0.1298 -1.1828 -0.2010
 2389TIP3    H228583   2.761   5.359   0.081  0.6840  0.9132 -0.9803
 2390TIP3   OH228584   5.050   2.367  15.613 -0.4537 -0.6207 -0.4006
 2390TIP3    H128585   5.088   2.451  15.589 -1.2713 -0.5142 -1.3604
 2390TIP3    H228586   5.094   2.304  15.556 -2.1562 -0.4142 -1.9573
 2391TIP3   OH228587   0.264   1.457  12.591  0.0698  0.3835 -0.1441
 2391TIP3    H128588   0.313   1.539  12.599 -1.4998  1.3883 -0.4651
 2391TIP3    H228589   0.185   1.481  12.541 -0.7362 -1.1824  0.3282
 2392TIP3   OH228590   2.779   2.818   0.895  0.3391  0.2622  0.2199
 2392TIP3    H128591   2.720   2.752   0.859 -0.2342 -0.5515  2.5777
 2392TIP3    H228592   2.730   2.900   0.889 -0.3568 -0.1267  0.6094
 2393TIP3   OH228593   4.762   5.231   1.907  0.3608  0.3102 -0.1908
 2393TIP3    H128594   4.779   5.174   1.832 -1.6111 -0.5063 -0.0220
 2393TIP3    H228595   4.827   5.204   1.972  1.7877  0.7123 -1.4059
 2394TIP3   OH228596   3.521   6.776   1.989  0.6091 -0.3960 -0.3442
 2394TIP3    H128597   3.487   6.822   2.065 -0.1414 -1.2998 -0.1313
 2394TIP3    H228598   3.581   6.839   1.948  0.3104  0.4232  0.4647
 2395TIP3   OH228599   2.633   1.349  13.809 -0.1060 -0.3149 -0.8632
 2395TIP3    H128600   2.720   1.316  13.788 -0.8335 -0.7105 -3.3514
 2395TIP3    H228601   2.610   1.305  13.892  0.7982 -2.5656 -1.7667
 2396TIP3   OH228602   6.504   0.555  16.905 -0.2018 -0.1168 -0.2118
 2396TIP3    H128603   6.557   0.477  16.889 -1.1109 -1.1006  1.4453
 2396TIP3    H228604   6.540   0.621  16.845  2.0239 -1.1510 -0.0642
 2397TIP3   OH228605   3.187   2.803   4.152 -0.2109  0.1136  0.2103
 2397TIP3    H128606   3.257   2.768   4.207 -0.6099 -1.7433 -0.4453
 2397TIP3    H228607   3.226   2.809   4.064  0.8536  4.3070  0.8318
 2398TIP3   OH228608   3.411   6.198  13.685  0.0940 -0.3586  0.0736
 2398TIP3    H128609   3.394   6.138  13.613  0.3438 -0.3134 -0.0235
 2398TIP3    H228610   3.484   6.158  13.733  0.7954  0.2731 -0.4568
 2399TIP3   OH228611   1.200   6.715   1.458  0.0163 -0.1530 -0.1481
 2399TIP3    H128612   1.251   6.676   1.387  1.3305  2.2337 -0.5904
 2399TIP3    H228613   1.109   6.710   1.428  0.2515 -1.9131 -0.6115
 2400TIP3   OH228614   3.359   6.442  15.984 -0.3592 -0.7667  0.0915
 2400TIP3    H128615   3.428   6.424  16.048  0.4197  0.8981 -0.2579
 2400TIP3    H228616   3.294   6.492  16.032  0.3347  0.6859 -0.4593
 2401TIP3   OH228617   0.054   4.872  16.186 -0.1477 -0.6314  0.4077
 2401TIP3    H128618   0.110   4.867  16.264 -0.5980 -0.1828  0.7650
 2401TIP3    H228619  -0.034   4.852  16.218 -0.8721  2.6757  0.6294
 2402TIP3   OH228620   4.847   6.122   3.261 -0.0189  0.6923  0.3213
 2402TIP3    H128621   4.924   6.077   3.226  0.0594  0.9691  0.1371
 2402TIP3    H228622   4.790   6.134   3.185 -0.7115 -0.4553  0.6440
 2403TIP3   OH228623   0.223   0.356  16.213  0.4089  0.2374 -0.0066
 2403TIP3    H128624   0.184   0.275  16.178  1.4278 -0.7553  1.0857
 2403TIP3    H228625   0.193   0.425  16.154 -0.5688 -0.9333 -0.9005
 2404TIP3   OH228626   3.792   4.653   1.120 -0.2108 -0.5388 -0.0578
 2404TIP3    H128627   3.884   4.678   1.119 -0.1703 -0.7139 -1.2736
 2404TIP3    H228628   3.789   4.573   1.172  0.5427 -1.3642 -1.2704
 2405TIP3   OH228629   1.547   3.534  16.767 -0.5158 -0.5176 -0.7094
 2405TIP3    H128630   1.501   3.480  16.831  0.0660 -1.5490 -1.1606
 2405TIP3    H228631   1.567   3.615  16.815  0.9223 -1.7212  0.7638
 2406TIP3   OH228632   1.106   0.678  15.223 -0.5348 -0.2012  0.1481
 2406TIP3    H128633   1.088   0.584  15.226 -0.2588 -0.3054 -1.0844
 2406TIP3    H228634   1.149   0.697  15.307  0.8737 -1.4880 -0.2551
 2407TIP3   OH228635   3.053   3.546   5.242 -0.1591  0.3770  0.7479
 2407TIP3    H128636   3.121   3.480   5.227 -1.3022 -0.6156 -0.1632
 2407TIP3    H228637   2.975   3.496   5.265 -1.3124  1.3436 -0.9422
 2408TIP3   OH228638   6.764   1.799   1.840  0.2316 -0.1244 -0.1081
 2408TIP3    H128639   6.696   1.844   1.790  0.5577 -0.1107 -0.5422
 2408TIP3    H228640   6.770   1.847   1.922 -1.2609 -0.9571  0.5126
 2409TIP3   OH228641   3.253   3.575   6.106 -0.1496  0.1553  0.7750
 2409TIP3    H128642   3.276   3.519   6.180  1.4743  0.6738  0.6770
 2409TIP3    H228643   3.295   3.659   6.125  1.1534 -0.0121 -1.2259
 2410TIP3   OH228644   0.978   6.195   5.006 -0.6259 -0.1140 -0.2827
 2410TIP3    H128645   1.027   6.238   4.936 -1.1652  0.2755 -0.4220
 2410TIP3    H228646   0.953   6.110   4.969  0.9626 -0.8200  0.2058
 2411TIP3   OH228647   4.129   4.943  14.568 -0.2909  0.7453  0.0226
 2411TIP3    H128648   4.203   4.919  14.623  0.0387  1.1409 -0.2418
 2411TIP3    H228649   4.160   4.925  14.479 -0.8160  0.1157 -0.0280
 2412TIP3   OH228650   5.793   5.424   0.289  0.2120  0.2031 -0.0119
 2412TIP3    H128651   5.847   5.413   0.211 -0.8631 -0.9988 -0.6169
 2412TIP3    H228652   5.706   5.394   0.262 -0.1699 -0.2432  1.6603
 2413TIP3   OH228653   1.620   5.790  13.457  0.4670  0.0823 -0.7528
 2413TIP3    H128654   1.596   5.858  13.520  0.4329  0.1328 -0.8209
 2413TIP3    H228655   1.562   5.717  13.479  0.0097  0.3246 -1.1355
 2414TIP3   OH228656   4.804   4.343  16.411 -0.4816 -0.1762 -0.4778
 2414TIP3    H128657   4.759   4.306  16.487  0.8612  0.8742  0.8588
 2414TIP3    H228658   4.823   4.434  16.436  1.5767 -0.3370 -1.3614
 2415TIP3   OH228659   3.508   1.861   3.628 -0.5682 -0.1299 -0.3891
 2415TIP3    H128660   3.492   1.835   3.537  0.2477 -2.3576  0.0924
 2415TIP3    H228661   3.589   1.816   3.652 -0.5922  0.7110  1.3548
 2416TIP3   OH228662   5.002   3.100   4.231  0.7047  0.2938  0.2069
 2416TIP3    H128663   5.096   3.109   4.245  0.4105  3.5617  0.4687
 2416TIP3    H228664   4.964   3.176   4.274 -2.0459 -0.7661 -0.2537
 2417TIP3   OH228665   1.818   5.394  14.693 -0.2673  0.5056  0.0111
 2417TIP3    H128666   1.814   5.313  14.744  0.6620  0.7760  0.5440
 2417TIP3    H228667   1.887   5.445  14.736 -0.8533  1.5819 -0.3083
 2418TIP3   OH228668   0.082   6.375   5.612  0.5386 -0.3531  0.2873
 2418TIP3    H128669   0.075   6.462   5.572  0.5941 -0.8350 -0.7895
 2418TIP3    H228670   0.089   6.393   5.706  0.1520  0.7904  0.1163
 2419TIP3   OH228671   2.149   5.481   1.269  0.3231 -0.0253 -1.3124
 2419TIP3    H128672   2.179   5.556   1.218  0.4055 -0.3281 -1.7072
 2419TIP3    H228673   2.126   5.519   1.354 -1.6889  0.7950 -2.1895
 2420TIP3   OH228674   1.792   3.703   1.198 -0.4556  0.4224 -0.3353
 2420TIP3    H128675   1.761   3.629   1.146 -0.4888  1.0538 -1.2239
 2420TIP3    H228676   1.774   3.678   1.289  0.7959 -1.2435 -0.5314
 2421TIP3   OH228677   3.756   3.051  15.989  0.6552  0.0506 -0.1614
 2421TIP3    H128678   3.719   2.995  16.057 -1.2280 -2.6628 -3.2585
 2421TIP3    H228679   3.847   3.063  16.014  0.1051 -1.2055  2.5997
 2422TIP3   OH228680   1.773   2.749  11.659 -0.5216  0.0237 -0.0857
 2422TIP3    H128681   1.862   2.723  11.636 -0.4565 -0.2772  0.5065
 2422TIP3    H228682   1.717   2.695  11.604 -0.3412  0.2205 -0.4635
 2423TIP3   OH228683   6.264   0.587   2.388 -0.3700  0.0572  0.1894
 2423TIP3    H128684   6.204   0.539   2.330  1.8631 -1.3295 -1.0680
 2423TIP3    H228685   6.334   0.524   2.407  0.9520  1.7813  1.1896
 2424TIP3   OH228686   0.975   5.642  15.521  0.4699 -0.1719 -0.5208
 2424TIP3    H128687   0.889   5.614  15.552  0.2965  0.4226 -0.4504
 2424TIP3    H228688   0.964   5.736  15.504  0.6964 -0.3817 -1.9034
 2425TIP3   OH228689   3.941   2.395  16.894  0.0538  0.1219 -0.4372
 2425TIP3    H128690   3.967   2.356  16.978 -0.7544 -0.8296 -0.6139
 2425TIP3    H228691   3.891   2.473  16.919 -0.0912 -0.0994 -0.0272
 2426TIP3   OH228692   5.944   0.256   3.877  0.6870  0.2239  0.2089
 2426TIP3    H128693   5.954   0.329   3.938  3.4920  1.0082 -1.0753
 2426TIP3    H228694   5.913   0.183   3.930  0.6250  1.5812  2.0657
 2427TIP3   OH228695   6.266   3.974  16.546 -0.1920 -0.1948  0.1268
 2427TIP3    H128696   6.338   3.923  16.511 -0.1865  0.9496 -1.5770
 2427TIP3    H228697   6.193   3.912  16.552  0.3399 -0.8469 -0.0872
 2428TIP3   OH228698   3.681   2.077   0.423  0.0704 -0.0808  0.1561
 2428TIP3    H128699   3.654   1.985   0.425  0.8595 -0.3111  2.0278
 2428TIP3    H228700   3.649   2.113   0.506  0.8323  1.0195 -0.0110
 2429TIP3   OH228701   0.088   5.808   0.677  0.0876  0.4488 -0.2630
 2429TIP3    H128702   0.055   5.794   0.588 -0.4705  0.5394 -0.0729
 2429TIP3    H228703   0.064   5.898   0.698  0.0912  0.3826  0.0352
 2430TIP3   OH228704   5.225   6.671  14.106  0.3850  0.1292  0.3636
 2430TIP3    H128705   5.283   6.718  14.046  0.2518 -0.7507 -0.4671
 2430TIP3    H228706   5.137   6.689  14.073  0.2058  1.0679  1.3369
 2431TIP3   OH228707   1.590   4.658  13.913  0.1060 -0.1457  0.1479
 2431TIP3    H128708   1.531   4.655  13.989  1.0759 -2.0648  0.8642
 2431TIP3    H228709   1.596   4.568  13.884 -1.3683  0.7431 -3.1615
 2432TIP3   OH228710   3.377   2.725   2.863 -0.3483 -0.5392  0.2225
 2432TIP3    H128711   3.371   2.820   2.878 -3.1685 -0.6612  0.0808
 2432TIP3    H228712   3.396   2.689   2.949 -0.4380  0.0763  0.5070
 2433TIP3   OH228713   5.361   5.243  11.202  0.2374  0.4171 -0.2943
 2433TIP3    H128714   5.401   5.324  11.171  2.5112 -0.4851  0.1108
 2433TIP3    H228715   5.405   5.225  11.286 -2.1981  0.1922  0.9866
 2434TIP3   OH228716   4.689   3.977   0.547 -0.3628 -0.5414  0.3292
 2434TIP3    H128717   4.607   3.928   0.543 -0.5117 -0.3794  1.2906
 2434TIP3    H228718   4.757   3.910   0.552 -0.6477 -0.6913  3.1740
 2435TIP3   OH228719   0.568   3.098  16.162 -0.2803 -0.1171 -0.5670
 2435TIP3    H128720   0.531   3.017  16.127 -0.5882  0.1892 -0.9480
 2435TIP3    H228721   0.662   3.092  16.143 -0.4291  0.0028 -1.3513
 2436TIP3   OH228722   5.387   2.514   5.066  0.0160 -0.1412  0.0150
 2436TIP3    H128723   5.463   2.537   5.120  0.3127  0.5700 -0.7045
 2436TIP3    H228724   5.412   2.541   4.977 -1.8479  1.8811  0.0771
 2437TIP3   OH228725   0.841   0.797  15.397 -0.5888 -0.4773  0.5456
 2437TIP3    H128726   0.885   0.851  15.331 -1.8874  0.2298  0.2276
 2437TIP3    H228727   0.750   0.792  15.367 -1.1056 -0.4755  2.0687
 2438TIP3   OH228728   4.091   4.855  15.083  0.1251 -0.5840  0.0460
 2438TIP3    H128729   4.058   4.913  15.015 -1.5572 -0.1369  1.2306
 2438TIP3    H228730   4.156   4.800  15.038  0.8051  1.3230 -1.3624
 2439TIP3   OH228731   0.521   3.765  12.196 -0.1667 -0.1135 -0.2298
 2439TIP3    H128732   0.602   3.725  12.163  0.3401  0.3153  0.4766
 2439TIP3    H228733   0.499   3.713  12.273  0.3410  0.7904  0.5296
 2440TIP3   OH228734   1.560   3.231  12.599 -0.3247  0.4169  0.0166
 2440TIP3    H128735   1.516   3.286  12.664 -0.4687 -0.1521  0.4005
 2440TIP3    H228736   1.629   3.287  12.563 -0.8924  1.0684 -0.0679
 2441TIP3   OH228737   4.294   1.953   5.141 -0.1322  0.1035  0.3201
 2441TIP3    H128738   4.280   2.047   5.135 -2.1819 -0.0436  2.0538
 2441TIP3    H228739   4.289   1.934   5.235 -0.1573 -1.7940 -0.0404
 2442TIP3   OH228740   4.330   4.193  12.104 -0.2344  0.5010 -0.1515
 2442TIP3    H128741   4.239   4.167  12.094  0.2151 -0.4232 -2.2051
 2442TIP3    H228742   4.357   4.154  12.187 -0.9949 -1.4170 -0.7807
 2443TIP3   OH228743   4.539   6.623   5.770  0.2169  0.1382  0.1838
 2443TIP3    H128744   4.597   6.604   5.696 -0.4636 -0.2513 -0.2605
 2443TIP3    H228745   4.486   6.544   5.780 -0.8420  0.8048  0.0102
 2444TIP3   OH228746   4.626   0.148  11.403  0.2909 -0.0986 -0.2037
 2444TIP3    H128747   4.534   0.169  11.386  0.4066  0.8324  0.2881
 2444TIP3    H228748   4.666   0.232  11.425  0.8520 -0.7602  1.3850
 2445TIP3   OH228749   0.281   5.639  15.123 -0.4916  0.1936  0.0579
 2445TIP3    H128750   0.368   5.665  15.094 -0.3792  0.1484  0.3484
 2445TIP3    H228751   0.238   5.721  15.146  0.0758  0.0885  1.5623
 2446TIP3   OH228752   0.589   4.001   2.466 -0.0148 -0.1288 -0.1339
 2446TIP3    H128753   0.577   3.916   2.510  0.4607  0.4244  1.1045
 2446TIP3    H228754   0.606   4.062   2.538 -3.2481  1.5789 -0.7445
 2447TIP3   OH228755   2.164   5.306   0.353 -0.0255  1.0690  0.0290
 2447TIP3    H128756   2.084   5.298   0.406 -0.6502  1.6976 -0.8069
 2447TIP3    H228757   2.212   5.378   0.393 -0.2555  1.2079  0.0575
 2448TIP3   OH228758   2.911   5.604   5.920 -0.2081 -0.6954 -0.1658
 2448TIP3    H128759   2.907   5.511   5.940  0.5163 -0.5308  0.7925
 2448TIP3    H228760   2.831   5.622   5.870 -2.1410 -1.0812  2.7161
 2449TIP3   OH228761   0.954   6.425   4.385  0.1748 -0.2846 -0.4452
 2449TIP3    H128762   1.043   6.403   4.355  1.1322 -0.3611  2.3516
 2449TIP3    H228763   0.963   6.512   4.423 -1.0757 -0.0878 -0.5908
 2450TIP3   OH228764   3.391   4.038   2.249  0.3316  0.4069  0.5255
 2450TIP3    H128765   3.378   4.120   2.201 -0.9736  0.2883  0.6785
 2450TIP3    H228766   3.406   4.066   2.340  0.6318  0.5059  0.4484
 2451TIP3   OH228767   0.704   0.858   3.041  0.2718 -0.1585  0.8750
 2451TIP3    H128768   0.745   0.893   2.963 -0.0117  0.3616  0.9546
 2451TIP3    H228769   0.710   0.763   3.032 -3.5517 -0.2584 -1.8776
 2452TIP3   OH228770   0.322   0.209  14.974 -0.0999 -0.2718 -0.1273
 2452TIP3    H128771   0.244   0.173  14.931 -1.8149  0.0259  2.5896
 2452TIP3    H228772   0.295   0.295  15.007  2.0740  0.8209 -1.0828
 2453TIP3   OH228773   6.166   5.422   4.582  0.6410 -0.0928  0.9269
 2453TIP3    H128774   6.158   5.487   4.512 -1.4165 -2.2950 -0.9609
 2453TIP3    H228775   6.259   5.400   4.583  0.4621 -1.1948 -2.2502
 2454TIP3   OH228776   3.716   1.462  10.958 -0.5421 -0.2409 -0.0523
 2454TIP3    H128777   3.666   1.416  11.026 -1.0603  0.5641  0.1183
 2454TIP3    H228778   3.672   1.438  10.876 -0.7533 -0.1270  0.0278
 2455TIP3   OH228779   2.602   1.487   6.523  0.0410 -0.3135 -0.1660
 2455TIP3    H128780   2.556   1.445   6.450  0.5494 -1.3523  0.0993
 2455TIP3    H228781   2.692   1.496   6.492  0.3654 -1.2038  0.5122
 2456TIP3   OH228782   3.254   2.459  15.605  0.1511 -0.4764 -0.7045
 2456TIP3    H128783   3.281   2.487  15.517 -0.4575 -1.0961 -1.0939
 2456TIP3    H228784   3.329   2.481  15.661  0.4039  0.2432 -1.3141
 2457TIP3   OH228785   0.912   6.202  13.173  0.3871 -0.1339 -0.0028
 2457TIP3    H128786   0.826   6.217  13.213  1.5848  2.1031  1.7706
 2457TIP3    H228787   0.938   6.116  13.204  0.4330  0.7560  2.4699
 2458TIP3   OH228788   2.408   4.064  12.848 -0.0452  0.2842  0.1614
 2458TIP3    H128789   2.484   4.011  12.823 -0.9955 -0.9178 -0.2576
 2458TIP3    H228790   2.381   4.106  12.766 -0.6522 -0.3761  0.0167
 2459TIP3   OH228791   0.531   3.176   5.613 -0.2392  0.7000 -0.4020
 2459TIP3    H128792   0.560   3.086   5.623  0.9194  1.0256 -0.7517
 2459TIP3    H228793   0.585   3.211   5.542  1.1194  2.4211  1.4290
 2460TIP3   OH228794   6.498   6.347   2.088 -0.1875 -0.8361  0.1123
 2460TIP3    H128795   6.550   6.355   2.168 -2.2545 -1.7464  1.5615
 2460TIP3    H228796   6.564   6.346   2.018  1.7573 -1.8399  1.8882
 2461TIP3   OH228797   0.554   1.471  10.961 -0.2496 -0.9745 -0.4326
 2461TIP3    H128798   0.505   1.416  11.022 -0.0763 -2.0691 -1.2659
 2461TIP3    H228799   0.640   1.431  10.955  0.5055  0.4811  0.3958
 2462TIP3   OH228800   3.580   4.361   2.750 -0.9109 -0.5521  0.1117
 2462TIP3    H128801   3.634   4.282   2.749 -0.2991 -0.1792  1.6367
 2462TIP3    H228802   3.600   4.405   2.668  0.9791 -0.5217  0.5709
 2463TIP3   OH228803   3.307   0.393  11.384 -0.1292 -0.2149 -0.2030
 2463TIP3    H128804   3.335   0.400  11.475 -0.9494 -1.0446  0.1220
 2463TIP3    H228805   3.358   0.460  11.338 -1.6298  2.0445  1.3140
 2464TIP3   OH228806   6.282   3.441   4.736  0.4567 -0.4813 -0.3149
 2464TIP3    H128807   6.239   3.526   4.730  0.8780 -0.2983 -0.8889
 2464TIP3    H228808   6.211   3.378   4.745  0.1162 -0.1111 -0.4121
 2465TIP3   OH228809   3.965   5.043   5.035  0.2409 -0.1423  0.4922
 2465TIP3    H128810   4.018   5.063   4.958 -0.7085  0.5067 -0.0088
 2465TIP3    H228811   4.027   5.045   5.109  1.0561 -0.2470 -0.1885
 2466TIP3   OH228812   2.320   5.000   4.200 -0.6193 -0.6475 -0.3673
 2466TIP3    H128813   2.400   4.962   4.236  0.2298 -0.4517 -1.9895
 2466TIP3    H228814   2.254   4.932   4.214 -0.0863 -0.9753  0.6281
 2467TIP3   OH228815   4.674   5.458   4.370 -0.7943 -0.2938  0.4327
 2467TIP3    H128816   4.644   5.514   4.299 -2.2054  0.1922  1.3795
 2467TIP3    H228817   4.595   5.440   4.420  0.1777 -0.6355  1.8663
 2468TIP3   OH228818   0.844   5.686   3.027  0.2899  0.4031 -0.1301
 2468TIP3    H128819   0.805   5.757   2.975  0.4325  1.0985  0.7134
 2468TIP3    H228820   0.857   5.723   3.114 -2.0605 -1.4506  1.0885
 2469TIP3   OH228821   3.415   5.975  14.064 -0.1346 -0.1084 -0.1460
 2469TIP3    H128822   3.376   5.950  13.980 -2.4564  0.7911  0.6225
 2469TIP3    H228823   3.405   6.070  14.068 -0.0169 -0.1377  1.1352
 2470TIP3   OH228824   0.279   3.316  13.429  0.8177  0.1644 -0.1238
 2470TIP3    H128825   0.237   3.243  13.474  1.4938  0.9919  1.9140
 2470TIP3    H228826   0.359   3.333  13.480  0.2457  2.8628 -0.0336
 2471TIP3   OH228827   2.217   0.188  14.135  0.4626 -0.1717  0.2706
 2471TIP3    H128828   2.167   0.202  14.054 -0.5942  1.0540  1.1125
 2471TIP3    H228829   2.287   0.252  14.131 -0.1329  0.5130  0.7527
 2472TIP3   OH228830   6.173   5.980   0.095  0.3469  0.1418 -0.1639
 2472TIP3    H128831   6.080   5.963   0.112 -0.0310  2.1096 -0.1425
 2472TIP3    H228832   6.212   5.986   0.182  0.8268 -2.2819 -0.1798
 2473TIP3   OH228833   6.265   6.341   5.896  0.5796 -0.2177 -0.0357
 2473TIP3    H128834   6.284   6.335   5.989  1.7316  1.6148 -0.1309
 2473TIP3    H228835   6.172   6.362   5.891  0.5550 -0.1644  0.7012
 2474TIP3   OH228836   2.233   2.906  12.626  0.6830  0.0647 -0.4285
 2474TIP3    H128837   2.187   2.905  12.542 -0.1615 -2.0713  0.0410
 2474TIP3    H228838   2.281   2.989  12.625 -0.6780  0.8743 -2.2704
 2475TIP3   OH228839   6.282   4.375   2.282  0.0307 -0.3785  0.3459
 2475TIP3    H128840   6.365   4.362   2.327  0.8200 -0.4135 -1.0922
 2475TIP3    H228841   6.262   4.290   2.243  0.0480  0.0140 -0.5236
 2476TIP3   OH228842   3.671   3.564  12.059  0.4762 -0.0815  0.0562
 2476TIP3    H128843   3.613   3.535  11.989  0.4039  1.9080 -0.7331
 2476TIP3    H228844   3.615   3.570  12.136  0.1656 -0.5054 -0.1329
 2477TIP3   OH228845   5.057   1.646  12.487 -0.1409 -0.2047  0.3164
 2477TIP3    H128846   5.026   1.621  12.400  3.1387  0.1657 -1.0493
 2477TIP3    H228847   5.088   1.736  12.476  1.7641 -0.6932  1.4428
 2478TIP3   OH228848   3.044   6.754   5.858 -0.7078  0.1439 -0.0836
 2478TIP3    H128849   2.984   6.794   5.921 -1.7870 -0.9363 -0.4033
 2478TIP3    H228850   3.131   6.763   5.898 -1.2946  0.1152  1.2237
 2479TIP3   OH228851   1.569   6.492  16.534  0.1909 -0.5984  0.4897
 2479TIP3    H128852   1.581   6.423  16.469 -1.8033  0.0847 -0.6564
 2479TIP3    H228853   1.599   6.571  16.490 -1.4717 -0.0829  0.2580
 2480TIP3   OH228854   6.157   0.842   0.067 -0.3246 -0.1127  0.3823
 2480TIP3    H128855   6.062   0.838   0.067 -0.3514  0.0515  1.9348
 2480TIP3    H228856   6.184   0.755   0.098  0.0139  0.0894  0.6536
 2481TIP3   OH228857   4.272   0.294  12.535  0.1783 -0.5003  0.0507
 2481TIP3    H128858   4.254   0.253  12.450  1.1032 -1.2998  0.2264
 2481TIP3    H228859   4.348   0.245  12.569  0.8358  0.8795  0.6021
 2482TIP3   OH228860   0.914   2.640   1.722  0.6271  0.3892  0.6307
 2482TIP3    H128861   0.958   2.669   1.642  2.0459 -1.9570  0.5187
 2482TIP3    H228862   0.828   2.684   1.719  1.2173  1.4701 -1.4245
 2483TIP3   OH228863   1.018   1.191   4.397 -0.2791 -0.1872  0.0601
 2483TIP3    H128864   1.038   1.097   4.394  0.5495  0.0581 -2.5167
 2483TIP3    H228865   0.958   1.199   4.471  0.6995 -2.5413  1.1729
 2484TIP3   OH228866   1.180   5.905   2.189  0.3103 -0.2695  0.2326
 2484TIP3    H128867   1.133   5.975   2.235 -0.3757 -0.7379  0.2604
 2484TIP3    H228868   1.272   5.921   2.208 -0.0365 -1.2712  2.9530
 2485TIP3   OH228869   4.623   3.232  14.833 -0.4803 -0.2365  0.3556
 2485TIP3    H128870   4.560   3.175  14.790 -0.1428 -0.0757 -0.3551
 2485TIP3    H228871   4.697   3.238  14.772 -0.1428  0.2659  0.7997
 2486TIP3   OH228872   2.402   1.092  16.821 -0.0660 -0.5444  0.4459
 2486TIP3    H128873   2.411   1.063  16.730  0.4520  0.0870  0.2963
 2486TIP3    H228874   2.309   1.082  16.840 -0.7649  2.3826 -1.1927
 2487TIP3   OH228875   3.280   2.266  16.995 -0.5966  0.1599 -0.2273
 2487TIP3    H128876   3.304   2.246  16.904 -3.8216 -2.3066 -0.6097
 2487TIP3    H228877   3.363   2.263  17.043  1.1777  1.6154 -3.0606
 2488TIP3   OH228878   6.080   0.048   5.257 -0.7856  0.3124  0.3039
 2488TIP3    H128879   6.070   0.140   5.283  0.4428  0.9079 -1.1824
 2488TIP3    H228880   6.167   0.024   5.289 -1.9577 -1.0219  2.5632
 2489TIP3   OH228881   2.654   0.449   4.299  0.4077  0.1396  0.2131
 2489TIP3    H128882   2.715   0.522   4.309  2.6687 -1.7107  0.3070
 2489TIP3    H228883   2.683   0.404   4.220 -2.2632  0.4886 -1.0444
 2490TIP3   OH228884   0.274   1.565   2.361  0.1373  0.3485  0.0279
 2490TIP3    H128885   0.203   1.627   2.377 -0.6382 -0.4228 -0.4334
 2490TIP3    H228886   0.298   1.579   2.270  0.7684  0.7977  0.2574
 2491TIP3   OH228887   4.544   2.008  15.525  0.3194  0.4221 -0.0170
 2491TIP3    H128888   4.465   2.057  15.503  0.9669  1.1742 -0.7464
 2491TIP3    H228889   4.519   1.952  15.598 -1.0679  0.1348 -0.7021
 2492TIP3   OH228890   3.172   3.385   4.409  0.4016  0.2867  0.2832
 2492TIP3    H128891   3.246   3.382   4.470  0.2783 -0.3504  0.4050
 2492TIP3    H228892   3.113   3.317   4.440  1.3771 -1.6321 -1.8753
 2493TIP3   OH228893   0.895   2.149  11.720  0.5304 -0.5651 -0.3952
 2493TIP3    H128894   0.871   2.235  11.686  0.8891  0.6776  2.3924
 2493TIP3    H228895   0.977   2.127  11.676  0.2094  0.3052 -1.4451
 2494TIP3   OH228896   4.619   5.889   5.583  0.1529  0.0815 -0.0515
 2494TIP3    H128897   4.694   5.887   5.523  0.6621  0.3543  0.5743
 2494TIP3    H228898   4.627   5.973   5.628 -0.6018  0.1657 -0.0773
 2495TIP3   OH228899   2.469   3.217   5.997 -0.2572  0.6932  0.3329
 2495TIP3    H128900   2.504   3.253   6.078 -0.5862  0.0961  0.7458
 2495TIP3    H228901   2.427   3.291   5.953  1.7945  1.4867 -0.3290
 2496TIP3   OH228902   1.169   6.636   5.559  0.2937  0.3264 -0.6064
 2496TIP3    H128903   1.119   6.707   5.601  1.6068 -0.1795  1.8940
 2496TIP3    H228904   1.103   6.585   5.513 -1.3197  0.5505  1.3798
 2497TIP3   OH228905   1.726   0.404   4.614 -0.2145 -0.3305  0.0694
 2497TIP3    H128906   1.716   0.336   4.681 -1.9260 -0.7778 -0.6189
 2497TIP3    H228907   1.810   0.384   4.572 -0.2108 -1.4055  0.5749
 2498TIP3   OH228908   0.729   1.317   3.862  0.2601  0.1801  0.2888
 2498TIP3    H128909   0.728   1.413   3.859 -0.3829  0.1704  0.3026
 2498TIP3    H228910   0.706   1.297   3.953  1.2185  0.0288  0.5080
 2499TIP3   OH228911   2.521   4.846   1.055  0.2540  0.3809  0.5181
 2499TIP3    H128912   2.508   4.891   0.972 -1.4157 -0.2139  0.4374
 2499TIP3    H228913   2.566   4.765   1.032 -0.5245  0.0537  0.1554
 2500TIP3   OH228914   0.790   4.790   5.927 -0.0135  0.0859 -0.2888
 2500TIP3    H128915   0.799   4.802   5.833  0.6132 -0.1159 -0.2556
 2500TIP3    H228916   0.696   4.802   5.944 -0.0462  0.6395 -0.8565
 2501TIP3   OH228917   2.600   2.474   5.677 -0.4736 -0.0368 -0.0944
 2501TIP3    H128918   2.646   2.411   5.732 -0.8127 -0.2617 -0.0644
 2501TIP3    H228919   2.556   2.532   5.738  0.8054  0.9723 -0.1019
 2502TIP3   OH228920   6.417   5.646   5.846  0.6514 -0.0861  0.3768
 2502TIP3    H128921   6.420   5.590   5.769 -0.9803  0.3792 -0.0500
 2502TIP3    H228922   6.467   5.724   5.822  0.2223  0.0181 -0.1989
 2503TIP3   OH228923   4.535   5.012  14.298  0.1787  0.1497  0.3529
 2503TIP3    H128924   4.595   4.939  14.317 -0.4550 -1.4730 -3.4317
 2503TIP3    H228925   4.584   5.068  14.238 -1.4722 -0.3331 -1.4675
 2504TIP3   OH228926   6.459   5.434   3.957  0.3711 -0.2298  0.9021
 2504TIP3    H128927   6.403   5.446   3.880  1.5187 -0.6879 -0.0301
 2504TIP3    H228928   6.408   5.468   4.030 -1.2302 -0.8948  0.1149
 2505TIP3   OH228929   5.409   3.035  14.742  0.5116 -0.4542 -0.0573
 2505TIP3    H128930   5.439   2.970  14.806 -1.0878 -0.7976  0.3573
 2505TIP3    H228931   5.454   3.011  14.661  1.0428 -1.1923  0.4465
 2506TIP3   OH228932   0.031   3.190   0.451 -0.3179 -0.2761  0.0237
 2506TIP3    H128933   0.096   3.260   0.459 -1.2036  0.6968 -1.1444
 2506TIP3    H228934   0.056   3.142   0.372  0.2512 -1.2438  0.7892
 2507TIP3   OH228935   1.628   4.386  14.352  0.4490  0.8899 -0.0714
 2507TIP3    H128936   1.614   4.321  14.421 -1.4022  0.3221 -0.9461
 2507TIP3    H228937   1.707   4.432  14.378  0.4513 -0.1272  1.8016
 2508TIP3   OH228938   0.310   0.321   4.710  0.1440  0.3368 -0.3759
 2508TIP3    H128939   0.374   0.359   4.770  0.0494  0.0510 -0.0954
 2508TIP3    H228940   0.361   0.258   4.659  0.6239  1.8681 -1.8373
 2509TIP3   OH228941   1.299   0.950  13.808 -0.9219 -0.2114  0.7977
 2509TIP3    H128942   1.387   0.943  13.773 -1.1332  1.0868 -0.0312
 2509TIP3    H228943   1.262   0.862  13.798  0.0194 -0.5772  0.4807
 2510TIP3   OH228944   2.348   0.957   3.294  0.4159  0.6071 -0.2911
 2510TIP3    H128945   2.305   0.908   3.364 -0.0958  0.7619 -0.4907
 2510TIP3    H228946   2.437   0.973   3.326 -0.1711  1.6899  0.8238
 2511TIP3   OH228947   6.357   1.123   2.551  0.2965  0.0180 -0.1130
 2511TIP3    H128948   6.367   1.031   2.526  0.2309  0.0364 -0.2039
 2511TIP3    H228949   6.266   1.144   2.532 -0.0565 -0.2848  1.1751
 2512TIP3   OH228950   0.332   0.301  14.092  0.1216 -0.0654 -0.1507
 2512TIP3    H128951   0.322   0.345  14.177  0.3140 -1.0619  0.3990
 2512TIP3    H228952   0.424   0.315  14.069  0.2533 -0.4316  0.1592
 2513TIP3   OH228953   6.140   0.457   0.815 -0.1190 -0.4272 -0.4420
 2513TIP3    H128954   6.127   0.450   0.721  1.0794 -0.4154 -0.6240
 2513TIP3    H228955   6.148   0.366   0.845  0.5520 -0.3972 -0.5193
 2514TIP3   OH228956   3.108   6.599  12.509 -0.2866 -0.1279  0.1924
 2514TIP3    H128957   3.162   6.570  12.582 -1.6225 -1.2579  0.7552
 2514TIP3    H228958   3.064   6.678  12.541  3.0109  2.3751 -1.1882
 2515TIP3   OH228959   0.851   5.723   5.887  0.1232  0.9204 -0.3808
 2515TIP3    H128960   0.843   5.635   5.924 -1.7505  0.4058 -1.9099
 2515TIP3    H228961   0.898   5.710   5.804  0.6744  1.4971 -0.1637
 2516TIP3   OH228962   5.864   4.192   1.029 -0.1313  0.2408 -0.4308
 2516TIP3    H128963   5.780   4.185   1.075 -0.6409 -0.1961 -1.4267
 2516TIP3    H228964   5.929   4.200   1.100 -0.8379 -1.0901  0.4053
 2517TIP3   OH228965   6.661   3.757   3.395  0.0685  0.3041  0.5516
 2517TIP3    H128966   6.738   3.749   3.340 -0.1808 -1.0426  0.3589
 2517TIP3    H228967   6.602   3.815   3.347  0.7802  0.9898  0.4998
 2518TIP3   OH228968   4.882   3.972  13.802 -0.4137 -0.1727 -0.1685
 2518TIP3    H128969   4.793   3.989  13.770 -1.1157 -1.3710  1.0616
 2518TIP3    H228970   4.876   3.887  13.845  0.5744  1.0991  2.6263
 2519TIP3   OH228971   2.365   0.619   4.689 -0.3030  0.0745  0.5788
 2519TIP3    H128972   2.390   0.538   4.645  0.3826  0.3593  0.4451
 2519TIP3    H228973   2.280   0.599   4.729 -1.9665  0.4972 -2.6336
 2520TIP3   OH228974   2.861   6.387  13.278 -0.2372 -0.0699  0.0898
 2520TIP3    H128975   2.904   6.462  13.238  1.8968 -0.8713  0.8193
 2520TIP3    H228976   2.832   6.333  13.205  0.4657  0.2133 -0.3953
 2521TIP3   OH228977   3.241   3.531  16.876  0.0716 -0.2262 -0.7340
 2521TIP3    H128978   3.161   3.583  16.868  2.0172  2.9187 -0.7592
 2521TIP3    H228979   3.270   3.545  16.966  0.1001 -2.1455 -0.4257
 2522TIP3   OH228980   0.686   4.732   1.893  0.0640 -0.3568  0.2769
 2522TIP3    H128981   0.664   4.638   1.894  1.6073 -0.7317  1.1315
 2522TIP3    H228982   0.610   4.774   1.932 -0.7809 -1.2111 -0.3929
 2523TIP3   OH228983   1.802   1.718  16.227  0.6361  0.6272  0.5714
 2523TIP3    H128984   1.807   1.658  16.301  1.0073  0.5650  0.4966
 2523TIP3    H228985   1.744   1.676  16.165  0.4510  0.6050  0.7587
 2524TIP3   OH228986   2.630   3.986   4.929  0.7284 -0.1970  0.0290
 2524TIP3    H128987   2.698   4.039   4.887  0.6279  0.1551  0.3099
 2524TIP3    H228988   2.678   3.933   4.993  0.6186  0.7392  0.8957
 2525TIP3   OH228989   2.349   6.787  15.372 -0.0743  0.2079  0.1662
 2525TIP3    H128990   2.389   6.731  15.305 -0.0291  0.7976 -0.2988
 2525TIP3    H228991   2.257   6.796  15.345  0.3128  1.7556 -0.7022
 2526TIP3   OH228992   6.764   2.342  14.169 -0.2836  0.1737  0.5125
 2526TIP3    H128993   6.832   2.407  14.183  1.4337 -1.2266 -0.9460
 2526TIP3    H228994   6.716   2.338  14.251  1.6246  0.9549  1.6958
 2527TIP3   OH228995   3.046   5.600   0.120  0.4846  0.4647 -0.2695
 2527TIP3    H128996   2.998   5.584   0.039  1.7589  2.2551 -1.4026
 2527TIP3    H228997   3.137   5.580   0.099  0.3220 -3.0908  1.9040
 2528TIP3   OH228998   5.535   5.549   0.020 -0.1895 -0.0134  0.7163
 2528TIP3    H128999   5.603   5.526  -0.042 -1.5632 -0.5492 -0.6156
 2528TIP3    H229000   5.504   5.465   0.055 -0.6979  0.1860  0.7499
 2529TIP3   OH229001   3.716   5.955   5.666  0.0780  0.0920 -0.5206
 2529TIP3    H129002   3.684   5.951   5.576  1.1976  0.3754 -0.9352
 2529TIP3    H229003   3.808   5.982   5.658  0.6735 -1.5390  0.6172
 2530TIP3   OH229004   0.898   2.295   5.193  0.1004 -0.5401  0.2063
 2530TIP3    H129005   0.917   2.213   5.147 -1.0608 -1.3040  1.0486
 2530TIP3    H229006   0.879   2.358   5.123 -2.4934 -1.9005 -0.4049
 2531TIP3   OH229007   3.333   3.337  16.519  0.5205 -0.1682 -0.3415
 2531TIP3    H129008   3.373   3.281  16.452 -0.1263 -2.4052  1.0830
 2531TIP3    H229009   3.243   3.351  16.489  0.6962  0.1576 -0.7216
 2532TIP3   OH229010   1.377   1.406  16.101  0.4469 -0.0741 -0.1983
 2532TIP3    H129011   1.415   1.357  16.028 -1.1030  0.2771 -1.2719
 2532TIP3    H229012   1.440   1.395  16.173  1.3146 -1.5826 -1.1585
 2533TIP3   OH229013   3.067   6.580   3.180  0.3694 -0.6699 -0.1131
 2533TIP3    H129014   3.004   6.551   3.246  0.9814 -1.9147 -0.0529
 2533TIP3    H229015   3.136   6.624   3.230  0.4666 -0.9532  0.0014
 2534TIP3   OH229016   2.322   5.603  12.494 -0.4496 -0.3256  0.2144
 2534TIP3    H129017   2.233   5.637  12.481 -0.0232  0.2600 -1.2090
 2534TIP3    H229018   2.309   5.511  12.517 -1.4099 -0.3116 -0.2367
 2535TIP3   OH229019   4.470   1.340  15.045  0.8345 -1.0554  0.4921
 2535TIP3    H129020   4.559   1.319  15.017  1.1632 -0.0660  0.7701
 2535TIP3    H229021   4.414   1.290  14.985  1.5394  0.4004 -1.4267
 2536TIP3   OH229022   6.385   3.441  15.570  0.0387  0.1269  0.2134
 2536TIP3    H129023   6.423   3.362  15.607 -0.4904  0.0285  0.5468
 2536TIP3    H229024   6.455   3.506  15.575  0.1707 -0.0616  0.8104
 2537TIP3   OH229025   2.199   2.425  16.313 -0.3187  0.2585  0.0502
 2537TIP3    H129026   2.246   2.451  16.234  0.5609  1.9643  1.1175
 2537TIP3    H229027   2.263   2.376  16.364  0.0786  1.8519  1.1127
 2538TIP3   OH229028   1.067   0.117   5.756  0.2847  0.2001  0.2667
 2538TIP3    H129029   1.148   0.168   5.753  0.0110  0.6200 -0.2174
 2538TIP3    H229030   1.018   0.147   5.679 -0.2267 -0.2213  0.4276
 2539TIP3   OH229031   1.232   1.973   1.114  0.3932  0.1416 -0.0633
 2539TIP3    H129032   1.260   2.060   1.142  1.8012  0.6197 -2.7952
 2539TIP3    H229033   1.138   1.971   1.132  0.0843  2.7181 -1.1828
 2540TIP3   OH229034   5.777   1.071  16.672  0.7207 -0.5952  0.2986
 2540TIP3    H129035   5.750   0.980  16.683 -1.6770  0.2801  2.2476
 2540TIP3    H229036   5.780   1.084  16.578 -0.0467 -2.3885  0.0046
 2541TIP3   OH229037   6.486   0.076  12.668 -0.1713 -0.4451 -0.0441
 2541TIP3    H129038   6.543   0.014  12.622  2.0669 -1.8275  4.2340
 2541TIP3    H229039   6.541   0.152  12.685 -1.9817  1.5004 -2.4807
 2542TIP3   OH229040   0.456   4.387   5.905 -0.2974 -0.0113 -0.0780
 2542TIP3    H129041   0.428   4.399   5.814 -1.1147  1.0139  0.2958
 2542TIP3    H229042   0.388   4.430   5.957  1.0044  0.8448  0.9440
 2543TIP3   OH229043   0.552   2.388  16.600 -0.4587 -0.2474 -0.1354
 2543TIP3    H129044   0.514   2.321  16.543 -0.4203 -0.1955 -0.2202
 2543TIP3    H229045   0.625   2.345  16.643 -1.1524 -0.6152  0.6977
 2544TIP3   OH229046   5.313   3.063  15.756  0.2419  0.1584 -0.1002
 2544TIP3    H129047   5.397   3.055  15.800 -1.8068 -1.6122  3.6889
 2544TIP3    H229048   5.289   2.973  15.734 -0.6766  0.6438 -1.1458
 2545TIP3   OH229049   6.085   6.714   1.493  0.4065 -0.1843  0.4601
 2545TIP3    H129050   6.069   6.807   1.478 -1.3173 -0.4854  0.4006
 2545TIP3    H229051   6.101   6.708   1.587  2.2213  0.4002  0.2100
 2546TIP3   OH229052   2.667   2.397   4.225 -0.1244 -0.0689 -0.0224
 2546TIP3    H129053   2.716   2.359   4.298  0.2050 -1.2444 -0.8408
 2546TIP3    H229054   2.628   2.476   4.261  1.5051  0.3207  0.9325
 2547TIP3   OH229055   6.237   2.518  14.433  0.1497 -0.7818 -0.4330
 2547TIP3    H129056   6.194   2.590  14.388  0.6896  0.7742  1.4367
 2547TIP3    H229057   6.170   2.451  14.442 -0.2163 -0.7311 -2.6657
 2548TIP3   OH229058   2.163   5.994  15.196 -0.1841  0.3580  0.1881
 2548TIP3    H129059   2.163   5.966  15.104  0.7515 -0.0563  0.3137
 2548TIP3    H229060   2.165   6.089  15.192  0.6772  0.3239 -0.2160
 2549TIP3   OH229061   3.745   4.913   2.471 -0.2356  0.0792 -0.4240
 2549TIP3    H129062   3.670   4.878   2.424  0.0123 -0.9988 -0.0406
 2549TIP3    H229063   3.751   4.859   2.550  0.4574  0.6787 -0.0590
 2550TIP3   OH229064   2.450   1.149  15.587  0.2727  0.7927 -0.7315
 2550TIP3    H129065   2.471   1.218  15.650 -0.7723 -0.3297  0.8867
 2550TIP3    H229066   2.354   1.142  15.591  0.3334 -0.4281 -1.2040
 2551TIP3   OH229067   3.096   5.880   0.458 -0.3836  0.2776  0.6357
 2551TIP3    H129068   3.164   5.923   0.509 -0.5257  2.4007 -0.8770
 2551TIP3    H229069   3.058   5.950   0.405 -1.3636 -1.5373 -1.1379
 2552TIP3   OH229070   3.375   2.835   4.970 -0.3803  0.7612  0.0572
 2552TIP3    H129071   3.400   2.925   4.946 -0.8900  1.4821  2.1098
 2552TIP3    H229072   3.455   2.798   5.008 -0.7406  1.0301  1.0761
 2553TIP3   OH229073   5.872   1.739   4.173  0.1944  0.4413 -0.2985
 2553TIP3    H129074   5.797   1.781   4.215  1.1151 -1.1164  3.0369
 2553TIP3    H229075   5.833   1.675   4.113 -1.2277 -1.8331  2.9343
 2554TIP3   OH229076   2.996   0.820  11.486 -0.6497 -0.3374 -0.4693
 2554TIP3    H129077   3.038   0.905  11.474 -0.3505 -0.2313  1.2162
 2554TIP3    H229078   3.019   0.770  11.407  0.3413  0.6477 -0.8140
 2555TIP3   OH229079   3.737   6.716  14.647  0.0553  0.0110  0.2536
 2555TIP3    H129080   3.733   6.634  14.696  0.8083 -0.3695 -0.3289
 2555TIP3    H229081   3.666   6.710  14.583  0.0562 -0.1475  0.2684
 2556TIP3   OH229082   6.370   3.144   4.917 -0.8527 -0.1759  0.4677
 2556TIP3    H129083   6.301   3.206   4.941  1.2341  2.3817  0.1232
 2556TIP3    H229084   6.444   3.169   4.973  1.0487 -0.2231 -1.9648
 2557TIP3   OH229085   4.148   2.281  15.073 -0.1927  0.2500  0.1657
 2557TIP3    H129086   4.216   2.216  15.052 -0.3297 -0.1564  0.9400
 2557TIP3    H229087   4.068   2.229  15.082 -0.7634  0.8247 -1.4925
 2558TIP3   OH229088   5.762   1.919   1.595 -0.0407 -0.0922 -0.8726
 2558TIP3    H129089   5.692   1.886   1.539  0.7551 -0.5374 -1.6198
 2558TIP3    H229090   5.834   1.857   1.583  0.3777  0.1926  0.1221
 2559TIP3   OH229091   5.494   5.892  13.527  0.4780  0.5709 -0.7453
 2559TIP3    H129092   5.547   5.921  13.601 -2.5686  2.1847  0.9006
 2559TIP3    H229093   5.544   5.821  13.487  1.3632 -1.6509  4.0027
 2560TIP3   OH229094   4.485   0.458  11.454  0.0595  0.6266 -0.2628
 2560TIP3    H129095   4.523   0.511  11.384  0.6865  2.4012  1.3901
 2560TIP3    H229096   4.554   0.452  11.520 -0.8159 -0.3097  0.5833
 2561TIP3   OH229097   3.715   6.342   5.650  0.0873  0.1368  1.3506
 2561TIP3    H129098   3.737   6.310   5.738  0.0498  3.7074  2.7541
 2561TIP3    H229099   3.799   6.370   5.613  0.0430 -0.9683  0.3945
 2562TIP3   OH229100   4.322   5.108  14.758  0.2909 -0.2997  0.2003
 2562TIP3    H129101   4.294   5.193  14.790 -0.3108 -0.8093  1.0448
 2562TIP3    H229102   4.337   5.121  14.664  1.1119  0.9524  0.4965
 2563TIP3   OH229103   2.410   1.174  11.976 -0.5871 -1.6445 -0.1418
 2563TIP3    H129104   2.462   1.097  11.997 -0.8402 -1.7652  0.0456
 2563TIP3    H229105   2.320   1.151  12.002 -0.7646 -1.4990 -0.6154
 2564TIP3   OH229106   6.292   1.469  12.861 -0.2421 -0.0299  0.1595
 2564TIP3    H129107   6.302   1.393  12.917  1.8226 -0.0180 -0.1543
 2564TIP3    H229108   6.337   1.446  12.780  1.1643  1.8191  0.3773
 2565TIP3   OH229109   1.246   5.148   5.130  0.4923 -0.0549  0.1729
 2565TIP3    H129110   1.336   5.138   5.161  0.9595 -1.2214 -1.4480
 2565TIP3    H229111   1.249   5.224   5.072  0.4515 -0.0993  0.1127
 2566TIP3   OH229112   2.228   6.677  17.122 -0.2375  0.1408 -0.9865
 2566TIP3    H129113   2.139   6.664  17.156 -0.3741 -0.2667 -1.4942
 2566TIP3    H229114   2.243   6.601  17.065  1.0993 -0.7086  0.4656
 2567TIP3   OH229115   4.300   1.838   1.619  0.5792  0.3413 -0.5177
 2567TIP3    H129116   4.338   1.912   1.570  1.4195 -0.4364 -1.0487
 2567TIP3    H229117   4.374   1.779   1.634  0.0325 -0.1055  0.4512
 2568TIP3   OH229118   6.305   4.580   0.135  0.2920 -0.3503 -0.1837
 2568TIP3    H129119   6.334   4.660   0.179 -0.0742 -0.9523  1.1631
 2568TIP3    H229120   6.354   4.579   0.053  1.0196  0.7635  0.2298
 2569TIP3   OH229121   1.624   6.540  11.639 -0.0385  0.2722  0.0420
 2569TIP3    H129122   1.612   6.540  11.734  2.3243  0.2387  0.3727
 2569TIP3    H229123   1.536   6.552  11.603 -1.0159 -0.2337  2.2209
 2570TIP3   OH229124   5.352   0.544  12.673  0.5709  0.8880  0.0421
 2570TIP3    H129125   5.446   0.539  12.658  0.4932  2.5577 -1.1074
 2570TIP3    H229126   5.343   0.542  12.768  1.6322 -1.1334  0.1340
 2571TIP3   OH229127   0.398   4.626   6.691  0.1084 -0.9311  0.9750
 2571TIP3    H129128   0.325   4.671   6.648  1.1949  1.4746  1.5525
 2571TIP3    H229129   0.359   4.585   6.769 -1.0755 -1.8320 -0.0642
 2572TIP3   OH229130   4.472   0.724  14.074 -0.4260  0.1902  0.0648
 2572TIP3    H129131   4.437   0.691  13.992 -2.0154 -0.5916  1.0202
 2572TIP3    H229132   4.497   0.645  14.123  1.9651  0.7073 -0.2804
 2573TIP3   OH229133   0.708   3.863  14.601  0.0146  0.2745  0.2133
 2573TIP3    H129134   0.743   3.784  14.643  1.4501  0.6762 -0.2345
 2573TIP3    H229135   0.622   3.875  14.643  0.5258 -0.5243  1.5381
 2574TIP3   OH229136   0.864   4.741  17.137  0.1655  0.2163 -0.2446
 2574TIP3    H129137   0.950   4.779  17.121 -0.1812  0.9960 -0.2987
 2574TIP3    H229138   0.882   4.657  17.179  0.9909 -0.5001 -1.9957
 2575TIP3   OH229139   0.195   0.096   5.976  0.0445  0.5329  0.6134
 2575TIP3    H129140   0.134   0.150   6.027 -2.6611 -0.7454 -1.1626
 2575TIP3    H229141   0.176   0.119   5.885 -0.6909 -2.8441 -0.1586
 2576TIP3   OH229142   1.866   4.602   3.796  0.2860 -0.1608 -0.4580
 2576TIP3    H129143   1.840   4.662   3.727 -0.2970  1.3269  1.0294
 2576TIP3    H229144   1.789   4.546   3.810  0.4978 -0.6369 -1.1793
 2577TIP3   OH229145   0.811   1.688   2.882  0.5077  0.1946 -0.3453
 2577TIP3    H129146   0.743   1.726   2.827  0.6381  1.5502  0.4028
 2577TIP3    H229147   0.880   1.663   2.821  1.2054  2.8591 -0.7251
 2578TIP3   OH229148   2.816   0.645   4.375 -0.3381 -0.2671  0.1526
 2578TIP3    H129149   2.818   0.734   4.411  0.0657 -0.5819  0.9203
 2578TIP3    H229150   2.880   0.647   4.304 -0.0775 -0.0335  0.3921
 2579TIP3   OH229151   2.037   0.134  13.144  0.5202  0.1660 -0.3997
 2579TIP3    H129152   2.047   0.167  13.233 -3.2274 -1.6703  0.8281
 2579TIP3    H229153   2.017   0.212  13.092 -0.7518  0.8550  1.0647
 2580TIP3   OH229154   4.897   1.424  15.530 -0.2373 -0.4197  0.5545
 2580TIP3    H129155   4.859   1.506  15.498  0.0802 -0.2138  0.6992
 2580TIP3    H229156   4.991   1.434  15.517 -0.0746 -0.2365  1.7635
 2581TIP3   OH229157   5.731   4.860   4.119  0.7735  0.1227  0.1588
 2581TIP3    H129158   5.666   4.852   4.188  0.1035  0.8194 -0.3836
 2581TIP3    H229159   5.719   4.780   4.067  3.4121 -1.9694  2.6161
 2582TIP3   OH229160   3.367   1.441   2.709 -0.6955  0.1040 -0.0691
 2582TIP3    H129161   3.357   1.453   2.803 -2.1935  1.7786 -0.4086
 2582TIP3    H229162   3.332   1.353   2.692 -2.4848  0.6640  0.6486
 2583TIP3   OH229163   3.815   2.337   1.522 -0.9690  0.3996 -0.0748
 2583TIP3    H129164   3.765   2.408   1.563 -1.6425 -0.7886  1.1853
 2583TIP3    H229165   3.773   2.257   1.553  0.0608 -0.5699 -1.1412
 2584TIP3   OH229166   3.922   4.802  11.421  0.2427 -0.2547  0.6660
 2584TIP3    H129167   3.898   4.710  11.407 -0.6634 -0.0413  0.7767
 2584TIP3    H229168   3.989   4.800  11.490  2.3579 -1.0587 -1.3446
 2585TIP3   OH229169   6.074   0.103   0.632 -0.6539 -0.4155  0.0976
 2585TIP3    H129170   6.114   0.138   0.712 -0.4627 -0.0020 -0.1734
 2585TIP3    H229171   6.137   0.038   0.600  0.5848  1.3204 -1.1646
 2586TIP3   OH229172   6.047   6.362   6.240  0.1900  0.0462  0.3879
 2586TIP3    H129173   6.054   6.272   6.210  0.3605 -0.2046  1.1715
 2586TIP3    H229174   6.129   6.378   6.289  0.8315  1.0992 -1.0065
 2587TIP3   OH229175   2.869   5.897  13.904  0.4506 -0.0030  0.8232
 2587TIP3    H129176   2.834   5.879  13.991  1.4538 -2.3758  0.7688
 2587TIP3    H229177   2.857   5.991  13.892 -0.2781  0.2403  3.2664
 2588TIP3   OH229178   5.649   3.209   2.680 -0.0166 -0.0139  0.3191
 2588TIP3    H129179   5.618   3.208   2.770 -0.9486 -0.1282 -0.0018
 2588TIP3    H229180   5.576   3.174   2.629  0.6559 -0.3311 -0.4327
 2589TIP3   OH229181   3.145   5.561   6.293 -0.4793  0.4088 -0.6158
 2589TIP3    H129182   3.106   5.640   6.253  0.1015 -0.1771 -2.3897
 2589TIP3    H229183   3.239   5.576   6.287 -0.3741 -0.3206 -0.7641
 2590TIP3   OH229184   5.360   1.557  14.587  0.0359  0.5278 -0.2612
 2590TIP3    H129185   5.326   1.625  14.645  0.8350 -0.0718  0.9303
 2590TIP3    H229186   5.450   1.585  14.568  0.4569 -0.3314  0.4480
 2591TIP3   OH229187   2.100   3.535   3.283 -0.1517  0.6398  0.3715
 2591TIP3    H129188   2.019   3.489   3.307 -0.2122  0.6776  0.2389
 2591TIP3    H229189   2.098   3.616   3.334 -0.9582  1.3755 -0.7849
 2592TIP3   OH229190   2.058   5.496  15.160 -0.1850 -0.1486  0.3690
 2592TIP3    H129191   2.003   5.542  15.097 -0.0345 -0.3204  0.1134
 2592TIP3    H229192   2.035   5.403  15.149 -2.1225  0.0309  2.4399
 2593TIP3   OH229193   1.490   2.194  15.255 -0.2081  0.3621  0.5310
 2593TIP3    H129194   1.569   2.139  15.254 -0.0443  0.5975  0.0688
 2593TIP3    H229195   1.489   2.233  15.343 -0.7242 -0.9393  1.1048
 2594TIP3   OH229196   5.778   3.270   3.079 -0.9668  0.3277  0.2613
 2594TIP3    H129197   5.729   3.351   3.088 -1.0344  0.2774  0.3473
 2594TIP3    H229198   5.860   3.285   3.125 -1.2029  0.1609  0.7416
 2595TIP3   OH229199   5.377   0.076   0.364  0.0328 -0.0422 -0.5858
 2595TIP3    H129200   5.382   0.056   0.271  2.5254 -0.1115 -0.4604
 2595TIP3    H229201   5.387  -0.009   0.407  0.0282  0.1414 -0.2257
 2596TIP3   OH229202   6.266   4.457  12.378  0.1384 -0.0928  0.3605
 2596TIP3    H129203   6.199   4.440  12.443  1.1184 -1.0296  1.1452
 2596TIP3    H229204   6.333   4.390  12.394  0.7714  0.1794 -1.0682
 2597TIP3   OH229205   2.914   1.645   2.516  0.0749  0.0458  0.5744
 2597TIP3    H129206   2.826   1.678   2.531 -0.6440 -1.8538  0.7035
 2597TIP3    H229207   2.906   1.590   2.437  1.3735  0.7204 -0.0576
 2598TIP3   OH229208   1.777   2.728   5.712  0.7524 -0.2239 -0.8749
 2598TIP3    H129209   1.841   2.706   5.779  1.5280 -0.0656 -1.5643
 2598TIP3    H229210   1.826   2.727   5.630  0.1384  1.0324 -1.2717
 2599TIP3   OH229211   5.880   3.597  11.229 -0.0997 -0.0405 -0.1506
 2599TIP3    H129212   5.873   3.665  11.162  0.6679 -0.0306 -0.2211
 2599TIP3    H229213   5.789   3.579  11.255 -0.2406  2.0466  0.8977
 2600TIP3   OH229214   3.334   6.382   2.707  0.3470 -0.0690 -0.5983
 2600TIP3    H129215   3.289   6.403   2.789  1.4405 -0.3576  0.0913
 2600TIP3    H229216   3.417   6.428   2.713  0.7158 -0.6429 -1.2433
 2601TIP3   OH229217   5.281   0.802   5.637 -0.0729  0.2152 -0.4983
 2601TIP3    H129218   5.228   0.878   5.663  0.7486  0.6808 -0.1933
 2601TIP3    H229219   5.229   0.726   5.665 -0.0053  0.6859  0.9197
 2602TIP3   OH229220   5.321   3.748  13.381  0.1879 -0.3698 -0.0761
 2602TIP3    H129221   5.317   3.828  13.433 -0.1468  0.7747 -1.7993
 2602TIP3    H229222   5.398   3.702  13.412  1.1056  1.2405  0.1022
 2603TIP3   OH229223   1.689   0.407   5.392  0.3638  0.3314  0.0183
 2603TIP3    H129224   1.663   0.491   5.432 -1.1112  0.2472 -0.7374
 2603TIP3    H229225   1.655   0.341   5.453 -1.0627  0.2260 -0.8719
 2604TIP3   OH229226   3.152   6.215  12.184  0.6114  0.4281  0.7448
 2604TIP3    H129227   3.206   6.280  12.140 -0.8306  0.3355 -1.1904
 2604TIP3    H229228   3.064   6.253  12.186  0.0874 -0.7555  1.0505
 2605TIP3   OH229229   5.644   0.546   1.873 -0.2936 -0.1796 -0.0608
 2605TIP3    H129230   5.604   0.526   1.789 -0.1421 -0.3060 -0.1035
 2605TIP3    H229231   5.581   0.512   1.938 -0.6022  0.2930 -0.1169
 2606TIP3   OH229232   6.388   0.740   1.688  0.6457  0.0117  0.0061
 2606TIP3    H129233   6.467   0.782   1.724  2.3130 -1.9742 -1.2263
 2606TIP3    H229234   6.378   0.777   1.601  0.0745  0.4253  0.2446
 2607TIP3   OH229235   0.413   5.615   0.793  0.1795 -0.0426 -0.3186
 2607TIP3    H129236   0.478   5.568   0.742 -0.1652 -0.0044 -0.7933
 2607TIP3    H229237   0.458   5.694   0.824  0.0366  0.5316 -1.5598
 2608TIP3   OH229238   0.676   3.748   2.733  0.1688  0.4783  0.1265
 2608TIP3    H129239   0.675   3.713   2.644 -1.0879  1.1467 -0.1421
 2608TIP3    H229240   0.769   3.766   2.751  0.4341  0.3298 -1.0459
 2609TIP3   OH229241   0.742   1.441   0.586  0.1200 -0.1034 -0.6353
 2609TIP3    H129242   0.791   1.448   0.668 -1.3553 -0.8717  0.3207
 2609TIP3    H229243   0.769   1.518   0.536  2.4005 -0.5694 -0.1869
 2610TIP3   OH229244   5.916   3.685  16.919 -0.8518 -0.4085 -0.3072
 2610TIP3    H129245   6.005   3.718  16.931 -0.2973 -1.3118 -1.7079
 2610TIP3    H229246   5.876   3.690  17.005  1.0386 -1.3600  0.6477
 2611TIP3   OH229247   3.098   6.540  12.232 -0.0685  0.0376 -0.1016
 2611TIP3    H129248   3.177   6.564  12.183 -0.6044  1.2381 -0.4057
 2611TIP3    H229249   3.121   6.554  12.324  0.6564 -1.3685 -0.0641
 2612TIP3   OH229250   4.302   5.089   1.182 -0.3462  0.7036 -0.3681
 2612TIP3    H129251   4.288   5.139   1.262  0.7720  1.6139 -0.7259
 2612TIP3    H229252   4.241   5.015   1.188 -1.2495  1.5239  0.6668
 2613TIP3   OH229253   5.173   2.109   3.865 -0.2148 -0.2365  0.0374
 2613TIP3    H129254   5.094   2.092   3.814  0.8729 -1.4908 -1.2835
 2613TIP3    H229255   5.243   2.107   3.800  1.4027 -3.3254  1.7862
 2614TIP3   OH229256   4.790   1.948  15.678 -0.0602 -0.2357  0.0333
 2614TIP3    H129257   4.884   1.967  15.682 -0.1357  0.9390 -2.6522
 2614TIP3    H229258   4.750   2.031  15.654 -1.7591 -0.8738  0.5833
 2615TIP3   OH229259   2.487   6.190   2.035  0.6741  0.3956  0.0744
 2615TIP3    H129260   2.477   6.285   2.034 -1.8222  0.1959  1.5847
 2615TIP3    H229261   2.500   6.168   2.128  0.0092 -0.8305 -0.1111
 2616TIP3   OH229262   5.091   4.010  13.068  0.3829 -0.1899 -0.6123
 2616TIP3    H129263   5.184   4.012  13.093  0.3017 -1.3730 -0.1593
 2616TIP3    H229264   5.053   4.087  13.110  0.8536 -0.5289  0.4561
 2617TIP3   OH229265   4.321   1.991   5.817 -0.7296 -0.1346  0.1103
 2617TIP3    H129266   4.335   2.084   5.831 -1.2270  0.2830 -1.9598
 2617TIP3    H229267   4.386   1.966   5.751  0.1408 -1.5112  1.4529
 2618TIP3   OH229268   0.550   5.922   5.044  0.0523 -0.3798  0.1822
 2618TIP3    H129269   0.557   6.016   5.024 -2.2102 -0.6290 -2.0239
 2618TIP3    H229270   0.638   5.888   5.032  0.9712  1.4889  1.2841
 2619TIP3   OH229271   4.381   5.789   4.871 -0.3977  0.5148 -0.1932
 2619TIP3    H129272   4.323   5.775   4.946 -0.3369 -0.3870 -0.3072
 2619TIP3    H229273   4.469   5.773   4.906 -0.2316  1.6800 -0.0684
 2620TIP3   OH229274   2.033   1.194   2.060  0.1157  0.5243 -0.2002
 2620TIP3    H129275   1.941   1.218   2.053  0.4080  1.4695 -0.8613
 2620TIP3    H229276   2.080   1.277   2.055  0.9620  0.1342  1.0943
 2621TIP3   OH229277   0.260   6.347  14.641  0.1388  0.0650 -0.0913
 2621TIP3    H129278   0.320   6.340  14.567  1.3279 -2.8178  1.0661
 2621TIP3    H229279   0.173   6.339  14.603  0.5984  1.5703 -1.4929
 2622TIP3   OH229280   3.375   4.467   0.090  0.3715 -0.1863  0.2210
 2622TIP3    H129281   3.331   4.424   0.017  1.2071 -2.9315  1.2663
 2622TIP3    H229282   3.318   4.450   0.165 -0.3664  2.4143  0.2724
 2623TIP3   OH229283   0.291   0.757  16.175  0.3619 -0.1835  0.5407
 2623TIP3    H129284   0.329   0.683  16.128 -0.4169 -1.2143  1.5165
 2623TIP3    H229285   0.208   0.725  16.209  0.8387  0.5773  2.4954
 2624TIP3   OH229286   1.947   0.941   1.844  0.3525  0.1326  0.2901
 2624TIP3    H129287   1.940   0.870   1.908 -0.0101 -0.4436 -0.3802
 2624TIP3    H229288   1.883   1.005   1.873  1.3506  0.6260  1.4457
 2625TIP3   OH229289   4.747   3.371  15.522  0.3705 -0.5516 -0.1060
 2625TIP3    H129290   4.770   3.384  15.614  0.8996  2.9227 -0.6470
 2625TIP3    H229291   4.830   3.357  15.478  0.0452 -3.1201  0.0183
 2626TIP3   OH229292   4.421   0.527  13.025 -0.2138 -0.1803 -0.9731
 2626TIP3    H129293   4.353   0.572  13.076  0.1232 -1.6979  0.9145
 2626TIP3    H229294   4.488   0.593  13.010 -1.7998  1.1666 -2.2998
 2627TIP3   OH229295   0.262   1.973  15.833 -0.6699 -0.3949  0.3491
 2627TIP3    H129296   0.246   2.028  15.909  1.7489  0.6102  0.1900
 2627TIP3    H229297   0.209   2.012  15.763  0.1320  1.0635  0.5356
 2628TIP3   OH229298   2.305   1.695   5.495  0.0463 -0.0843 -0.2519
 2628TIP3    H129299   2.278   1.720   5.407 -0.1547 -1.3543 -0.5710
 2628TIP3    H229300   2.349   1.610   5.483  3.1641  1.3669  0.4163
 2629TIP3   OH229301   2.348   6.195  11.173 -0.0920 -0.2885 -0.2417
 2629TIP3    H129302   2.283   6.249  11.129  0.8277  2.4505  1.6738
 2629TIP3    H229303   2.297   6.139  11.231 -0.9427 -0.5630 -1.2280
 2630TIP3   OH229304   3.766   5.816   2.855 -0.4597  0.3323 -0.6177
 2630TIP3    H129305   3.850   5.820   2.809  0.4996 -2.0757  0.8044
 2630TIP3    H229306   3.701   5.833   2.787  1.0522 -0.4254 -2.3115
 2631TIP3   OH229307   6.410   1.331   5.599  0.4014 -0.0185 -0.1046
 2631TIP3    H129308   6.452   1.330   5.513  0.5956 -0.4062 -0.0037
 2631TIP3    H229309   6.452   1.404   5.645  0.2705  0.2141 -0.3497
 2632TIP3   OH229310   1.756   2.595  12.027  0.1523 -0.4682  0.5612
 2632TIP3    H129311   1.814   2.519  12.033  2.3863  0.8359 -2.6441
 2632TIP3    H229312   1.773   2.645  12.106  2.5703 -0.7335  0.2502
 2633TIP3   OH229313   2.687   6.681   1.772 -0.3468 -0.0078  0.2033
 2633TIP3    H129314   2.634   6.708   1.698 -1.1211 -1.9610 -0.0048
 2633TIP3    H229315   2.638   6.608   1.811  1.4322 -0.8683  0.9075
 2634TIP3   OH229316   3.601   2.821  15.727  0.1831 -0.7439  0.4666
 2634TIP3    H129317   3.652   2.751  15.767 -0.3519 -2.2576 -1.3923
 2634TIP3    H229318   3.546   2.856  15.797  1.2770 -1.4204  1.6650
 2635TIP3   OH229319   3.052   3.359   2.078  0.2508 -0.0930  0.0341
 2635TIP3    H129320   3.104   3.282   2.101  2.1766  1.3648  0.6626
 2635TIP3    H229321   3.029   3.346   1.986  0.0938 -1.6650  0.2854
 2636TIP3   OH229322   5.987   6.113   4.757 -0.0976 -0.0387 -0.4026
 2636TIP3    H129323   5.955   6.178   4.695 -0.6771 -0.2910 -0.3639
 2636TIP3    H229324   5.937   6.129   4.837 -0.8796 -1.1266 -0.6765
 2637TIP3   OH229325   3.281   1.707   3.009 -0.0859  0.0776 -0.3643
 2637TIP3    H129326   3.196   1.705   3.053  0.0422 -0.7717 -0.1349
 2637TIP3    H229327   3.326   1.628   3.040 -0.0738 -0.6599 -2.1614
 2638TIP3   OH229328   0.829   3.787  16.277 -0.4051  0.0394  0.3638
 2638TIP3    H129329   0.794   3.875  16.264  0.2721  0.1248 -0.9031
 2638TIP3    H229330   0.852   3.785  16.370 -1.0327  0.9780  0.5522
 2639TIP3   OH229331   2.564   0.175  15.987  0.1342 -0.1949 -0.0523
 2639TIP3    H129332   2.529   0.203  15.903  2.2437 -0.0419 -0.9083
 2639TIP3    H229333   2.659   0.172  15.974  0.4526 -0.6971  2.1576
 2640TIP3   OH229334   2.477   5.194   2.246 -0.0936  0.3642  0.2684
 2640TIP3    H129335   2.523   5.121   2.205  2.3084  2.6049 -1.1463
 2640TIP3    H229336   2.528   5.213   2.325 -0.3114  0.9678  0.2661
 2641TIP3   OH229337   2.679   0.243   1.667  0.1912 -0.2025  0.3579
 2641TIP3    H129338   2.735   0.240   1.744  0.6416 -0.3353  0.0226
 2641TIP3    H229339   2.737   0.225   1.593  0.2467  2.3087 -0.2661
 2642TIP3   OH229340   1.502   3.452  17.042  0.1221 -0.6961 -0.4412
 2642TIP3    H129341   1.451   3.386  17.089  2.4282 -0.3997  2.6313
 2642TIP3    H229342   1.589   3.449  17.082  1.0700  2.3203 -2.0870
 2643TIP3   OH229343   3.464   5.469   0.237  0.2547  0.3521 -0.0478
 2643TIP3    H129344   3.516   5.492   0.314 -1.5064  2.1190  0.6362
 2643TIP3    H229345   3.418   5.389   0.262 -0.6290  1.1482  0.8917
 2644TIP3   OH229346   6.462   2.422   2.524  0.2717 -0.1187  0.8282
 2644TIP3    H129347   6.471   2.517   2.518  0.2523 -0.1410  0.3885
 2644TIP3    H229348   6.395   2.408   2.591 -0.5177  0.2143  0.1184
 2645TIP3   OH229349   1.965   0.652   0.040  0.5716  0.6520 -0.6707
 2645TIP3    H129350   1.903   0.583   0.066 -0.8635  1.3950 -2.0316
 2645TIP3    H229351   1.958   0.718   0.109 -1.6144  1.6124 -1.7557
 2646TIP3   OH229352   2.678   0.484  12.171  0.5977 -0.0246 -0.2993
 2646TIP3    H129353   2.713   0.530  12.247 -0.3822 -0.4781  0.4201
 2646TIP3    H229354   2.645   0.554  12.114  3.4659  0.4941 -1.4259
 2647TIP3   OH229355   5.123   4.878   2.164  0.0942 -0.1596  0.1267
 2647TIP3    H129356   5.157   4.967   2.177 -1.8868  0.9560 -1.9495
 2647TIP3    H229357   5.112   4.870   2.069 -2.6794 -1.4781  0.5032
 2648TIP3   OH229358   1.552   6.154  13.881  0.4199  0.4098  0.0679
 2648TIP3    H129359   1.472   6.185  13.838 -0.9874 -0.5149  1.9875
 2648TIP3    H229360   1.548   6.192  13.969  0.9465 -1.4767  0.9209
 2649TIP3   OH229361   1.520   1.965   4.454  0.4370 -0.2132  0.3712
 2649TIP3    H129362   1.492   1.928   4.538  1.8391  1.8622  1.8228
 2649TIP3    H229363   1.602   1.920   4.434  1.2454  0.8069  1.2710
 2650TIP3   OH229364   6.686   6.233  11.223 -0.2313  0.4797  0.1701
 2650TIP3    H129365   6.713   6.325  11.221 -0.3802  0.5542  1.2962
 2650TIP3    H229366   6.768   6.185  11.232  0.1971  0.2805 -3.9014
 2651TIP3   OH229367   0.340   4.252  12.614  0.0207  0.2532 -0.2857
 2651TIP3    H129368   0.270   4.287  12.558 -0.0057  1.2618  0.3866
 2651TIP3    H229369   0.364   4.169  12.571 -2.6960 -0.9269  0.3418
 2652TIP3   OH229370   3.544   2.153   2.960  0.0824 -0.3620 -0.6696
 2652TIP3    H129371   3.480   2.087   2.984 -1.6603  1.9451  1.2145
 2652TIP3    H229372   3.495   2.235   2.958  2.5780  1.1824 -1.0631
 2653TIP3   OH229373   1.441   4.497  16.249 -0.1363 -0.2585  0.1592
 2653TIP3    H129374   1.526   4.490  16.291 -0.8443  0.0126  1.6757
 2653TIP3    H229375   1.408   4.583  16.274 -2.0510 -1.4516  1.9382
 2654TIP3   OH229376   5.937   0.634   0.366  0.9321  0.3761 -0.2748
 2654TIP3    H129377   5.914   0.542   0.378  0.4459  0.8810  3.0733
 2654TIP3    H229378   5.865   0.671   0.315  0.5794 -0.8427 -0.6670
 2655TIP3   OH229379   3.946   1.181  16.877  0.3992 -0.6227 -0.7000
 2655TIP3    H129380   3.980   1.150  16.960  1.1537 -0.6012 -1.0011
 2655TIP3    H229381   3.987   1.126  16.811  1.6083  0.8708 -1.2237
 2656TIP3   OH229382   0.240   6.307   2.176 -0.8137  0.0283 -0.3817
 2656TIP3    H129383   0.269   6.272   2.092 -0.2900 -1.9560  0.5809
 2656TIP3    H229384   0.319   6.338   2.219 -0.8790 -0.3027 -0.0194
 2657TIP3   OH229385   2.129   4.786  15.232  0.2214 -0.1343  0.2734
 2657TIP3    H129386   2.072   4.832  15.294  0.3189  1.6086 -0.8775
 2657TIP3    H229387   2.071   4.723  15.189  0.3817 -2.1326  2.8318
 2658TIP3   OH229388   6.384   1.277  13.604 -1.0046 -0.0402  0.2089
 2658TIP3    H129389   6.309   1.269  13.663 -0.4775  1.1178  1.0407
 2658TIP3    H229390   6.454   1.229  13.647 -1.2148 -1.0280 -0.5186
 2659TIP3   OH229391   2.216   2.111   1.332  0.6833 -0.2891  0.5993
 2659TIP3    H129392   2.164   2.170   1.387  0.9762  2.0704 -1.5387
 2659TIP3    H229393   2.156   2.041   1.308 -0.6151  0.7508  0.7322
 2660TIP3   OH229394   6.392   6.458   1.760 -0.1387  0.2695  0.5565
 2660TIP3    H129395   6.361   6.537   1.804  1.0117  0.8845  0.3096
 2660TIP3    H229396   6.317   6.399   1.759 -1.3507  1.7880 -0.2495
 2661TIP3   OH229397   3.220   1.084  13.396  0.1575  0.1836 -0.3583
 2661TIP3    H129398   3.233   0.989  13.395  0.2040  0.1971 -1.2400
 2661TIP3    H229399   3.127   1.095  13.414  0.3052 -0.0096  0.5518
 2662TIP3   OH229400   4.542   0.493  14.208 -0.2236 -0.4659 -0.3897
 2662TIP3    H129401   4.605   0.527  14.271  1.8067 -0.0700 -2.5824
 2662TIP3    H229402   4.586   0.418  14.167 -1.3679 -0.5053 -1.5789
 2663TIP3   OH229403   6.753   3.652  12.453 -0.3115  0.3395 -0.2920
 2663TIP3    H129404   6.691   3.652  12.526  0.8115 -2.0669  0.6909
 2663TIP3    H229405   6.703   3.686  12.379 -1.7757  1.7808  1.3080
 2664TIP3   OH229406   1.784   0.777  11.553 -0.1939  0.1297 -0.0531
 2664TIP3    H129407   1.841   0.783  11.630 -1.9358 -3.1314  1.6033
 2664TIP3    H229408   1.727   0.854  11.559  0.6692  0.6986  1.0909
 2665TIP3   OH229409   1.229   5.667  12.225 -0.3613  0.0679 -0.2365
 2665TIP3    H129410   1.315   5.670  12.182 -0.0720 -0.0116  0.3294
 2665TIP3    H229411   1.173   5.619  12.164  0.6951 -2.2804  0.5809
 2666TIP3   OH229412   6.039   2.530   2.918  0.9249  0.3687 -0.4360
 2666TIP3    H129413   6.094   2.451   2.918  0.2537 -0.0948  0.0124
 2666TIP3    H229414   5.961   2.505   2.966 -0.2131  0.6666 -2.0945
 2667TIP3   OH229415   3.294   3.115   0.528  0.1389 -0.6796  0.0238
 2667TIP3    H129416   3.350   3.162   0.589 -0.9768  0.0261  0.5205
 2667TIP3    H229417   3.263   3.181   0.467  0.9121 -1.3110 -1.0743
 2668TIP3   OH229418   2.789   5.094   0.477  0.1341 -0.3726  0.0802
 2668TIP3    H129419   2.752   5.064   0.560 -0.9799 -2.4389 -1.1190
 2668TIP3    H229420   2.884   5.098   0.492 -0.1631  0.5015  1.8009
 2669TIP3   OH229421   0.922   1.800  16.423  0.2206 -0.6313  0.5562
 2669TIP3    H129422   0.932   1.858  16.347  0.1637 -1.7655 -0.3352
 2669TIP3    H229423   0.838   1.826  16.461  0.0850 -0.2739  0.0373
 2670TIP3   OH229424   1.109   4.307   1.722 -0.0315  0.2288  0.2447
 2670TIP3    H129425   1.116   4.324   1.629 -0.4927 -1.6137 -0.1441
 2670TIP3    H229426   1.193   4.268   1.746 -0.1342  0.1462  0.4800
 2671TIP3   OH229427   0.812   0.378   4.184  0.1664 -0.3716  0.0654
 2671TIP3    H129428   0.759   0.448   4.221  0.3685 -0.6118  0.8229
 2671TIP3    H229429   0.818   0.399   4.091 -2.5465 -1.1639 -0.3455
 2672TIP3   OH229430   4.439   3.614  13.348 -0.0427 -0.4717 -0.2851
 2672TIP3    H129431   4.524   3.574  13.330  0.3383  0.5204 -0.7206
 2672TIP3    H229432   4.426   3.676  13.276 -0.9228 -0.2788  0.0354
 2673TIP3   OH229433   2.121   5.039   4.894  0.1790 -0.1352 -0.3976
 2673TIP3    H129434   2.198   5.074   4.849  0.8562 -1.5109 -0.3456
 2673TIP3    H229435   2.057   5.110   4.890  0.5321  0.0984 -2.7337
 2674TIP3   OH229436   0.478   3.122   5.302  0.1066  0.0161  0.2868
 2674TIP3    H129437   0.493   3.216   5.312 -1.1920  0.1397  1.1992
 2674TIP3    H229438   0.565   3.083   5.306  0.6228  1.1457  0.2614
 2675TIP3   OH229439   2.558   5.446  11.854  0.1851  0.1919  0.0055
 2675TIP3    H129440   2.537   5.419  11.765 -1.3807  1.4294 -0.0187
 2675TIP3    H229441   2.529   5.374  11.909 -0.2180  0.0683 -0.3719
 2676TIP3   OH229442   5.452   3.281   5.551 -0.1156  0.3121 -0.1600
 2676TIP3    H129443   5.453   3.376   5.560 -1.1141  0.4306 -1.1366
 2676TIP3    H229444   5.455   3.266   5.456  1.8394 -0.6709  0.0356
 2677TIP3   OH229445   1.953   0.410  12.595 -0.6476  0.1835  0.6878
 2677TIP3    H129446   2.017   0.357  12.643 -0.5883  0.1757  0.6015
 2677TIP3    H229447   1.953   0.494  12.641 -0.1855  0.3612  0.3728
 2678TIP3   OH229448   0.249   4.721  15.464  0.2825  0.1508 -0.0556
 2678TIP3    H129449   0.259   4.650  15.528  0.5482 -0.8576 -1.1877
 2678TIP3    H229450   0.334   4.724  15.419  0.3667  1.3898  0.1776
 2679TIP3   OH229451   4.553   0.203  16.947  0.8194 -0.0665 -0.5007
 2679TIP3    H129452   4.629   0.260  16.957  1.2924 -0.3378 -2.3419
 2679TIP3    H229453   4.533   0.174  17.036  3.2834 -0.5172 -0.0640
 2680TIP3   OH229454   2.305   0.990  10.673  0.7841 -0.1137  0.1474
 2680TIP3    H129455   2.337   0.938  10.599  2.4799  1.3837 -0.2124
 2680TIP3    H229456   2.222   1.027  10.643  0.3393 -1.3266 -0.1559
 2681TIP3   OH229457   1.000   1.545   2.187 -0.3076 -0.5029  0.0699
 2681TIP3    H129458   0.934   1.614   2.185 -1.3271 -1.4280  0.7763
 2681TIP3    H229459   1.004   1.512   2.097 -0.1232  0.1865 -0.1743
 2682TIP3   OH229460   3.229   6.668   3.465 -0.2910 -0.1723  0.5577
 2682TIP3    H129461   3.166   6.740   3.462 -1.2876 -0.9946  1.3249
 2682TIP3    H229462   3.292   6.692   3.532  2.0182  2.0783 -2.2628
 2683TIP3   OH229463   5.092   4.163  11.292  0.5629  0.0790  0.4046
 2683TIP3    H129464   5.084   4.117  11.209  0.6544  0.9979 -0.1198
 2683TIP3    H229465   5.020   4.129  11.346 -0.5477  0.7382 -0.6455
 2684TIP3   OH229466   3.365   5.935  16.791 -0.2952  0.3942 -0.8115
 2684TIP3    H129467   3.425   5.860  16.785  1.6998  1.8781  0.0731
 2684TIP3    H229468   3.320   5.923  16.875  1.4151  1.1704  0.2367
 2685TIP3   OH229469   6.775   4.577  14.537 -0.4286 -0.0703  0.4207
 2685TIP3    H129470   6.848   4.558  14.596 -0.2965  2.1636  1.0135
 2685TIP3    H229471   6.703   4.603  14.595 -0.1362  2.6596 -0.3798
 2686TIP3   OH229472   1.374   6.662  14.984 -0.4107  0.7059  0.0701
 2686TIP3    H129473   1.368   6.672  14.888 -0.9704 -1.5368 -0.1632
 2686TIP3    H229474   1.463   6.630  14.999 -0.6431  0.1049  0.1880
 2687TIP3   OH229475   0.504   0.605  10.761  0.6661 -0.1611  0.1392
 2687TIP3    H129476   0.599   0.595  10.761  0.7613  0.2719  2.8193
 2687TIP3    H229477   0.485   0.661  10.686  2.7328  1.3495  0.7058
 2688TIP3   OH229478   5.978   6.681   3.309 -0.1834 -0.0670 -0.1665
 2688TIP3    H129479   5.884   6.696   3.318 -0.5713 -2.6845  0.5033
 2688TIP3    H229480   6.016   6.711   3.391 -0.4431  0.8458 -0.3765
 2689TIP3   OH229481   2.327   2.164  13.233 -0.0452  0.1378 -0.2289
 2689TIP3    H129482   2.264   2.110  13.281  1.7465 -0.5802  1.3808
 2689TIP3    H229483   2.297   2.161  13.142 -1.3456 -1.5968  0.2363
 2690TIP3   OH229484   1.754   6.399   0.776 -0.3338 -0.1468  0.0497
 2690TIP3    H129485   1.747   6.363   0.864 -1.8118 -0.6984 -0.2611
 2690TIP3    H229486   1.669   6.441   0.761  0.3869  1.0775 -0.6194
 2691TIP3   OH229487   1.538   3.454  13.743 -0.6875  0.2293 -0.5392
 2691TIP3    H129488   1.538   3.528  13.683  0.7570 -1.1653 -2.3501
 2691TIP3    H229489   1.448   3.422  13.743 -1.2634  1.8253  0.0813
 2692TIP3   OH229490   5.258   3.842  17.144  0.2799  0.2203  0.3025
 2692TIP3    H129491   5.352   3.824  17.149  0.1537 -0.0742  2.1808
 2692TIP3    H229492   5.244   3.874  17.055  2.1833  0.4242  0.0544
 2693TIP3   OH229493   0.848   4.086  14.698 -0.0768 -0.1258  0.8007
 2693TIP3    H129494   0.908   4.062  14.769 -0.7181 -1.8307  0.8044
 2693TIP3    H229495   0.814   4.002  14.666 -1.0250  0.7120 -0.4506
 2694TIP3   OH229496   6.364   2.082   1.507 -0.3579  0.2097  0.6990
 2694TIP3    H129497   6.400   2.138   1.576 -0.0586  2.8302 -1.4820
 2694TIP3    H229498   6.441   2.047   1.462 -0.5459 -2.0972  2.1117
 2695TIP3   OH229499   4.249   2.062  12.149  0.0059 -0.0708 -0.0243
 2695TIP3    H129500   4.268   2.150  12.181 -1.5664  1.5134 -3.2791
 2695TIP3    H229501   4.335   2.026  12.126  0.3062  2.8423 -4.0231
 2696TIP3   OH229502   4.302   1.562  14.303 -0.6551  0.3289  0.1494
 2696TIP3    H129503   4.223   1.608  14.332 -1.1987  0.4854 -1.5458
 2696TIP3    H229504   4.342   1.622  14.240  0.0498 -0.3969 -0.0898
 2697TIP3   OH229505   6.331   3.439  16.439 -0.2966  1.1485 -0.0127
 2697TIP3    H129506   6.422   3.442  16.467 -0.3868 -1.2998  0.6840
 2697TIP3    H229507   6.281   3.474  16.513 -0.0395  0.9708  0.2460
 2698TIP3   OH229508   6.094   4.981   0.033  0.2980  0.3542  0.6471
 2698TIP3    H129509   6.176   5.028   0.014  0.9462 -0.5391  1.1574
 2698TIP3    H229510   6.119   4.917   0.099 -0.6928 -0.3509  0.3429
 2699TIP3   OH229511   0.073   4.607  12.860  0.0543 -0.4433  0.2135
 2699TIP3    H129512  -0.013   4.644  12.879  1.0309  0.5294  2.9761
 2699TIP3    H229513   0.109   4.583  12.946  2.7762 -0.2542 -0.8171
 2700TIP3   OH229514   2.604   4.992  12.225 -0.0759  0.7239  0.5672
 2700TIP3    H129515   2.535   4.937  12.186 -0.4945  2.0236 -0.5483
 2700TIP3    H229516   2.573   5.008  12.314  0.1120 -0.9551  0.9468
 2701TIP3   OH229517   6.028   5.103   5.497  0.4034 -0.0426 -0.2704
 2701TIP3    H129518   5.990   5.168   5.556 -1.6371  0.0485 -1.6431
 2701TIP3    H229519   6.048   5.151   5.418 -0.0749 -0.8389 -0.8902
 2702TIP3   OH229520   0.263   4.328   0.770  0.0753  0.4587  0.4002
 2702TIP3    H129521   0.337   4.286   0.727  0.2669  2.1605 -0.9722
 2702TIP3    H229522   0.186   4.281   0.737  0.4215 -0.3220  0.6823
 2703TIP3   OH229523   6.037   6.475  15.491 -0.7166 -0.8414  0.1329
 2703TIP3    H129524   5.979   6.528  15.436 -0.2107  1.3505  1.6453
 2703TIP3    H229525   5.979   6.430  15.552 -0.9756  0.0549  0.5586
 2704TIP3   OH229526   2.612   1.875  15.508  0.3547 -0.1540  0.2224
 2704TIP3    H129527   2.560   1.943  15.552  0.2363 -0.3879  0.4429
 2704TIP3    H229528   2.579   1.793  15.543  1.3889 -0.2707  0.9357
 2705TIP3   OH229529   5.707   3.718  14.348 -0.3771 -0.0172 -0.1527
 2705TIP3    H129530   5.728   3.641  14.295  2.8817  1.3119 -0.9120
 2705TIP3    H229531   5.783   3.730  14.404 -0.8530  2.5991 -0.0040
 2706TIP3   OH229532   5.942   6.508  16.504  0.5278 -0.3194  0.1335
 2706TIP3    H129533   5.894   6.425  16.511 -0.4926  0.2397 -0.0320
 2706TIP3    H229534   5.918   6.541  16.418  3.8110 -1.5789 -1.3358
 2707TIP3   OH229535   5.594   3.133  12.683  0.2675 -0.5362 -0.1167
 2707TIP3    H129536   5.572   3.204  12.743 -2.5001 -2.0942  0.8175
 2707TIP3    H229537   5.674   3.094  12.719  1.7480  1.9513 -0.5789
 2708TIP3   OH229538   2.770   2.828   0.516 -0.1232 -0.0944 -0.1036
 2708TIP3    H129539   2.817   2.793   0.592  2.3047  0.8954 -1.1152
 2708TIP3    H229540   2.829   2.815   0.443 -1.4309  1.1990 -1.4208
 2709TIP3   OH229541   4.199   1.434   3.736 -0.4244 -0.0085 -0.7089
 2709TIP3    H129542   4.136   1.404   3.672 -0.2235 -1.8077 -0.0851
 2709TIP3    H229543   4.172   1.392   3.818 -0.4459  1.9344  0.3140
 2710TIP3   OH229544   6.135   2.105   4.730  0.2587  0.3506 -0.3298
 2710TIP3    H129545   6.058   2.138   4.684  0.1009  1.0516  0.4180
 2710TIP3    H229546   6.099   2.059   4.806  0.5907  2.1378  0.9697
 2711TIP3   OH229547   5.270   4.302  13.791  0.2617  0.3751  0.1920
 2711TIP3    H129548   5.233   4.368  13.732 -0.4037  0.2060  0.4163
 2711TIP3    H229549   5.198   4.240  13.806  0.0677  1.0301  2.0945
 2712TIP3   OH229550   5.197   0.899   4.534  0.0972 -0.1093  0.5206
 2712TIP3    H129551   5.231   0.847   4.608  1.1782  0.5796  0.5249
 2712TIP3    H229552   5.239   0.985   4.545 -0.3450  0.2310 -0.4555
 2713TIP3   OH229553   5.935   3.829  11.073  0.0128  0.5247 -0.2090
 2713TIP3    H129554   5.893   3.914  11.082 -1.2764 -0.1945  0.6982
 2713TIP3    H229555   5.945   3.818  10.979 -2.7791  0.2843 -0.5318
 2714TIP3   OH229556   2.642   3.853  13.292  0.6564  0.3018  0.1908
 2714TIP3    H129557   2.570   3.907  13.324 -1.2644 -2.0286 -0.0312
 2714TIP3    H229558   2.677   3.810  13.370 -1.0790 -1.9110 -0.2122
 2715TIP3   OH229559   4.487   1.873  10.477 -0.1122  0.3418 -0.3485
 2715TIP3    H129560   4.404   1.826  10.476  0.4490 -0.7184  1.1546
 2715TIP3    H229561   4.544   1.823  10.419 -0.4912  1.0598 -1.3667
 2716TIP3   OH229562   0.636   3.740  15.855 -0.5543 -0.6919 -0.5058
 2716TIP3    H129563   0.609   3.832  15.854 -0.1272 -0.5700 -1.1410
 2716TIP3    H229564   0.616   3.710  15.944 -2.0436 -0.3925 -0.7371
 2717TIP3   OH229565   0.251   6.687   4.800  0.0881 -0.3499 -0.4895
 2717TIP3    H129566   0.283   6.687   4.710  0.8665  1.0844 -0.2367
 2717TIP3    H229567   0.326   6.657   4.852 -0.0130 -0.1260 -0.2121
 2718TIP3   OH229568   5.563   3.951   0.217 -0.0534 -0.2921  0.9533
 2718TIP3    H129569   5.533   3.885   0.281 -0.9583 -0.2129  0.6166
 2718TIP3    H229570   5.527   4.033   0.250 -1.4194 -0.3965 -0.2089
 2719TIP3   OH229571   0.927   0.671   6.287 -0.1866  0.1304 -0.0666
 2719TIP3    H129572   0.998   0.687   6.225 -0.8675  0.9696 -0.6266
 2719TIP3    H229573   0.881   0.754   6.294  0.8008  0.4961  2.7289
 2720TIP3   OH229574   1.086   3.866   3.818 -0.0424 -0.0391 -0.2296
 2720TIP3    H129575   1.011   3.818   3.783  0.1667 -0.6134  0.0927
 2720TIP3    H229576   1.093   3.944   3.762 -0.0615 -0.6522 -1.1015
 2721TIP3   OH229577   6.742   5.502   3.965  0.4703 -0.8731 -0.5939
 2721TIP3    H129578   6.801   5.426   3.965 -0.1050 -1.3730  1.9075
 2721TIP3    H229579   6.654   5.465   3.966  0.1622 -0.1569 -0.7506
 2722TIP3   OH229580   4.222   1.533  11.785 -0.2028  0.2291  0.6139
 2722TIP3    H129581   4.285   1.569  11.723 -0.5125  2.2801  1.4511
 2722TIP3    H229582   4.175   1.466  11.736  1.0460  0.2993 -0.6954
 2723TIP3   OH229583   6.744   0.447  12.942  0.3558 -0.5246  0.0698
 2723TIP3    H129584   6.825   0.419  12.985  1.6811  1.3166 -1.1448
 2723TIP3    H229585   6.764   0.535  12.908 -1.4337 -0.9486 -2.1929
 2724TIP3   OH229586   0.468   0.276   2.675  0.0361  0.1564  0.0291
 2724TIP3    H129587   0.534   0.344   2.656 -0.0671  0.0796 -0.6204
 2724TIP3    H229588   0.518   0.206   2.716  0.6631 -0.6044 -1.9854
 2725TIP3   OH229589   2.266   2.093   4.108 -0.2935  0.1967 -0.2972
 2725TIP3    H129590   2.263   2.001   4.083  2.2616 -0.2135  0.6922
 2725TIP3    H229591   2.342   2.128   4.060 -0.8718  1.6200 -0.1948
 2726TIP3   OH229592   0.566   4.698  14.112  0.2620  0.1234 -0.4751
 2726TIP3    H129593   0.483   4.694  14.160  0.9088  0.1013  0.6533
 2726TIP3    H229594   0.569   4.787  14.077 -0.4835 -0.0444 -0.9814
 2727TIP3   OH229595   2.969   1.688   3.754 -0.2435 -0.0045 -0.3889
 2727TIP3    H129596   3.002   1.734   3.831 -1.4299  0.1699  0.0113
 2727TIP3    H229597   2.924   1.612   3.789  0.7315 -0.8774 -1.0014
 2728TIP3   OH229598   5.245   0.542   2.295 -0.3732  0.3475 -0.3914
 2728TIP3    H129599   5.190   0.552   2.218  0.9774 -0.3879 -1.4924
 2728TIP3    H229600   5.333   0.529   2.260  0.1795 -0.5684  1.2556
 2729TIP3   OH229601   0.020   3.491  10.754 -0.4992  0.0546 -0.6829
 2729TIP3    H129602   0.085   3.538  10.702 -1.0030  1.5378  0.0075
 2729TIP3    H229603  -0.056   3.550  10.755 -1.0114 -0.6170  0.4974
 2730TIP3   OH229604   3.765   0.395   0.750  0.2766 -0.1713 -0.0759
 2730TIP3    H129605   3.676   0.360   0.748  0.3812 -0.3943 -0.7300
 2730TIP3    H229606   3.756   0.485   0.719  0.4640 -0.5975 -1.4056
 2731TIP3   OH229607   0.528   2.523   3.364  0.4069 -0.2474 -0.0505
 2731TIP3    H129608   0.584   2.526   3.442 -0.2671 -1.9807  0.5204
 2731TIP3    H229609   0.442   2.552   3.394 -0.1430 -2.0120  0.1355
 2732TIP3   OH229610   3.877   6.636  17.200 -0.2991  0.3622 -0.4631
 2732TIP3    H129611   3.921   6.709  17.156  1.5144 -1.2247 -1.3342
 2732TIP3    H229612   3.792   6.631  17.157 -0.0034  1.2329 -1.1907
 2733TIP3   OH229613   3.688   5.048   0.494 -0.2164 -0.8330  0.0963
 2733TIP3    H129614   3.684   4.972   0.436  1.0067 -0.3768 -0.6217
 2733TIP3    H229615   3.603   5.091   0.484 -0.6142 -1.6564 -0.1072
 2734TIP3   OH229616   1.257   4.187  14.748 -0.1824 -0.0119  0.4783
 2734TIP3    H129617   1.242   4.277  14.720 -1.1959 -0.3460 -0.0839
 2734TIP3    H229618   1.258   4.192  14.844 -0.5544  0.5599  0.4597
 2735TIP3   OH229619   5.935   4.948   3.251 -0.9463 -0.0192  0.6357
 2735TIP3    H129620   6.020   4.905   3.240 -0.9460  0.4747 -1.6083
 2735TIP3    H229621   5.872   4.876   3.257 -0.6481 -0.3834 -0.4306
 2736TIP3   OH229622   5.788   0.658  12.243  0.0308  0.4361  0.1718
 2736TIP3    H129623   5.878   0.646  12.273 -0.0859  0.0632  0.3809
 2736TIP3    H229624   5.795   0.657  12.147  0.3855  1.4980  0.1777
 2737TIP3   OH229625   2.486   0.522   2.257 -0.2011  0.1518  0.2369
 2737TIP3    H129626   2.504   0.611   2.286 -0.9334 -0.1063  1.4926
 2737TIP3    H229627   2.550   0.506   2.187  0.4709  1.3615  0.5719
 2738TIP3   OH229628   4.936   0.261  14.161 -0.2704 -0.2640 -0.5225
 2738TIP3    H129629   4.897   0.237  14.245 -1.2323  0.8671 -0.6300
 2738TIP3    H229630   4.861   0.287  14.107  0.2743 -1.4734 -1.9034
 2739TIP3   OH229631   1.714   4.533  16.667  0.0794  0.0789  0.2895
 2739TIP3    H129632   1.632   4.576  16.644  0.4505  0.6211 -0.0378
 2739TIP3    H229633   1.726   4.551  16.760  0.2124  0.6687  0.1653
 2740TIP3   OH229634   1.569   2.700   2.474 -0.3344 -0.0526  0.1186
 2740TIP3    H129635   1.619   2.679   2.553 -0.1815  1.1718  0.3665
 2740TIP3    H229636   1.632   2.694   2.403 -0.0626  0.5414  0.3091
 2741TIP3   OH229637   0.722   1.210  14.440 -0.2562 -0.7003 -0.5223
 2741TIP3    H129638   0.760   1.128  14.411 -0.4244 -0.6357 -0.9301
 2741TIP3    H229639   0.718   1.203  14.536  1.0404 -0.5911 -0.4460
 2742TIP3   OH229640   1.304   1.505  11.399 -0.3753 -0.2475  0.3166
 2742TIP3    H129641   1.354   1.541  11.325 -1.8731  0.6458 -0.2746
 2742TIP3    H229642   1.245   1.441  11.359  0.2796 -1.3094  1.0160
 2743TIP3   OH229643   0.692   6.156   2.217 -0.0906 -0.1171 -0.1396
 2743TIP3    H129644   0.616   6.117   2.175 -0.5837  1.5454 -0.8368
 2743TIP3    H229645   0.766   6.130   2.163 -0.3697 -0.3454 -0.4092
 2744TIP3   OH229646   6.363   3.813  15.368  0.3468 -0.1047 -0.3754
 2744TIP3    H129647   6.335   3.728  15.334 -0.4743 -0.5912  1.4248
 2744TIP3    H229648   6.299   3.833  15.436  1.8523  0.8688  0.7857
 2745TIP3   OH229649   3.803   4.941   1.164 -0.4523 -0.3218  0.0985
 2745TIP3    H129650   3.758   4.860   1.141 -1.5069  0.0288  0.8703
 2745TIP3    H229651   3.759   5.009   1.113 -0.4089 -0.0644  0.3985
 2746TIP3   OH229652   2.231   5.821   6.183 -0.4038 -0.0522 -0.9558
 2746TIP3    H129653   2.264   5.760   6.249 -0.5522 -0.7059 -1.4757
 2746TIP3    H229654   2.183   5.766   6.121 -0.7920  0.6364 -1.2717
 2747TIP3   OH229655   6.271   4.146   0.044 -0.6412 -0.1168 -0.2861
 2747TIP3    H129656   6.307   4.151  -0.044  1.0805  1.7428  0.4982
 2747TIP3    H229657   6.184   4.185   0.037 -0.7242 -0.4735 -1.2615
 2748TIP3   OH229658   1.578   2.573  13.609  0.3612  0.4015 -0.5346
 2748TIP3    H129659   1.634   2.651  13.614 -0.6497  1.1681 -0.9448
 2748TIP3    H229660   1.492   2.603  13.638  0.5100 -1.1389  1.5945
 2749TIP3   OH229661   3.121   2.669  15.783  0.0705 -0.0975  0.7366
 2749TIP3    H129662   3.168   2.671  15.867  2.1395 -1.0304 -0.3587
 2749TIP3    H229663   3.170   2.607  15.730 -1.8826 -0.3509 -0.8034
 2750TIP3   OH229664   1.272   6.297   0.486 -0.3668  0.1408 -0.0941
 2750TIP3    H129665   1.206   6.306   0.417  1.3997  1.3917 -1.6705
 2750TIP3    H229666   1.299   6.386   0.506  0.9023 -0.3509  0.4580
 2751TIP3   OH229667   0.153   2.430   0.840 -0.6109  0.3335  0.7170
 2751TIP3    H129668   0.214   2.368   0.800  0.5735  0.9354  1.5586
 2751TIP3    H229669   0.116   2.382   0.915  0.3355  0.6407  1.3925
 2752TIP3   OH229670   4.989   3.312   3.742 -0.4927 -0.3252  0.0100
 2752TIP3    H129671   5.012   3.268   3.824 -1.0402 -1.8633 -0.6527
 2752TIP3    H229672   4.901   3.348   3.759  0.5480  1.8087  1.0496
 2753TIP3   OH229673   5.752   5.894   1.683 -1.0264  0.3355 -0.1456
 2753TIP3    H129674   5.792   5.836   1.747  0.3238  0.4711 -0.8534
 2753TIP3    H229675   5.666   5.856   1.665 -0.1654 -1.4301 -0.5940
 2754TIP3   OH229676   5.279   1.910   5.809 -0.2328  0.3912 -0.4710
 2754TIP3    H129677   5.223   1.977   5.848  0.3432 -0.1022  1.2308
 2754TIP3    H229678   5.364   1.952   5.799 -0.0300  0.1124  0.0518
 2755TIP3   OH229679   5.233   2.833   0.907  0.1811 -0.4858  0.2121
 2755TIP3    H129680   5.152   2.854   0.860 -1.2542 -0.2765  2.6930
 2755TIP3    H229681   5.261   2.749   0.871 -0.2569  0.2092 -1.7935
 2756TIP3   OH229682   6.653   3.906   4.521  0.1108 -0.3228 -0.1991
 2756TIP3    H129683   6.717   3.864   4.579 -0.7631 -0.5754  0.5799
 2756TIP3    H229684   6.677   3.999   4.523 -0.4614 -0.1989  1.2613
 2757TIP3   OH229685   1.715   2.203  16.912 -0.1418 -0.3089 -0.0321
 2757TIP3    H129686   1.644   2.226  16.853 -1.2150 -0.7781  1.0667
 2757TIP3    H229687   1.766   2.284  16.922 -2.3450  0.9097  1.6775
 2758TIP3   OH229688   5.932   1.575  15.823 -0.3487 -0.2571  0.1665
 2758TIP3    H129689   5.925   1.524  15.904 -1.9878 -3.5199 -1.8970
 2758TIP3    H229690   6.024   1.564  15.797 -0.2335 -0.6414  0.7017
 2759TIP3   OH229691   3.007   0.804   3.605 -0.3587  0.0878  0.5839
 2759TIP3    H129692   3.097   0.775   3.595 -0.9376 -2.1701  1.6967
 2759TIP3    H229693   3.011   0.899   3.590  1.7694 -0.3254 -1.8308
 2760TIP3   OH229694   2.585   1.819   0.639 -0.3685 -0.1651 -0.0176
 2760TIP3    H129695   2.558   1.899   0.592  0.2988 -0.4547 -0.9072
 2760TIP3    H229696   2.550   1.831   0.727 -3.3518 -0.4685 -1.0783
 2761TIP3   OH229697   2.823   6.735   4.896  0.2219 -0.2481  0.0954
 2761TIP3    H129698   2.780   6.702   4.975  1.0809 -0.3490  0.5267
 2761TIP3    H229699   2.872   6.812   4.926 -0.6117  0.5659 -0.6249
 2762TIP3   OH229700   5.830   4.636   1.078 -0.4769  0.4526 -0.6082
 2762TIP3    H129701   5.862   4.689   1.150  1.8975 -2.3265  0.4604
 2762TIP3    H229702   5.905   4.626   1.019 -1.5031  0.0722 -1.8867
 2763TIP3   OH229703   0.861   4.337  14.320  0.2630  0.4468 -0.5095
 2763TIP3    H129704   0.865   4.315  14.227 -0.1319  0.1022 -0.4455
 2763TIP3    H229705   0.840   4.430  14.322 -3.3004 -0.2897 -0.7609
 2764TIP3   OH229706   3.730   1.607  11.613  0.1061 -0.7416  0.4776
 2764TIP3    H129707   3.770   1.571  11.534 -0.6396 -2.1702  0.7539
 2764TIP3    H229708   3.685   1.534  11.653 -0.0710  0.1272  1.8965
 2765TIP3   OH229709   3.885   1.011  10.669  0.1808  0.8381  0.4958
 2765TIP3    H129710   3.967   0.971  10.640  0.5836  0.3164  2.2973
 2765TIP3    H229711   3.841   0.943  10.719  0.0121  2.0416  2.0152
 2766TIP3   OH229712   2.082   2.424   0.203 -0.3064 -0.5316  0.4798
 2766TIP3    H129713   2.069   2.408   0.110  1.6522 -0.7433  0.2253
 2766TIP3    H229714   2.166   2.471   0.209 -0.5766 -0.1954  2.1036
 2767TIP3   OH229715   0.811   1.019  11.016 -0.1375 -0.4146  0.1642
 2767TIP3    H129716   0.849   0.992  10.932  0.9188 -0.7627  0.7405
 2767TIP3    H229717   0.887   1.026  11.075 -1.0369 -1.9306  1.5487
 2768TIP3   OH229718   6.278   3.583   4.315 -0.3158  0.5171  0.7066
 2768TIP3    H129719   6.329   3.663   4.312 -2.9998  2.2491 -2.7278
 2768TIP3    H229720   6.332   3.518   4.270 -0.2378  1.8168 -1.1397
 2769TIP3   OH229721   2.901   5.030  14.350  0.6942 -0.2715  0.0221
 2769TIP3    H129722   2.842   5.077  14.291  1.1372 -0.0616 -0.2498
 2769TIP3    H229723   2.973   5.091  14.367  0.7175 -0.4392  0.5445
 2770TIP3   OH229724   4.786   1.074  15.142  0.1324 -0.3742  0.5147
 2770TIP3    H129725   4.759   1.142  15.204 -0.6049 -0.3640  0.1931
 2770TIP3    H229726   4.720   1.078  15.073  1.2635  0.0286 -0.5784
 2771TIP3   OH229727   1.952   2.320   0.416  0.2047 -0.1551 -0.0908
 2771TIP3    H129728   1.917   2.404   0.446  0.9663  0.0221  0.3037
 2771TIP3    H229729   1.992   2.340   0.331  0.5906 -0.0765  0.1117
 2772TIP3   OH229730   2.181   2.676  14.605 -0.1614  0.4065  0.2485
 2772TIP3    H129731   2.228   2.652  14.525  0.1119  1.7286  0.0058
 2772TIP3    H229732   2.219   2.760  14.630 -0.2602  0.0146  1.7595
 2773TIP3   OH229733   0.788   5.461  15.218  0.0969 -0.0868  0.1504
 2773TIP3    H129734   0.836   5.470  15.136 -0.6678 -1.7159 -0.5069
 2773TIP3    H229735   0.853   5.427  15.280 -0.0496 -1.7859 -0.5974
 2774TIP3   OH229736   1.843   3.408  11.040  0.1716  0.5030  0.4395
 2774TIP3    H129737   1.933   3.441  11.032  0.1277  0.4453 -0.2587
 2774TIP3    H229738   1.788   3.484  11.023  0.0701  0.0708 -1.1980
 2775TIP3   OH229739   3.876   6.669  16.641  0.3038 -0.0595 -0.4818
 2775TIP3    H129740   3.831   6.751  16.617 -1.1086  0.3260  3.1544
 2775TIP3    H229741   3.807   6.602  16.638  0.4605 -0.2849  0.8084
 2776TIP3   OH229742   3.425   3.779  13.182 -0.7803  0.2721 -0.1889
 2776TIP3    H129743   3.367   3.724  13.234 -0.7430 -1.1892 -1.6618
 2776TIP3    H229744   3.486   3.816  13.246 -3.4811  2.1000  1.4114
 2777TIP3   OH229745   1.838   2.285   2.750  0.0538  0.0458 -0.0151
 2777TIP3    H129746   1.821   2.309   2.659  1.3405 -0.4530 -0.3919
 2777TIP3    H229747   1.926   2.317   2.767 -0.5397  0.9974  1.3630
 2778TIP3   OH229748   0.903   3.113   1.213 -0.1539 -0.1185 -0.0773
 2778TIP3    H129749   0.960   3.102   1.136 -0.5349 -0.0284 -0.3744
 2778TIP3    H229750   0.825   3.061   1.193  0.0398 -0.6599  0.5558
 2779TIP3   OH229751   4.672   0.960  15.593 -0.1535 -0.5528  0.2464
 2779TIP3    H129752   4.645   0.937  15.504  1.9067 -2.3715  0.0392
 2779TIP3    H229753   4.710   1.048  15.585  0.3062 -0.8388 -0.7249
 2780TIP3   OH229754   0.288   3.399  10.526 -0.3626  0.4508  0.6318
 2780TIP3    H129755   0.277   3.454  10.603  0.2509 -0.1272  1.1259
 2780TIP3    H229756   0.291   3.461  10.453  1.0523  1.1170  1.2513
 2781TIP3   OH229757   3.266   4.405   6.559 -0.0805  0.5167 -0.1057
 2781TIP3    H129758   3.228   4.348   6.626 -0.2114  0.6324 -0.0807
 2781TIP3    H229759   3.207   4.397   6.484  0.6650 -0.4613 -0.5950
 2782TIP3   OH229760   5.811   2.090  12.380 -0.1707 -0.3211 -0.0527
 2782TIP3    H129761   5.743   2.023  12.388  0.8976 -1.3363  0.6958
 2782TIP3    H229762   5.869   2.074  12.454  0.2773  1.2535 -0.0391
 2783TIP3   OH229763   1.880   3.846   5.126 -0.2060  0.5645  0.1687
 2783TIP3    H129764   1.806   3.793   5.156  0.4749 -1.7465 -2.0549
 2783TIP3    H229765   1.957   3.798   5.156  0.4323 -0.0306 -2.3261
 2784TIP3   OH229766   3.871   6.351   6.227  0.1583  0.4271  0.5097
 2784TIP3    H129767   3.806   6.301   6.276  1.4259 -1.6714  0.1161
 2784TIP3    H229768   3.838   6.352   6.137  1.2100 -1.7174  0.0490
 2785TIP3   OH229769   3.828   2.960  13.912 -0.2256  0.3995 -0.1476
 2785TIP3    H129770   3.863   2.872  13.899 -0.8532  0.0099  0.7812
 2785TIP3    H229771   3.890   3.002  13.972  0.0107  0.5566 -0.4998
 2786TIP3   OH229772   6.762   3.163  12.276 -0.1546  0.7842 -0.1598
 2786TIP3    H129773   6.833   3.222  12.302 -0.7215  1.2118  0.4388
 2786TIP3    H229774   6.694   3.221  12.242 -0.1636  0.3661 -0.8461
 2787TIP3   OH229775   6.611   0.975   5.533  0.6045 -0.2173  0.5279
 2787TIP3    H129776   6.573   0.890   5.554  0.4381 -0.2373  0.1444
 2787TIP3    H229777   6.605   1.025   5.615 -1.8212  0.3706  0.0175
 2788TIP3   OH229778   0.108   0.155  11.842  0.5153 -0.5347 -0.8863
 2788TIP3    H129779   0.109   0.128  11.934  1.1202  0.4498 -0.5948
 2788TIP3    H229780   0.137   0.246  11.844 -4.3345  1.1899 -1.4889
 2789TIP3   OH229781   2.677   5.935   5.944 -0.4262 -0.1529  0.3992
 2789TIP3    H129782   2.702   5.922   6.036  0.0763  0.1357  0.3062
 2789TIP3    H229783   2.761   5.939   5.897 -0.6919 -0.8281 -0.1485
 2790TIP3   OH229784   3.212   3.066  14.289 -0.5914 -0.2197 -0.4091
 2790TIP3    H129785   3.278   3.085  14.355 -1.4647  1.1608  0.0962
 2790TIP3    H229786   3.255   3.085  14.206  0.1788 -0.9764 -0.1897
 2791TIP3   OH229787   4.589   4.731  12.760 -0.0083 -0.1879  0.2904
 2791TIP3    H129788   4.625   4.814  12.790  0.4263 -0.1973 -0.2037
 2791TIP3    H229789   4.663   4.683  12.723 -0.5906 -0.0155 -1.1391
 2792TIP3   OH229790   1.145   5.651  11.429 -0.0526 -0.1430 -0.2253
 2792TIP3    H129791   1.113   5.584  11.368 -1.9955 -0.3513  0.9729
 2792TIP3    H229792   1.076   5.656  11.496  1.4904  0.9265  1.2959
 2793TIP3   OH229793   2.679   4.261  11.541  0.1973  0.3020 -0.1447
 2793TIP3    H129794   2.691   4.179  11.589  1.1578  0.6952  0.2954
 2793TIP3    H229795   2.635   4.235  11.460  1.4169 -0.7928 -0.4843
 2794TIP3   OH229796   2.540   6.242   6.210  0.8340  0.4389  0.4625
 2794TIP3    H129797   2.473   6.188   6.169  2.9421 -1.0926 -1.0779
 2794TIP3    H229798   2.504   6.331   6.208 -1.2887 -0.4168  0.0307
 2795TIP3   OH229799   5.056   1.755   3.912 -0.6682 -0.3039 -0.0217
 2795TIP3    H129800   5.022   1.747   3.822 -0.8343  1.8493 -0.1800
 2795TIP3    H229801   5.141   1.797   3.901 -1.8080  2.3663  0.9726
 2796TIP3   OH229802   3.378   4.984  16.006  0.4405  0.3332  0.0849
 2796TIP3    H129803   3.442   4.948  15.945 -0.7162  0.0046 -0.9603
 2796TIP3    H229804   3.323   4.909  16.030  1.3610  0.2778  2.1850
 2797TIP3   OH229805   2.961   2.165  11.517  0.0004 -0.2679 -0.1048
 2797TIP3    H129806   2.997   2.081  11.488  2.0788  0.7870 -0.6899
 2797TIP3    H229807   2.975   2.166  11.611 -3.4002 -2.1187  0.4962
 2798TIP3   OH229808   2.499   3.275  15.252 -0.3672 -0.1957  0.1499
 2798TIP3    H129809   2.547   3.272  15.170  0.8675 -0.5960  0.8841
 2798TIP3    H229810   2.483   3.369  15.267  0.4277 -0.0386  0.0457
 2799TIP3   OH229811   1.053   2.786  12.726 -0.9524  0.6870 -0.4407
 2799TIP3    H129812   1.039   2.717  12.792 -0.9929  0.2892 -0.8601
 2799TIP3    H229813   0.992   2.765  12.656 -0.5538  0.8177 -0.8307
 2800TIP3   OH229814   1.074   0.996  16.828 -0.1691 -0.2922 -0.3535
 2800TIP3    H129815   1.004   0.940  16.860 -0.7826  0.9150  0.4319
 2800TIP3    H229816   1.031   1.077  16.801  0.8915  0.3830 -0.0705
 2801TIP3   OH229817   1.251   5.166  12.809 -0.4652 -0.1940  0.3081
 2801TIP3    H129818   1.346   5.162  12.812 -0.4874 -1.5094 -0.2813
 2801TIP3    H229819   1.223   5.135  12.895 -0.3558  0.1865  0.4797
 2802TIP3   OH229820   6.696   1.695  14.302 -0.4496 -0.3455  0.0634
 2802TIP3    H129821   6.708   1.784  14.334  2.1544 -0.4718 -0.4557
 2802TIP3    H229822   6.752   1.642  14.359  1.0901 -1.1082 -2.1071
 2803TIP3   OH229823   3.778   1.865  11.250  0.2154 -0.2706 -0.1803
 2803TIP3    H129824   3.713   1.823  11.195 -0.2688  0.7273 -0.3832
 2803TIP3    H229825   3.761   1.959  11.240  0.6460 -0.0492  1.0130
 2804TIP3   OH229826   1.290   0.397   2.753 -0.1136  0.0909  0.4952
 2804TIP3    H129827   1.322   0.318   2.709  1.7536  0.5025  1.0389
 2804TIP3    H229828   1.292   0.375   2.846  1.1200  1.0057  0.6961
 2805TIP3   OH229829   5.332   2.072   3.651 -0.6414 -0.2949  0.3074
 2805TIP3    H129830   5.402   2.128   3.617 -0.2619 -0.6848  0.4423
 2805TIP3    H229831   5.355   1.984   3.621 -1.2043 -0.3910  0.1468
 2806TIP3   OH229832   5.089   5.141  13.384  0.8604  0.1212  0.0140
 2806TIP3    H129833   5.085   5.062  13.330 -0.4673 -1.0039  1.6823
 2806TIP3    H229834   5.098   5.213  13.322  2.0056 -1.3426 -1.5411
 2807TIP3   OH229835   4.083   1.494   2.269 -0.2590  0.3105  0.6928
 2807TIP3    H129836   4.161   1.499   2.214 -0.7168 -1.4300 -0.1423
 2807TIP3    H229837   4.106   1.431   2.338 -0.5139  0.6970  1.1348
 2808TIP3   OH229838   1.696   3.696   5.315  0.3837  0.4330  0.3533
 2808TIP3    H129839   1.618   3.744   5.341 -0.2334  0.0639 -0.7811
 2808TIP3    H229840   1.663   3.617   5.272  1.3623  0.6296 -0.8102
 2809TIP3   OH229841   3.751   6.149   0.030 -0.4822 -0.0704  0.4621
 2809TIP3    H129842   3.764   6.071   0.083 -1.0587  0.0568  0.7986
 2809TIP3    H229843   3.758   6.222   0.093 -0.1216  0.1394  0.1829
 2810TIP3   OH229844   2.379   5.428  16.451  0.8399  0.2218 -0.3941
 2810TIP3    H129845   2.413   5.517  16.456 -0.8910  0.9237 -0.6698
 2810TIP3    H229846   2.364   5.403  16.542 -0.4232  0.9289 -0.3952
 2811TIP3   OH229847   4.062   3.236   4.223  0.2096 -0.2058  0.6288
 2811TIP3    H129848   4.137   3.189   4.186 -0.7755 -0.5182 -1.0025
 2811TIP3    H229849   4.092   3.265   4.309  2.5371  0.5083 -0.3828
 2812TIP3   OH229850   3.551   2.234  15.455  0.2632  0.2532 -0.5928
 2812TIP3    H129851   3.551   2.256  15.362  0.5309 -0.5787 -0.7959
 2812TIP3    H229852   3.536   2.139  15.457  1.4850  0.0627  0.1573
 2813TIP3   OH229853   5.138   1.770   5.279 -0.1460  0.6155  0.6474
 2813TIP3    H129854   5.213   1.755   5.222  0.9348 -0.0022  2.1830
 2813TIP3    H229855   5.168   1.836   5.341 -0.4266 -0.5592  2.0609
 2814TIP3   OH229856   4.161   2.819  11.774  0.1821  0.2899  0.0579
 2814TIP3    H129857   4.225   2.796  11.707 -0.9459  0.5655 -1.1189
 2814TIP3    H229858   4.162   2.915  11.778  0.9747  0.2479  1.1596
 2815TIP3   OH229859   1.941   2.370   6.070 -0.3107 -0.3932  0.0274
 2815TIP3    H129860   1.916   2.278   6.064 -0.9620 -0.1706 -0.8944
 2815TIP3    H229861   1.864   2.413   6.108 -0.8568  0.0921 -1.5691
 2816TIP3   OH229862   6.112   0.150   0.919 -0.3257 -0.3177 -0.1069
 2816TIP3    H129863   6.019   0.173   0.924 -0.0326  0.6965  0.9353
 2816TIP3    H229864   6.130   0.107   1.003  0.5587  1.0943  0.4404
 2817TIP3   OH229865   3.647   3.851  12.177 -0.6106  0.3738 -0.0964
 2817TIP3    H129866   3.660   3.763  12.141  1.0988  0.3599  0.4717
 2817TIP3    H229867   3.713   3.857  12.247 -1.8431  1.4904  0.9945
 2818TIP3   OH229868   0.726   2.996   0.853  0.3176  0.0612  0.3439
 2818TIP3    H129869   0.657   3.054   0.821  1.0451  0.3043 -0.8242
 2818TIP3    H229870   0.762   2.955   0.774  1.1492 -0.4694  0.9794
 2819TIP3   OH229871   5.345   0.987  13.935 -0.1307  0.1029  0.0558
 2819TIP3    H129872   5.427   0.942  13.912 -0.7459 -0.6736 -0.6359
 2819TIP3    H229873   5.363   1.025  14.021  1.4568  1.1775 -0.7079
 2820TIP3   OH229874   1.523   6.739  13.780  0.3488  0.1535  0.4376
 2820TIP3    H129875   1.437   6.726  13.820  0.4788  0.8162  0.9341
 2820TIP3    H229876   1.580   6.765  13.852  0.4663  1.8779 -0.2546
 2821TIP3   OH229877   1.892   2.531  14.124  0.4173 -0.8143 -0.6517
 2821TIP3    H129878   1.823   2.539  14.058  0.4858 -1.7775 -0.8500
 2821TIP3    H229879   1.927   2.620  14.132  0.1579 -0.6091 -1.6367
 2822TIP3   OH229880   4.390   3.435   4.424 -0.9426  0.4923 -0.0212
 2822TIP3    H129881   4.470   3.448   4.474 -0.4868  0.3015 -0.6993
 2822TIP3    H229882   4.419   3.409   4.337 -1.7625 -0.7679  0.0680
 2823TIP3   OH229883   1.216   3.796   2.791 -0.2641 -0.3292  0.0246
 2823TIP3    H129884   1.197   3.865   2.855 -0.3976 -2.1230  1.9790
 2823TIP3    H229885   1.285   3.743   2.832  0.0155 -1.2364 -1.5505
 2824TIP3   OH229886   4.046   6.594  11.068  0.1540 -0.2396  0.2497
 2824TIP3    H129887   3.964   6.547  11.051  0.0747  0.3326 -1.0504
 2824TIP3    H229888   4.113   6.526  11.070  0.0328 -0.4400 -1.5453
 2825TIP3   OH229889   4.187   6.045   5.136 -1.1015 -0.2111 -0.0293
 2825TIP3    H129890   4.242   6.058   5.212  0.2585 -0.5728 -0.9303
 2825TIP3    H229891   4.162   5.953   5.140 -0.9964 -0.2401 -0.0347
 2826TIP3   OH229892   1.515   2.073   0.050 -0.1783 -0.2064 -0.4748
 2826TIP3    H129893   1.592   2.125   0.025 -0.6687  0.5372 -0.4660
 2826TIP3    H229894   1.493   2.024  -0.029 -0.3140  0.3633 -0.7948
 2827TIP3   OH229895   3.218   6.388   0.485 -0.1550 -0.7721  0.0452
 2827TIP3    H129896   3.275   6.320   0.446  1.0588  1.2918 -1.8876
 2827TIP3    H229897   3.262   6.470   0.464 -1.0446  0.5984  3.2982
 2828TIP3   OH229898   3.977   1.893   0.535 -0.4683 -0.4637 -0.1132
 2828TIP3    H129899   3.960   1.953   0.607  1.7619 -0.3220  0.3338
 2828TIP3    H229900   4.003   1.949   0.462 -0.4632 -0.7479 -0.3321
 2829TIP3   OH229901   5.030   4.166  13.914 -0.0641  0.0324 -0.0427
 2829TIP3    H129902   4.977   4.108  13.860  0.6060 -0.1827 -0.4735
 2829TIP3    H229903   4.967   4.226  13.954 -0.5672  0.1370 -0.9905
 2830TIP3   OH229904   1.111   3.132  15.506  0.2985 -0.3341 -0.3059
 2830TIP3    H129905   1.198   3.098  15.482  1.6388  0.8427  2.6985
 2830TIP3    H229906   1.120   3.227  15.501 -1.4129 -0.2246 -1.8029
 2831TIP3   OH229907   3.626   0.655  16.703 -0.7932  0.6664  0.2510
 2831TIP3    H129908   3.580   0.690  16.780 -0.5785  1.5801 -0.0352
 2831TIP3    H229909   3.596   0.564  16.698 -1.4441  0.8285  0.9333
 2832TIP3   OH229910   1.959   0.160   5.249 -0.3590 -0.2633  0.6316
 2832TIP3    H129911   1.978   0.082   5.301  0.4146 -0.4734  0.0517
 2832TIP3    H229912   2.045   0.198   5.232 -0.6082 -0.1266 -0.3698
 2833TIP3   OH229913   2.463   3.102   4.442 -0.4719 -0.6360 -0.1726
 2833TIP3    H129914   2.437   3.172   4.501 -0.3359  0.2167 -1.1247
 2833TIP3    H229915   2.403   3.030   4.462 -0.0856 -0.5487  1.3695
 2834TIP3   OH229916   5.662   6.358   3.222 -0.1896  0.5002  0.0639
 2834TIP3    H129917   5.571   6.384   3.208 -0.6887 -0.3791  1.5946
 2834TIP3    H229918   5.712   6.439   3.209 -1.3196  1.3113  0.6360
 2835TIP3   OH229919   2.454   5.637   6.021 -0.1298 -0.0533 -0.2591
 2835TIP3    H129920   2.513   5.565   6.041  0.2004 -0.2355 -1.8331
 2835TIP3    H229921   2.378   5.596   5.979  0.0704  0.5094 -1.1867
 2836TIP3   OH229922   0.620   3.148   0.426  0.6575 -0.6405 -0.0106
 2836TIP3    H129923   0.623   3.054   0.409 -1.7525 -0.8170  0.3576
 2836TIP3    H229924   0.552   3.158   0.493  0.8279  1.3718 -0.1013
 2837TIP3   OH229925   5.144   3.434   0.094  0.5525  0.1809 -0.3855
 2837TIP3    H129926   5.058   3.455   0.058  0.4182  0.0701 -0.1321
 2837TIP3    H229927   5.197   3.512   0.078 -0.2115  1.0825  1.4129
 2838TIP3   OH229928   5.941   5.535  15.400 -0.1919 -0.4382 -0.3688
 2838TIP3    H129929   5.910   5.550  15.311  0.1964 -1.9373 -0.7548
 2838TIP3    H229930   5.897   5.603  15.452  0.1691  0.9314 -1.8061
 2839TIP3   OH229931   2.558   3.916  16.188 -0.2708  0.4876 -0.7404
 2839TIP3    H129932   2.486   3.935  16.248 -0.6325 -0.5944 -0.8073
 2839TIP3    H229933   2.516   3.901  16.104  0.0654  0.2271 -0.8614
 2840TIP3   OH229934   5.911   2.076   6.418  0.2108 -0.2764  0.2877
 2840TIP3    H129935   5.821   2.094   6.444  0.1331 -0.9628  0.4855
 2840TIP3    H229936   5.920   1.981   6.424  0.9845 -0.2002  0.4046
 2841TIP3   OH229937   1.939   3.026  12.690 -0.6597 -0.1464 -0.1551
 2841TIP3    H129938   2.011   3.046  12.750  0.3779  1.5160 -1.8690
 2841TIP3    H229939   1.863   3.013  12.746  0.5133  0.2918  1.5664
 2842TIP3   OH229940   6.664   0.345   2.260  0.2548  0.2209 -0.1765
 2842TIP3    H129941   6.678   0.279   2.329 -2.0539  0.6214  0.6968
 2842TIP3    H229942   6.668   0.429   2.306 -2.7047  0.4450 -0.2341
 2843TIP3   OH229943   6.615   4.064  16.480 -0.5739  0.1580 -0.5974
 2843TIP3    H129944   6.603   3.969  16.481  0.8370 -0.0232  0.9661
 2843TIP3    H229945   6.707   4.077  16.459 -1.1065  1.2572 -2.4091
 2844TIP3   OH229946   6.635   3.224  14.184 -0.5787  0.0970 -0.2618
 2844TIP3    H129947   6.682   3.271  14.252 -2.4979 -0.3324  1.4048
 2844TIP3    H229948   6.698   3.217  14.112  1.9225 -0.6070  1.9113
 2845TIP3   OH229949   6.728   3.385   5.776 -0.0397  0.2387 -0.4800
 2845TIP3    H129950   6.818   3.404   5.806 -0.6373  1.6935  0.4395
 2845TIP3    H229951   6.683   3.356   5.855 -0.8294  1.1628 -0.5885
 2846TIP3   OH229952   1.016   0.454   2.615 -0.3238  0.2110  0.5392
 2846TIP3    H129953   1.095   0.419   2.575 -0.8527 -0.0991 -0.2555
 2846TIP3    H229954   1.042   0.538   2.653  0.6697 -0.4636  1.3716
 2847TIP3   OH229955   4.938   3.823  12.650  0.0078 -0.0699 -0.3169
 2847TIP3    H129956   4.918   3.916  12.657  0.1624 -0.1457  1.3872
 2847TIP3    H229957   5.031   3.817  12.674  0.1684 -0.5843 -1.0557
 2848TIP3   OH229958   3.170   3.807   0.148  0.0569 -0.0667 -0.2034
 2848TIP3    H129959   3.142   3.721   0.179  0.5781 -0.0880  0.2081
 2848TIP3    H229960   3.173   3.862   0.227  0.1674  0.2089 -0.3981
 2849TIP3   OH229961   2.399   0.231   5.520 -0.3544  0.5264 -0.2484
 2849TIP3    H129962   2.357   0.159   5.472 -0.1211  2.4610 -3.4778
 2849TIP3    H229963   2.473   0.189   5.565 -0.7271 -1.4068 -1.3708
 2850TIP3   OH229964   1.554   4.650   4.796  0.1999  0.4296 -0.5561
 2850TIP3    H129965   1.595   4.573   4.835  1.1819  0.6192 -1.1967
 2850TIP3    H229966   1.586   4.652   4.706 -1.4459  0.4248 -1.1726
 2851TIP3   OH229967   2.339   6.386  11.881  0.3041 -0.2588 -0.3445
 2851TIP3    H129968   2.318   6.407  11.790  0.1312 -0.0046 -0.2477
 2851TIP3    H229969   2.422   6.339  11.877  1.1498  1.2133 -0.4904
 2852TIP3   OH229970   6.008   4.180   2.417 -0.9871  0.5711 -0.1481
 2852TIP3    H129971   6.066   4.112   2.385 -1.3839 -0.3241  1.0138
 2852TIP3    H229972   6.060   4.260   2.414 -0.6425  0.2989 -1.8753
 2853TIP3   OH229973   5.562   0.171  15.872 -0.2161  0.1098 -0.1697
 2853TIP3    H129974   5.474   0.159  15.909  0.3028 -1.4350  0.5617
 2853TIP3    H229975   5.588   0.258  15.903 -1.2734  0.3631  0.0509
 2854TIP3   OH229976   3.938   3.112  14.524  0.5800 -0.3402  0.0234
 2854TIP3    H129977   3.852   3.102  14.483  0.7331  0.5174 -0.5223
 2854TIP3    H229978   3.939   3.047  14.594 -0.2680 -0.7927 -0.3748
 2855TIP3   OH229979   0.281   2.656  11.622 -0.1458 -0.3070  0.7883
 2855TIP3    H129980   0.349   2.589  11.636 -0.7585 -1.4579 -1.4289
 2855TIP3    H229981   0.326   2.725  11.573  0.0306  0.0870  1.4971
 2856TIP3   OH229982   2.331   5.427   5.659  0.3748 -0.7568 -0.0296
 2856TIP3    H129983   2.371   5.346   5.691 -0.5236 -2.4307 -2.8910
 2856TIP3    H229984   2.242   5.402   5.635 -0.4713  1.5054  0.6484
 2857TIP3   OH229985   3.754   0.271  12.058  0.1426  0.0601 -0.6779
 2857TIP3    H129986   3.758   0.310  11.970 -0.1820  0.3889 -0.5488
 2857TIP3    H229987   3.811   0.326  12.111  1.9782 -1.3702 -1.1442
 2858TIP3   OH229988   2.179   3.855  15.560  0.1193  0.1056 -0.2057
 2858TIP3    H129989   2.097   3.897  15.533  1.6508  2.0770 -1.9625
 2858TIP3    H229990   2.198   3.792  15.490  0.5489  0.2716 -0.2396
 2859TIP3   OH229991   0.650   3.691  15.461 -0.3276 -0.2101  1.0547
 2859TIP3    H129992   0.626   3.598  15.453 -3.3467  0.8040 -3.3985
 2859TIP3    H229993   0.601   3.721  15.538  0.2501 -2.1439  2.2262
 2860TIP3   OH229994   6.188   5.997  13.551  0.1161 -0.6811  0.4693
 2860TIP3    H129995   6.202   6.086  13.583  2.1308 -0.6300 -0.4664
 2860TIP3    H229996   6.276   5.961  13.544 -0.4803 -1.6701 -2.2104
 2861TIP3   OH229997   2.818   5.320  13.405  0.1295  0.0368  0.7915
 2861TIP3    H129998   2.732   5.303  13.367 -0.6691 -0.6884  2.8140
 2861TIP3    H229999   2.844   5.236  13.443  1.2505  0.5235  1.1270
 2862TIP3   OH230000   1.532   5.341  13.977 -0.3478  0.7673 -0.2626
 2862TIP3    H130001   1.505   5.284  13.905 -0.4303 -0.6879  0.8946
 2862TIP3    H230002   1.486   5.424  13.961 -0.8846  0.2368 -1.5076
 2863TIP3   OH230003   1.845   2.009  13.700  0.1344 -0.1495 -0.2136
 2863TIP3    H130004   1.804   2.096  13.691  2.3451  0.9913  0.4239
 2863TIP3    H230005   1.915   2.009  13.635  0.1546 -1.4610 -0.1937
 2864TIP3   OH230006   1.909   4.252  11.741 -0.7858 -0.4242  0.3457
 2864TIP3    H130007   1.937   4.326  11.794 -0.8959 -0.1320 -0.0007
 2864TIP3    H230008   1.882   4.291  11.657 -0.7029 -0.8683  0.1079
 2865TIP3   OH230009   0.019   6.467  13.842 -0.2476 -0.2076 -0.1534
 2865TIP3    H130010   0.115   6.473  13.845 -0.2692  0.5516 -0.9053
 2865TIP3    H230011  -0.011   6.553  13.870 -0.7346 -0.8493  1.3295
 2866TIP3   OH230012   4.673   3.349  13.818 -0.2610  0.1166 -0.5903
 2866TIP3    H130013   4.614   3.323  13.747  0.5411  0.2688 -1.3334
 2866TIP3    H230014   4.758   3.362  13.774 -0.1695  1.9703  0.0878
 2867TIP3   OH230015   2.277   0.899  13.411  0.0937  0.3060 -0.3595
 2867TIP3    H130016   2.300   0.810  13.439  2.8418  0.8689 -0.7364
 2867TIP3    H230017   2.209   0.886  13.344  1.3863 -1.5850 -1.3483
 2868TIP3   OH230018   0.944   6.049   2.337 -0.2888 -0.1145 -0.3653
 2868TIP3    H130019   0.931   6.120   2.400  0.4492  0.0101 -0.3522
 2868TIP3    H230020   0.953   5.970   2.392 -0.5422 -0.1370 -0.3555
 2869TIP3   OH230021   3.739   5.430   5.161  0.0095  0.4136  0.0078
 2869TIP3    H130022   3.736   5.417   5.066  0.1417  1.2729 -0.1213
 2869TIP3    H230023   3.649   5.455   5.185 -0.2288 -0.6635  0.2403
 2870TIP3   OH230024   6.329   4.075   4.931 -0.0334  0.2986  0.0898
 2870TIP3    H130025   6.390   4.002   4.917 -2.2466 -1.5913 -0.0644
 2870TIP3    H230026   6.330   4.088   5.026  0.0045 -0.2877  0.1758
 2871TIP3   OH230027   0.198   5.332   3.730  0.7509 -0.1058 -1.0032
 2871TIP3    H130028   0.196   5.293   3.643  1.8578 -1.5251 -0.3983
 2871TIP3    H230029   0.253   5.410   3.720 -0.6282  0.7577 -1.9749
 2872TIP3   OH230030   4.605   1.912  16.997  0.8697 -0.3795 -0.4480
 2872TIP3    H130031   4.622   1.819  16.985  1.2666 -0.4662  0.7391
 2872TIP3    H230032   4.624   1.928  17.089 -1.5216  0.3585 -0.0417
 2873TIP3   OH230033   3.841   5.734   1.049 -1.5242  0.4841 -0.0868
 2873TIP3    H130034   3.827   5.689   0.966  0.9974  0.3116 -0.4579
 2873TIP3    H230035   3.776   5.695   1.108 -0.0646 -3.0144 -0.6486
 2874TIP3   OH230036   2.772   3.807  11.451  0.3686 -0.4805  0.1198
 2874TIP3    H130037   2.846   3.752  11.424 -0.6583 -0.4956 -2.8943
 2874TIP3    H230038   2.699   3.777  11.396 -1.3094  0.9966  1.4994
 2875TIP3   OH230039   1.036   3.006  13.801 -0.2511 -0.0103  0.5405
 2875TIP3    H130040   1.005   2.918  13.823 -0.2618 -0.2087 -0.2791
 2875TIP3    H230041   0.963   3.063  13.826 -1.5241 -0.5202 -1.8530
 2876TIP3   OH230042   2.782   5.695   0.194  0.6017  0.4118 -0.8558
 2876TIP3    H130043   2.735   5.615   0.174 -0.0760  0.3978  0.7142
 2876TIP3    H230044   2.870   5.681   0.159  0.3240 -0.7784 -1.1001
 2877TIP3   OH230045   5.743   1.222  16.008  0.7914 -0.1786 -0.5595
 2877TIP3    H130046   5.786   1.227  15.922 -0.7323 -2.2195 -1.4841
 2877TIP3    H230047   5.731   1.128  16.023  0.8885  0.1778  1.8281
 2878TIP3   OH230048   5.256   4.962   5.565 -0.1870 -0.1861  0.4089
 2878TIP3    H130049   5.312   4.997   5.496  0.3153  0.1955  0.9988
 2878TIP3    H230050   5.203   4.894   5.522  0.6881 -0.5094 -0.1705
 2879TIP3   OH230051   1.140   1.483   0.614  0.0416  0.3202 -0.2564
 2879TIP3    H130052   1.070   1.421   0.596  0.6530 -0.7402  0.9136
 2879TIP3    H230053   1.095   1.563   0.643 -0.7502  0.5261 -2.0157
 2880TIP3   OH230054   4.127   4.712   4.998  0.1192 -0.0125 -0.1429
 2880TIP3    H130055   4.116   4.696   5.092 -2.1792 -0.7929 -0.5245
 2880TIP3    H230056   4.053   4.668   4.957  1.0934  0.3428 -2.3360
 2881TIP3   OH230057   6.308   0.437  15.871  0.5821 -0.2721  0.2040
 2881TIP3    H130058   6.360   0.506  15.911 -0.1227 -0.4886  1.5527
 2881TIP3    H230059   6.220   0.473  15.865  0.4289 -0.6755 -0.0217
 2882TIP3   OH230060   5.504   0.996   0.896 -0.5445 -0.2425 -0.5018
 2882TIP3    H130061   5.459   1.035   0.821 -1.5888 -0.2971  0.0940
 2882TIP3    H230062   5.447   1.015   0.971  0.5642 -0.0454  0.3085
 2883TIP3   OH230063   1.750   6.664  14.825 -0.3603 -0.2751 -0.2926
 2883TIP3    H130064   1.818   6.724  14.793 -0.1175 -0.4648 -0.1302
 2883TIP3    H230065   1.785   6.631  14.908 -1.1429  0.4932  0.3522
 2884TIP3   OH230066   1.378   1.182   0.702  0.1938 -0.2482  0.1958
 2884TIP3    H130067   1.362   1.151   0.791 -0.5425 -0.4096  0.0115
 2884TIP3    H230068   1.364   1.276   0.706 -3.3735 -0.6456 -0.4798
 2885TIP3   OH230069   2.051   5.701   5.976 -0.0569 -0.0937 -0.3705
 2885TIP3    H130070   2.029   5.719   5.885 -0.5812  0.0269 -0.2258
 2885TIP3    H230071   2.067   5.606   5.978  1.5085  0.1507 -0.8870
 2886TIP3   OH230072   6.036   2.008  15.491 -0.4662  0.3236 -0.1313
 2886TIP3    H130073   6.110   1.984  15.547  1.2194 -2.2786 -3.3477
 2886TIP3    H230074   5.959   1.975  15.538  0.8442 -1.1599  1.0310
 2887TIP3   OH230075   6.172   6.508  10.883 -0.4931 -0.1701  0.1438
 2887TIP3    H130076   6.265   6.491  10.901 -0.2334 -0.4019 -1.3708
 2887TIP3    H230077   6.135   6.421  10.865 -1.6281 -0.4448  3.4038
 2888TIP3   OH230078   6.618   6.457  13.200  0.3126  0.2564  0.3029
 2888TIP3    H130079   6.634   6.508  13.120 -2.4240  1.8341  0.7189
 2888TIP3    H230080   6.657   6.510  13.270  1.3422 -0.3909  0.2432
 2889TIP3   OH230081   0.252   6.210   3.047  0.2529  0.1430  0.6216
 2889TIP3    H130082   0.214   6.250   3.125 -1.5744  0.6069 -0.4732
 2889TIP3    H230083   0.195   6.137   3.026  0.2309  0.5208 -0.7399
 2890TIP3   OH230084   0.255   3.077  12.324  0.3294 -0.0366  0.0869
 2890TIP3    H130085   0.221   3.133  12.254 -1.2641  0.4138  1.1811
 2890TIP3    H230086   0.295   3.138  12.386  0.3025 -0.2859  0.3480
 2891TIP3   OH230087   3.857   5.288  13.901  0.1365  0.5083 -0.0426
 2891TIP3    H130088   3.763   5.303  13.893 -0.0326 -0.6379 -0.3440
 2891TIP3    H230089   3.873   5.285  13.995 -0.2405  0.0548  0.0108
 2892TIP3   OH230090   0.335   0.704  15.306  0.3775  0.2505  0.3003
 2892TIP3    H130091   0.349   0.772  15.372  0.2401 -0.6297  1.2437
 2892TIP3    H230092   0.379   0.627  15.341 -0.1518 -0.3694 -0.3925
 2893TIP3   OH230093   5.827   2.974   4.778  0.0659 -0.1699 -0.3487
 2893TIP3    H130094   5.915   2.948   4.751  0.1749 -0.2878  0.1165
 2893TIP3    H230095   5.797   2.903   4.835 -1.1485 -1.1372 -2.1793
 2894TIP3   OH230096   1.416   3.876   0.176  0.7508 -0.0601  1.0926
 2894TIP3    H130097   1.345   3.814   0.188  0.2382 -0.1217 -1.8046
 2894TIP3    H230098   1.494   3.822   0.167  0.2187 -0.3948 -2.0472
 2895TIP3   OH230099   4.509   0.679   2.538  0.7551 -0.2349  0.5870
 2895TIP3    H130100   4.529   0.622   2.463 -0.5877 -0.6186  0.5096
 2895TIP3    H230101   4.591   0.682   2.588  1.2596 -1.0846 -0.1667
 2896TIP3   OH230102   1.463   0.870  13.033  0.1385 -0.3611  0.4707
 2896TIP3    H130103   1.511   0.916  12.964  1.7349 -0.1149  1.7069
 2896TIP3    H230104   1.518   0.795  13.055  0.5298  0.5378  2.6748
 2897TIP3   OH230105   4.158   3.509  13.380 -0.1680  0.3855 -0.0062
 2897TIP3    H130106   4.137   3.420  13.409 -0.1898  0.2552 -0.4241
 2897TIP3    H230107   4.237   3.532  13.429 -0.9806  0.6855  1.2098
 2898TIP3   OH230108   2.656   4.391  10.509  0.0483 -0.5101  0.0894
 2898TIP3    H130109   2.563   4.395  10.486  0.3990  0.2585 -1.2573
 2898TIP3    H230110   2.692   4.472  10.474  0.7811  0.3437  2.7357
 2899TIP3   OH230111   6.199   6.151  14.515  0.0667 -0.4348  1.0898
 2899TIP3    H130112   6.220   6.241  14.539  0.3880 -0.3797  0.6023
 2899TIP3    H230113   6.112   6.156  14.475  0.7996 -0.0872 -0.4980
 2900TIP3   OH230114   5.261   3.839   0.770  0.5195  0.0108 -0.0380
 2900TIP3    H130115   5.186   3.831   0.829 -0.0953  1.7397 -0.5636
 2900TIP3    H230116   5.287   3.749   0.753  0.4990 -0.5368  2.5938
 2901TIP3   OH230117   1.905   3.866  15.449  0.0841 -0.2350 -0.1367
 2901TIP3    H130118   1.925   3.818  15.369  0.1286 -1.2350  0.4715
 2901TIP3    H230119   1.814   3.895  15.437  0.0215 -0.5607 -0.4611
 2902TIP3   OH230120   3.407   0.398  11.664  0.0617 -0.0736 -0.1119
 2902TIP3    H130121   3.487   0.447  11.684  0.5359 -0.2428 -1.5274
 2902TIP3    H230122   3.336   0.450  11.701  0.7433  0.6500  0.1677
 2903TIP3   OH230123   4.562   3.974   5.521  0.1674  0.6000 -0.2958
 2903TIP3    H130124   4.590   3.897   5.571 -1.4383 -1.0081 -1.7659
 2903TIP3    H230125   4.619   4.044   5.550  1.8487 -1.2184  0.9148
 2904TIP3   OH230126   2.271   1.702  16.212  0.1882  0.6630  0.0665
 2904TIP3    H130127   2.338   1.743  16.157 -0.7438  1.5705 -0.4024
 2904TIP3    H230128   2.305   1.711  16.301  1.5622 -0.5427 -0.3003
 2905TIP3   OH230129   2.626   4.248  15.890  0.1315  0.1195  0.8743
 2905TIP3    H130130   2.655   4.178  15.948 -1.1511 -0.9509  0.2717
 2905TIP3    H230131   2.579   4.309  15.946 -3.7229 -2.3989  0.6284
 2906TIP3   OH230132   5.706   4.071  15.302  0.4934 -0.3469  0.1652
 2906TIP3    H130133   5.739   4.101  15.387 -0.3510  1.3131 -0.0697
 2906TIP3    H230134   5.777   4.089  15.241  0.9704 -1.2250  0.4526
 2907TIP3   OH230135   0.869   6.232  16.467  0.0041 -0.5568 -0.5461
 2907TIP3    H130136   0.939   6.176  16.433  0.2589 -2.0603  2.2954
 2907TIP3    H230137   0.798   6.225  16.403  1.3411 -1.3405 -1.9756
 2908TIP3   OH230138   1.144   6.628   5.211 -0.3889  0.8607  0.6713
 2908TIP3    H130139   1.209   6.668   5.154 -0.6859  1.0100  0.4347
 2908TIP3    H230140   1.098   6.566   5.154 -0.8966  1.2404  0.6718
 2909TIP3   OH230141   6.163   3.137   2.627 -0.1292  0.7138  0.6897
 2909TIP3    H130142   6.082   3.178   2.657 -0.2234  0.9763  0.0968
 2909TIP3    H230143   6.136   3.050   2.596 -0.6665  1.8331 -2.1114
 2910TIP3   OH230144   0.904   3.465   3.702 -0.8361  0.3259 -0.1737
 2910TIP3    H130145   0.991   3.432   3.728 -1.1379  0.7435  1.4423
 2910TIP3    H230146   0.843   3.404   3.744 -1.3355 -0.2750 -1.7376
 2911TIP3   OH230147   6.346   5.554   3.012  0.0165  0.1552  0.4902
 2911TIP3    H130148   6.300   5.473   2.990  0.1820  0.1057  0.3187
 2911TIP3    H230149   6.311   5.619   2.953 -0.1737  0.2276  0.6829
 2912TIP3   OH230150   6.630   1.434  13.644 -0.5220 -0.1042  1.2250
 2912TIP3    H130151   6.565   1.472  13.585 -1.1472 -1.7200  0.8355
 2912TIP3    H230152   6.673   1.366  13.592  1.2182  0.6466  1.6099
 2913TIP3   OH230153   5.331   1.104   1.105  0.2616  0.2604  0.1243
 2913TIP3    H130154   5.327   1.177   1.043 -0.1807  0.0564 -0.0850
 2913TIP3    H230155   5.291   1.139   1.185 -2.9620 -0.7812 -0.9904
 2914TIP3   OH230156   2.656   6.002  13.533 -0.0548 -0.4686 -0.7343
 2914TIP3    H130157   2.612   5.964  13.456  0.2442  0.4736 -1.3814
 2914TIP3    H230158   2.596   6.069  13.564  0.1025 -0.4297 -0.5163
 2915TIP3   OH230159   2.691   5.041   0.722  0.0939 -1.1211 -0.1065
 2915TIP3    H130160   2.648   5.078   0.799  0.5625 -0.1198 -0.3180
 2915TIP3    H230161   2.635   4.968   0.696 -0.6427 -0.7936  0.5398
 2916TIP3   OH230162   3.165   2.377   5.433  0.2172  0.2687  0.1358
 2916TIP3    H130163   3.199   2.346   5.349  0.5204  1.1271 -0.0562
 2916TIP3    H230164   3.239   2.368   5.493  0.3859  0.8616  0.0206
 2917TIP3   OH230165   1.670   0.754   3.940 -0.7267  0.3001  0.2901
 2917TIP3    H130166   1.693   0.737   3.848 -0.1080  1.2186  0.2575
 2917TIP3    H230167   1.725   0.694   3.990  0.2078  0.9826  0.1155
 2918TIP3   OH230168   6.394   0.745  15.217  0.5845  0.1374 -0.2476
 2918TIP3    H130169   6.408   0.833  15.183 -0.2715 -0.6074 -2.6581
 2918TIP3    H230170   6.480   0.717  15.247  0.9108  1.6996  0.3195
 2919TIP3   OH230171   5.134   5.049   0.125  0.5501  0.3971 -0.3029
 2919TIP3    H130172   5.110   5.138   0.152  0.9241  0.4568 -0.1633
 2919TIP3    H230173   5.133   4.998   0.206 -0.0623  0.1813 -0.4432
 2920TIP3   OH230174   5.966   1.809  15.283  0.3271 -0.3690 -0.1438
 2920TIP3    H130175   5.908   1.733  15.286 -1.1147  0.6364 -1.7422
 2920TIP3    H230176   5.935   1.866  15.353  0.1707 -0.3767 -0.2079
 2921TIP3   OH230177   3.821   5.835  12.071 -0.6796  0.0309  0.3999
 2921TIP3    H130178   3.772   5.754  12.056 -1.0343  0.2237  0.5066
 2921TIP3    H230179   3.895   5.829  12.012 -0.1732 -0.8219  1.1041
 2922TIP3   OH230180   0.246   3.108   0.854  0.3291 -0.0646 -0.0903
 2922TIP3    H130181   0.167   3.060   0.832 -0.9093  0.4922  2.9027
 2922TIP3    H230182   0.296   3.048   0.911  1.7501 -0.1505 -1.3918
 2923TIP3   OH230183   5.402   3.447  16.581 -0.7394  0.2827  0.3615
 2923TIP3    H130184   5.428   3.538  16.592  0.3641  0.2566 -1.7483
 2923TIP3    H230185   5.477   3.396  16.611  0.3903  0.1649 -2.4986
 2924TIP3   OH230186   6.275   3.663  12.573  0.0981  0.4905  0.1099
 2924TIP3    H130187   6.287   3.590  12.513 -1.0358  0.9646 -0.7054
 2924TIP3    H230188   6.226   3.728  12.523 -0.2793  1.1702  1.3313
 2925TIP3   OH230189   6.425   4.473  16.177 -0.0017  0.2463  0.1166
 2925TIP3    H130190   6.332   4.472  16.200 -0.0854 -1.4351 -0.2419
 2925TIP3    H230191   6.466   4.414  16.240  0.6510  0.1325 -0.4142
 2926TIP3   OH230192   6.154   5.467   5.530 -0.3082  0.2774 -0.0271
 2926TIP3    H130193   6.149   5.394   5.468 -0.2030  0.1208  0.1464
 2926TIP3    H230194   6.063   5.495   5.541 -0.6634 -1.4470  1.8089
 2927TIP3   OH230195   0.833   1.888  14.202 -0.4360 -0.0443 -0.3047
 2927TIP3    H130196   0.866   1.903  14.290  1.1839  0.9635 -1.0571
 2927TIP3    H230197   0.805   1.797  14.202  0.9861 -0.5023  0.7949
 2928TIP3   OH230198   0.730   0.295   4.625  0.1472  0.1872 -0.1758
 2928TIP3    H130199   0.762   0.236   4.557  0.8749 -1.9425  1.9117
 2928TIP3    H230200   0.647   0.256   4.653 -1.8198  2.8883 -2.0895
 2929TIP3   OH230201   6.452   3.293  11.525  0.2237 -0.0938  0.1098
 2929TIP3    H130202   6.373   3.254  11.487  1.6151 -0.4579 -2.5872
 2929TIP3    H230203   6.502   3.218  11.558 -0.2146  0.0629  1.1301
 2930TIP3   OH230204   5.657   2.568  13.296 -0.3671  0.2499 -0.0081
 2930TIP3    H130205   5.683   2.506  13.227 -0.9416  0.3379 -0.3095
 2930TIP3    H230206   5.738   2.587  13.343 -0.2327 -0.9561  0.2760
 2931TIP3   OH230207   5.166   1.616   1.828 -0.0091 -0.7007 -0.1110
 2931TIP3    H130208   5.211   1.690   1.788  0.3910 -0.3293  0.9829
 2931TIP3    H230209   5.076   1.645   1.840  0.1683 -0.3564  0.3948
 2932TIP3   OH230210   4.628   0.036   0.473  0.1262  0.1900 -1.2820
 2932TIP3    H130211   4.641   0.122   0.511  2.4116  0.3143 -2.3201
 2932TIP3    H230212   4.543   0.042   0.428 -0.0573  1.6427 -0.7481
 2933TIP3   OH230213   1.634   1.382   2.357  0.3785 -0.1454  0.3977
 2933TIP3    H130214   1.554   1.435   2.351  0.1192 -0.6012 -0.2189
 2933TIP3    H230215   1.612   1.312   2.419  0.3705 -0.1381  0.4030
 2934TIP3   OH230216   0.840   2.860  11.889  0.4041  0.5938 -0.4847
 2934TIP3    H130217   0.925   2.877  11.929 -0.7307  1.7199  1.4821
 2934TIP3    H230218   0.778   2.857  11.962 -1.2029 -0.6966 -1.8307
 2935TIP3   OH230219   4.793   1.700   2.843  0.4812  0.1038 -0.2917
 2935TIP3    H130220   4.825   1.616   2.811  0.6590  0.2559 -0.5140
 2935TIP3    H230221   4.760   1.682   2.931  2.7015  0.2694  0.5935
 2936TIP3   OH230222   0.002   0.278   4.433  0.2221 -0.0634  0.2619
 2936TIP3    H130223  -0.030   0.191   4.457  0.4101 -0.0102  0.7146
 2936TIP3    H230224  -0.077   0.328   4.414  0.2263 -1.0531 -2.5460
 2937TIP3   OH230225   4.920   1.040   5.160  0.4541  0.0403  0.2556
 2937TIP3    H130226   4.929   0.960   5.212 -0.3887  0.0549  0.4270
 2937TIP3    H230227   4.875   1.011   5.081 -0.6437  0.4969  0.7014
 2938TIP3   OH230228   3.329   5.457   4.060  0.0690  0.7389 -0.5928
 2938TIP3    H130229   3.415   5.485   4.030  0.1643  2.9284  1.5261
 2938TIP3    H230230   3.345   5.378   4.111  0.6668  0.4402 -1.2459
 2939TIP3   OH230231   3.334   5.915  15.065 -0.0571 -0.7505  0.0457
 2939TIP3    H130232   3.326   5.981  14.996  0.1513 -0.8916 -0.1138
 2939TIP3    H230233   3.367   5.837  15.020 -0.2444 -0.9468  0.2445
 2940TIP3   OH230234   0.164   5.241  12.297  0.4063  0.2725  0.0046
 2940TIP3    H130235   0.191   5.318  12.346 -0.1389  0.1767  0.4612
 2940TIP3    H230236   0.140   5.274  12.211  1.2733  0.4566 -0.1729
 2941TIP3   OH230237   0.528   0.413  16.544  0.1645 -0.2004 -0.7032
 2941TIP3    H130238   0.601   0.352  16.558 -0.6842 -1.3208 -1.1585
 2941TIP3    H230239   0.463   0.387  16.609 -0.8482 -0.7903 -1.9550
 2942TIP3   OH230240   2.398   1.088  15.898  0.1462  0.1701  0.2962
 2942TIP3    H130241   2.314   1.074  15.941  0.0788 -0.0666  0.0925
 2942TIP3    H230242   2.389   1.175  15.857 -0.3428 -0.2411 -0.4998
 2943TIP3   OH230243   4.309   0.722  12.148 -0.3001  0.5630 -0.0614
 2943TIP3    H130244   4.259   0.650  12.110  0.4987 -0.5228  0.8869
 2943TIP3    H230245   4.274   0.801  12.107  0.4189 -0.5423 -2.9231
 2944TIP3   OH230246   3.508   3.705  12.776  0.0344 -0.1131  0.0708
 2944TIP3    H130247   3.593   3.664  12.793 -0.8189 -1.8433  0.2568
 2944TIP3    H230248   3.508   3.782  12.832  1.2158 -0.4547  0.5732
 2945TIP3   OH230249   3.499   3.031  11.811  1.1977 -0.1490  0.2395
 2945TIP3    H130250   3.527   3.108  11.862 -0.7341  0.1835  0.8439
 2945TIP3    H230251   3.482   3.066  11.723  0.1882  0.1555  0.5482
 2946TIP3   OH230252   3.412   4.068   2.549  0.0638 -1.1326 -0.3160
 2946TIP3    H130253   3.369   3.996   2.596 -0.5732 -0.0837  0.7074
 2946TIP3    H230254   3.502   4.069   2.583 -0.2616 -0.6798  0.5341
 2947TIP3   OH230255   6.162   0.033   1.200 -1.1316  0.2941  0.0033
 2947TIP3    H130256   6.108   0.003   1.274 -0.3843 -0.5339  0.2205
 2947TIP3    H230257   6.245   0.057   1.239 -0.7734 -0.0218 -0.5592
 2948TIP3   OH230258   4.208   2.990   3.212 -0.7269  0.4539  0.0439
 2948TIP3    H130259   4.220   2.898   3.190  0.0101  0.9071 -1.5139
 2948TIP3    H230260   4.125   3.014   3.171 -0.6533  0.6298 -0.0025
 2949TIP3   OH230261   2.943   2.150   5.692  0.0623  0.1962  0.6005
 2949TIP3    H130262   3.036   2.153   5.718  0.3080  0.2813 -0.2817
 2949TIP3    H230263   2.903   2.223   5.739  0.8067  1.2749 -0.4323
 2950TIP3   OH230264   1.265   1.772  16.461  0.2354  0.1929  0.0148
 2950TIP3    H130265   1.198   1.726  16.512  1.6223  0.2638  1.9842
 2950TIP3    H230266   1.249   1.747  16.371 -1.4350 -1.0676  0.6358
 2951TIP3   OH230267   4.993   1.032  14.966 -0.1225 -0.1575 -0.7202
 2951TIP3    H130268   4.925   1.060  15.028 -0.5017  0.8320 -1.5714
 2951TIP3    H230269   5.014   1.111  14.916  0.0342 -1.0026 -2.0072
 2952TIP3   OH230270   3.091   0.782   5.140  0.3263 -0.0644  0.1672
 2952TIP3    H130271   3.096   0.816   5.050  2.4266 -0.6437  0.0377
 2952TIP3    H230272   3.051   0.854   5.190 -1.3042  0.0828 -1.2924
 2953TIP3   OH230273   0.811   6.652  16.991  0.3064 -0.2691 -0.1301
 2953TIP3    H130274   0.838   6.741  17.013 -2.7044  0.2906  1.6494
 2953TIP3    H230275   0.828   6.644  16.897  2.5254  1.4333  0.0823
 2954TIP3   OH230276   2.611   0.796  12.699  0.0159 -0.1124  0.5100
 2954TIP3    H130277   2.632   0.870  12.757 -1.6141 -0.1050  1.1314
 2954TIP3    H230278   2.684   0.792  12.638  1.0672  0.8034  1.6699
 2955TIP3   OH230279   3.944   3.859  13.490 -0.1672  0.2290 -0.2156
 2955TIP3    H130280   3.880   3.920  13.526 -2.8672 -2.3715 -0.4538
 2955TIP3    H230281   4.001   3.837  13.564 -0.9896  0.7492  0.5821
 2956TIP3   OH230282   3.439   1.932  13.047 -0.2225 -0.3635  0.0425
 2956TIP3    H130283   3.365   1.893  12.999  0.5026 -1.1121 -0.4731
 2956TIP3    H230284   3.408   1.937  13.137 -0.7723 -1.0144 -0.1046
 2957TIP3   OH230285   4.670   4.080  14.552  0.4850  0.3095  0.1896
 2957TIP3    H130286   4.629   4.148  14.498 -0.9653  0.7169  1.7538
 2957TIP3    H230287   4.627   3.999  14.525  1.2554  0.1873 -0.7178
 2958TIP3   OH230288   5.517   0.457   2.404  0.2230  0.4818  0.1338
 2958TIP3    H130289   5.516   0.372   2.448  3.6402  0.4921  0.3561
 2958TIP3    H230290   5.509   0.435   2.311  0.3338 -0.0445  0.2453
 2959TIP3   OH230291   6.687   2.625  15.165  0.0764  0.4452 -0.3794
 2959TIP3    H130292   6.645   2.590  15.086  1.4753 -3.2439  0.3980
 2959TIP3    H230293   6.780   2.626  15.145  0.3155  0.8251  0.7220
 2960TIP3   OH230294   5.090   2.879   5.315  0.3090  0.3431 -0.0886
 2960TIP3    H130295   5.116   2.787   5.306  0.0780  0.2780 -0.0948
 2960TIP3    H230296   5.024   2.878   5.385 -0.2424  0.4028 -0.6094
 2961TIP3   OH230297   2.585   3.744  13.051  0.1312  0.3902  0.3665
 2961TIP3    H130298   2.681   3.745  13.045  0.1227  0.6995  0.2322
 2961TIP3    H230299   2.567   3.768  13.142  0.2146 -1.7398  0.9625
 2962TIP3   OH230300   3.684   4.653  17.007 -0.0881 -0.2646 -0.0718
 2962TIP3    H130301   3.651   4.565  16.991  0.3525 -0.2185 -1.2505
 2962TIP3    H230302   3.773   4.652  16.970  0.3386  0.3394  0.9093
 2963TIP3   OH230303   2.647   5.650  12.894 -0.0228  0.5180 -0.4153
 2963TIP3    H130304   2.728   5.599  12.900 -0.7687 -0.5531  0.9992
 2963TIP3    H230305   2.621   5.644  12.802  1.7203  1.2200 -0.9566
 2964TIP3   OH230306   2.712   0.512   0.212  0.1830 -0.0654  0.1029
 2964TIP3    H130307   2.698   0.423   0.181 -0.1937  0.6023 -1.7034
 2964TIP3    H230308   2.625   0.552   0.210  0.7138  1.0758 -1.5094
 2965TIP3   OH230309   6.493   3.365  17.052  0.0484  0.4486 -0.5087
 2965TIP3    H130310   6.589   3.365  17.045  0.0780 -0.4336 -0.1865
 2965TIP3    H230311   6.474   3.303  17.123 -0.7876  0.1396 -0.9924
 2966TIP3   OH230312   3.501   6.592  14.092 -0.0547 -0.1593  0.2148
 2966TIP3    H130313   3.498   6.598  13.997 -0.2939 -1.4322  0.1396
 2966TIP3    H230314   3.412   6.569  14.118 -0.2253  1.1312  0.8268
 2967TIP3   OH230315   3.742   4.257  16.507 -0.1716  0.9195  0.1000
 2967TIP3    H130316   3.656   4.284  16.473 -0.4527  0.7138  0.6372
 2967TIP3    H230317   3.771   4.331  16.560  0.3450  1.3114 -0.7210
 2968TIP3   OH230318   2.284   4.794   3.721  0.1739 -0.0112 -0.2634
 2968TIP3    H130319   2.227   4.718   3.706  0.2624 -0.0935 -0.1813
 2968TIP3    H230320   2.252   4.860   3.659 -0.1233  0.0050 -0.0964
 2969TIP3   OH230321   1.503   3.655  14.880  0.1861 -0.0622  0.1840
 2969TIP3    H130322   1.546   3.623  14.959  1.5675  0.3435 -0.3800
 2969TIP3    H230323   1.476   3.744  14.902  0.8513  0.1620  0.0983
 2970TIP3   OH230324   1.256   3.657  12.622  0.2184 -0.2579 -0.2174
 2970TIP3    H130325   1.348   3.631  12.629  0.8440  1.5149 -1.5572
 2970TIP3    H230326   1.226   3.619  12.539  1.1585  3.2352 -2.2203
 2971TIP3   OH230327   3.690   3.240  15.048 -0.8302  0.1288 -1.0072
 2971TIP3    H130328   3.713   3.162  14.998  4.3103  0.6651  0.2468
 2971TIP3    H230329   3.657   3.206  15.131 -0.2140 -0.7325 -1.1059
 2972TIP3   OH230330   6.109   3.227   0.004  0.0354 -0.1588  0.0561
 2972TIP3    H130331   6.092   3.318   0.026  1.8770  0.5990 -1.5244
 2972TIP3    H230332   6.022   3.186   0.002 -0.7348  1.3559  1.5344
 2973TIP3   OH230333   0.360   0.366   5.273  0.1343  0.5162  0.5481
 2973TIP3    H130334   0.313   0.307   5.332 -0.4213 -1.7894 -2.1066
 2973TIP3    H230335   0.373   0.446   5.325  0.5373 -1.7213  4.1160
 2974TIP3   OH230336   6.068   2.851   2.370  0.0651  0.0403 -0.1420
 2974TIP3    H130337   6.162   2.860   2.381  0.2402 -1.6738 -0.1083
 2974TIP3    H230338   6.045   2.915   2.304  0.9924  1.6399  1.0577
 2975TIP3   OH230339   4.588   3.888   2.996  0.9065 -0.3941 -0.1946
 2975TIP3    H130340   4.611   3.940   3.073  0.0800  0.2432 -0.3691
 2975TIP3    H230341   4.672   3.864   2.957  1.3069  0.7204 -0.0496
 2976TIP3   OH230342   1.168   5.480  15.630 -0.4280 -0.5202  0.3128
 2976TIP3    H130343   1.087   5.530  15.631 -0.9426 -0.9913 -4.3036
 2976TIP3    H230344   1.223   5.524  15.565  1.9979 -1.7122  1.4777
 2977TIP3   OH230345   3.295   2.251  16.423 -0.4200  0.0466 -0.2169
 2977TIP3    H130346   3.240   2.195  16.368 -1.7862 -0.1358  1.2954
 2977TIP3    H230347   3.283   2.339  16.386  1.1958 -0.5058 -2.1716
 2978TIP3   OH230348   3.846   6.415   0.137 -0.2463  0.2898  0.2887
 2978TIP3    H130349   3.937   6.397   0.161  0.9744  2.3494 -2.5016
 2978TIP3    H230350   3.852   6.490   0.078 -3.8114  0.6754  0.3393
 2979TIP3   OH230351   0.183   0.535   4.954  0.2392 -0.0272 -0.2272
 2979TIP3    H130352   0.146   0.616   4.920  2.5592  1.2643  0.2366
 2979TIP3    H230353   0.258   0.518   4.898  0.1683 -1.5064  0.1115
 2980TIP3   OH230354   3.010   6.122  14.609 -0.4613  0.7180 -0.2489
 2980TIP3    H130355   2.948   6.134  14.681  0.1290 -1.2679  0.6283
 2980TIP3    H230356   2.972   6.051  14.557  0.8208 -0.1750  0.0160
 2981TIP3   OH230357   0.361   3.450   3.687  0.7262 -0.2393 -0.4868
 2981TIP3    H130358   0.333   3.539   3.666  0.3478 -0.7792 -2.3766
 2981TIP3    H230359   0.285   3.395   3.665  1.7430 -1.2564 -1.4986
 2982TIP3   OH230360   0.721   1.963   6.246  0.0385 -0.3529 -0.1559
 2982TIP3    H130361   0.753   1.954   6.336 -0.2471  1.3766  0.1340
 2982TIP3    H230362   0.709   1.873   6.216 -0.4209 -0.9400  1.7374
 2983TIP3   OH230363   1.810   6.206  12.223 -0.5074  0.2195  0.2898
 2983TIP3    H130364   1.745   6.145  12.188  0.3138 -0.5215  0.0343
 2983TIP3    H230365   1.857   6.238  12.146  1.2283 -1.3215  0.6531
 2984TIP3   OH230366   1.011   4.865   3.412 -0.1530 -0.2837  0.0766
 2984TIP3    H130367   0.978   4.794   3.467  1.0179  0.3597  1.6368
 2984TIP3    H230368   0.978   4.945   3.454  0.8795  0.2153 -0.0563
 2985TIP3   OH230369   0.384   2.068  15.061 -1.2158  0.1453  0.4946
 2985TIP3    H130370   0.466   2.049  15.015 -1.0926 -0.7380  1.0652
 2985TIP3    H230371   0.392   2.022  15.144 -3.0834 -1.4959 -0.2081
 2986TIP3   OH230372   2.286   5.927  10.613  0.1571 -0.0609 -0.1696
 2986TIP3    H130373   2.193   5.913  10.596  0.4388 -2.1445 -0.1523
 2986TIP3    H230374   2.290   5.959  10.703 -0.5364  0.0145 -0.1634
 2987TIP3   OH230375   2.733   3.657   2.265 -0.6652 -0.4171 -0.3960
 2987TIP3    H130376   2.749   3.678   2.173  0.5416  0.3838 -0.0105
 2987TIP3    H230377   2.771   3.570   2.276  3.7871  1.5146  0.5445
 2988TIP3   OH230378   3.645   6.740   6.021 -0.1109 -0.0652 -0.1851
 2988TIP3    H130379   3.582   6.719   6.090 -0.5117  0.3982 -0.4049
 2988TIP3    H230380   3.671   6.830   6.039  0.0439 -0.0605 -0.4336
 2989TIP3   OH230381   2.662   5.865   4.202  0.3468  0.5512  0.1009
 2989TIP3    H130382   2.755   5.843   4.198  0.1585  0.2258 -4.3977
 2989TIP3    H230383   2.657   5.956   4.176 -0.8619 -0.4421 -3.3478
 2990TIP3   OH230384   2.546   4.755   0.187 -0.6144  0.1209  0.2620
 2990TIP3    H130385   2.642   4.759   0.191 -0.3691 -3.3708 -0.7096
 2990TIP3    H230386   2.521   4.832   0.137  1.7230  0.8101  0.1102
 2991TIP3   OH230387   0.667   1.941  16.546  0.0879 -0.3242  0.3647
 2991TIP3    H130388   0.689   2.024  16.588 -2.1152  0.2268  0.5148
 2991TIP3    H230389   0.660   1.962  16.453  0.9184 -0.6553  0.2258
 2992TIP3   OH230390   2.512   0.991   5.479  0.4420  0.3460 -0.2517
 2992TIP3    H130391   2.602   1.019   5.466  0.3097 -0.0013 -2.0285
 2992TIP3    H230392   2.471   1.064   5.526  1.6073  0.5458  0.4774
 2993TIP3   OH230393   0.630   6.189  14.574  0.0080  0.2012  0.1520
 2993TIP3    H130394   0.562   6.209  14.639  1.8648  2.7503  1.3987
 2993TIP3    H230395   0.582   6.179  14.492 -1.9037  1.9101  1.0064
 2994TIP3   OH230396   6.291   3.552  12.306  0.2358  0.1281  0.1765
 2994TIP3    H130397   6.306   3.567  12.213 -0.0912 -0.1119  0.0836
 2994TIP3    H230398   6.315   3.461  12.320 -2.4876 -0.6908 -0.2723
 2995TIP3   OH230399   2.750   5.294   4.616  0.5460  0.1143 -0.4613
 2995TIP3    H130400   2.765   5.275   4.524 -0.5047 -0.6425 -0.4925
 2995TIP3    H230401   2.654   5.298   4.624  0.5943 -1.1935  0.8683
 2996TIP3   OH230402   3.936   1.576   4.556  0.2689  0.7141  0.1169
 2996TIP3    H130403   3.977   1.489   4.559 -1.4366 -0.1161 -0.0812
 2996TIP3    H230404   3.910   1.587   4.464  0.8435  1.6027  0.0629
 2997TIP3   OH230405   5.435   1.563  12.912  0.5340 -0.4359 -0.0566
 2997TIP3    H130406   5.386   1.497  12.863  0.2086 -0.9024  0.8818
 2997TIP3    H230407   5.525   1.554  12.880 -0.0887  0.9164 -2.3093
 2998TIP3   OH230408   0.574   2.614  14.499  0.2336 -0.0286 -0.6062
 2998TIP3    H130409   0.646   2.673  14.475 -0.1673  0.7541  0.0699
 2998TIP3    H230410   0.606   2.570  14.578 -0.4862  1.2128  0.4076
 2999TIP3   OH230411   2.801   4.510   0.129 -0.6018  0.2375  0.2575
 2999TIP3    H130412   2.820   4.573   0.199 -0.2633  0.1627  0.2329
 2999TIP3    H230413   2.884   4.465   0.114 -0.6521  0.3059 -0.2444
 3000TIP3   OH230414   3.404   5.625  16.368  0.5456 -0.0487  0.0210
 3000TIP3    H130415   3.389   5.565  16.295  0.9223 -0.6042  0.4033
 3000TIP3    H230416   3.381   5.711  16.333 -3.0370 -0.7661  0.4002
 3001TIP3   OH230417   5.707   6.076  14.964  0.0524 -0.4324 -0.7017
 3001TIP3    H130418   5.732   6.066  14.872  0.3789  1.1179 -0.8085
 3001TIP3    H230419   5.749   6.158  14.990 -1.1105 -0.2041  0.4703
 3002TIP3   OH230420   6.637   6.302   1.662  1.4064 -0.3676 -0.0512
 3002TIP3    H130421   6.562   6.320   1.718  0.9978  0.7642 -0.9297
 3002TIP3    H230422   6.629   6.210   1.639 -0.4929  0.0842 -1.2510
 3003TIP3   OH230423   6.523   3.722  16.171 -0.1917 -0.1506 -0.1613
 3003TIP3    H130424   6.530   3.782  16.097  0.2392  1.2220  0.9590
 3003TIP3    H230425   6.469   3.650  16.139 -1.1986  1.1099 -1.3573
 3004TIP3   OH230426   4.052   1.257   1.007 -0.0609  0.0576 -0.3431
 3004TIP3    H130427   3.982   1.243   1.071 -1.1082  0.8720 -1.2771
 3004TIP3    H230428   4.085   1.169   0.987 -0.4404 -0.2854  0.5235
 3005TIP3   OH230429   1.708   2.851  14.515 -1.3100  0.0982 -0.6899
 3005TIP3    H130430   1.676   2.854  14.605 -0.2584 -1.3325 -0.2572
 3005TIP3    H230431   1.792   2.896  14.517 -0.8757 -0.6886 -0.7615
 3006TIP3   OH230432   5.701   2.877   6.740  0.0777 -0.2166 -0.0960
 3006TIP3    H130433   5.700   2.949   6.804  1.1871 -0.5574  0.3094
 3006TIP3    H230434   5.793   2.852   6.733  0.0489  0.1052 -2.1596
 3007TIP3   OH230435   1.774   3.833   2.764 -0.1410 -0.1627  0.1252
 3007TIP3    H130436   1.768   3.819   2.669  0.8970  0.8161 -0.1014
 3007TIP3    H230437   1.844   3.774   2.792 -0.7900 -0.8212  0.3700
 3008TIP3   OH230438   1.935   5.042   3.116 -0.2329  0.1896  0.0874
 3008TIP3    H130439   1.942   5.105   3.188  1.1544 -0.0836  0.2026
 3008TIP3    H230440   1.864   5.075   3.062  0.3286  1.7232  0.2704
 3009TIP3   OH230441   1.208   4.809  15.260  0.1469  0.1084  0.0605
 3009TIP3    H130442   1.179   4.859  15.336  1.1885 -0.4433  0.8316
 3009TIP3    H230443   1.136   4.816  15.198  0.3792  2.7877  0.0366
 3010TIP3   OH230444   1.850   5.200   5.441 -0.2407  0.4833 -0.0830
 3010TIP3    H130445   1.901   5.234   5.514 -0.9500  1.0392  0.1670
 3010TIP3    H230446   1.813   5.278   5.399  1.4683  0.2948 -2.0251
 3011TIP3   OH230447   6.316   1.170   2.897  0.3770 -0.2255  0.1849
 3011TIP3    H130448   6.318   1.078   2.871  2.0316  0.1798 -1.2855
 3011TIP3    H230449   6.355   1.172   2.984  0.4954 -0.9035  0.1466
 3012TIP3   OH230450   2.630   3.792   3.949 -0.0714  0.3351 -0.0184
 3012TIP3    H130451   2.639   3.872   3.898 -1.2578  1.7549  1.9317
 3012TIP3    H230452   2.720   3.767   3.971  0.3419  0.6870 -1.2685
 3013TIP3   OH230453   4.034   5.071  15.677 -0.0883  0.0388  0.3130
 3013TIP3    H130454   3.963   5.080  15.742  0.0886  2.0271  0.2487
 3013TIP3    H230455   4.114   5.074  15.729 -0.0116 -1.3573  0.2926
 3014TIP3   OH230456   3.838   0.341  12.754  0.1385  0.4618 -0.3745
 3014TIP3    H130457   3.836   0.251  12.724  2.5719  0.6133 -1.1356
 3014TIP3    H230458   3.746   0.368  12.758 -0.5044 -1.3362 -2.2830
 3015TIP3   OH230459   5.047   4.144   1.258 -0.0302  0.3369 -0.4963
 3015TIP3    H130460   5.135   4.121   1.228 -0.7763 -0.8335 -1.8962
 3015TIP3    H230461   5.038   4.099   1.342  0.3449 -0.4282 -0.8528
 3016TIP3   OH230462   4.235   6.349   1.419  0.0562  0.0112  0.0154
 3016TIP3    H130463   4.256   6.394   1.337 -0.0085 -0.2937 -0.1685
 3016TIP3    H230464   4.220   6.420   1.482  2.3809  0.2499  0.3465
 3017TIP3   OH230465   2.059   3.035  11.647  0.2163  0.7311 -0.7650
 3017TIP3    H130466   2.050   2.941  11.630 -0.4702  0.6550 -0.0382
 3017TIP3    H230467   1.999   3.051  11.720  2.8261  1.0820  1.3879
 3018TIP3   OH230468   5.169   6.014  12.936 -0.5195  0.2202  0.7625
 3018TIP3    H130469   5.120   5.935  12.913  0.8217 -0.6543  0.8421
 3018TIP3    H230470   5.121   6.086  12.895 -0.3006 -0.9049 -1.5166
 3019TIP3   OH230471   1.504   3.398  13.436 -0.1195  0.3484 -0.0372
 3019TIP3    H130472   1.517   3.491  13.453 -0.9274  0.1621  1.7658
 3019TIP3    H230473   1.572   3.375  13.372  0.2865  2.0942 -0.2516
 3020TIP3   OH230474   2.193   2.608  16.593 -0.2669 -0.2938 -0.0026
 3020TIP3    H130475   2.246   2.683  16.620  2.0935 -1.5880 -0.9733
 3020TIP3    H230476   2.121   2.646  16.543  0.6208  1.3442 -0.0574
 3021TIP3   OH230477   4.346   6.554   0.945 -0.1422 -0.6128  0.3863
 3021TIP3    H130478   4.252   6.542   0.951 -0.1006 -1.3675 -0.3633
 3021TIP3    H230479   4.358   6.622   0.879 -0.1472 -0.8469  0.1427
 3022TIP3   OH230480   0.022   3.779  13.499 -0.1517 -0.0784  0.3286
 3022TIP3    H130481  -0.019   3.748  13.418  1.6724  0.4752 -0.8547
 3022TIP3    H230482  -0.006   3.870  13.507 -0.0405 -0.0226  0.1042
 3023TIP3   OH230483   0.231   0.270   2.914 -0.7486  0.6000  0.6005
 3023TIP3    H130484   0.239   0.363   2.935 -0.3823  0.6068  0.4436
 3023TIP3    H230485   0.317   0.234   2.935 -0.2432  0.6909 -1.2551
 3024TIP3   OH230486   1.405   5.703   4.710  0.2245 -0.1505 -0.0928
 3024TIP3    H130487   1.439   5.743   4.629  1.3506  1.5494  1.1755
 3024TIP3    H230488   1.325   5.659   4.683  0.3808  0.7162 -2.0859
 3025TIP3   OH230489   0.247   1.158  14.163 -0.3918  0.1375 -0.2061
 3025TIP3    H130490   0.176   1.192  14.108 -0.4900  1.2881  0.6240
 3025TIP3    H230491   0.212   1.160  14.252  0.9774  1.4762  0.3132
 3026TIP3   OH230492   5.988   4.516   4.992 -0.3945 -0.2314 -0.1630
 3026TIP3    H130493   5.911   4.489   4.942  0.2830 -2.8474  0.1381
 3026TIP3    H230494   6.051   4.543   4.925 -0.4953 -0.9913 -0.5698
 3027TIP3   OH230495   0.463   5.464   3.545 -0.3614  0.1880 -0.4623
 3027TIP3    H130496   0.550   5.497   3.522 -0.5683  0.6785 -0.5256
 3027TIP3    H230497   0.437   5.410   3.471  0.8219 -1.7350  0.4805
 3028TIP3   OH230498   2.422   3.604   4.767  0.5461 -0.3809 -0.3656
 3028TIP3    H130499   2.396   3.687   4.807  0.3331 -1.2532  1.3438
 3028TIP3    H230500   2.347   3.547   4.778  1.2760 -1.3025 -0.0882
 3029TIP3   OH230501   6.100   3.985   5.186 -0.0160  0.6120 -0.0216
 3029TIP3    H130502   6.084   4.078   5.168 -1.7414  0.8075  2.2638
 3029TIP3    H230503   6.185   3.984   5.230  0.7894  0.8991 -1.5322
 3030TIP3   OH230504   6.647   5.838  16.908  0.4182  0.0258 -0.1571
 3030TIP3    H130505   6.600   5.848  16.990  0.6339  0.0238 -0.0338
 3030TIP3    H230506   6.737   5.817  16.934  0.4643 -0.0719 -0.3934
 3031TIP3   OH230507   2.404   6.451  15.791  0.1180  1.1487  0.2271
 3031TIP3    H130508   2.389   6.531  15.841  1.7884  0.8948  1.1702
 3031TIP3    H230509   2.459   6.397  15.848 -0.0244 -0.1939 -0.8684
 3032TIP3   OH230510   3.676   3.241  11.600 -0.1382  0.0231 -0.1470
 3032TIP3    H130511   3.703   3.149  11.598 -1.1241 -0.2480 -1.0323
 3032TIP3    H230512   3.696   3.270  11.689  2.4613 -0.3569 -0.5616
 3033TIP3   OH230513   2.119   1.199  15.299 -0.9562 -0.2041 -0.4680
 3033TIP3    H130514   2.068   1.243  15.367 -1.3851 -2.2297  0.5471
 3033TIP3    H230515   2.065   1.208  15.220 -2.3563 -1.2991  0.3401
 3034TIP3   OH230516   0.811   5.831   0.571 -0.9209 -0.4456  0.1412
 3034TIP3    H130517   0.769   5.752   0.537  0.6019 -0.5847 -1.5008
 3034TIP3    H230518   0.892   5.839   0.521 -0.9436  2.0397  0.3950
 3035TIP3   OH230519   4.877   5.663   1.419  0.7193 -0.0877 -0.8545
 3035TIP3    H130520   4.876   5.694   1.510 -0.6925  0.6431 -1.1020
 3035TIP3    H230521   4.795   5.696   1.381  0.7502 -1.3289 -2.0764
 3036TIP3   OH230522   3.042   0.392  15.352 -0.3630  0.3046  0.2582
 3036TIP3    H130523   3.037   0.487  15.363  1.4107  0.1268  3.4200
 3036TIP3    H230524   2.956   0.359  15.379  0.0969  0.8253  2.4668
 3037TIP3   OH230525   2.455   2.285  16.451 -0.5145  0.3140  0.0275
 3037TIP3    H130526   2.414   2.276  16.538  1.1715 -0.3664  0.7687
 3037TIP3    H230527   2.408   2.223  16.396 -0.6710 -0.2875  0.8158
 3038TIP3   OH230528   1.618   3.870  13.400 -0.0646  0.4324 -0.4259
 3038TIP3    H130529   1.682   3.938  13.380 -1.3032  1.2096 -1.9299
 3038TIP3    H230530   1.543   3.918  13.437  0.4087 -0.5186  1.8394
 3039TIP3   OH230531   1.818   6.096  12.585 -0.3177  0.9522  0.3742
 3039TIP3    H130532   1.842   6.182  12.551  0.1180  0.2335 -1.1753
 3039TIP3    H230533   1.901   6.048  12.590 -0.6806  0.3049  0.3299
 3040TIP3   OH230534   2.103   1.512   5.213 -0.9090 -0.1608 -0.0759
 3040TIP3    H130535   2.193   1.542   5.199 -0.2174 -2.1098  0.0691
 3040TIP3    H230536   2.062   1.515   5.126 -0.9965  1.6065  0.0114
 3041TIP3   OH230537   1.336   1.426   5.805 -0.2038 -0.3327  0.7723
 3041TIP3    H130538   1.243   1.447   5.796  0.1785  1.4134  0.5809
 3041TIP3    H230539   1.340   1.363   5.877 -1.6828 -1.7460 -0.3403
 3042TIP3   OH230540   4.923   2.072   3.749 -0.1005 -0.4389 -0.1599
 3042TIP3    H130541   4.843   2.025   3.727 -0.2585 -0.1689 -0.1729
 3042TIP3    H230542   4.896   2.164   3.752 -0.0943 -0.4662  1.1769
 3043TIP3   OH230543   0.555   6.412   0.354 -0.2293  0.3056  0.2865
 3043TIP3    H130544   0.569   6.451   0.268 -0.1841 -1.7299 -0.6541
 3043TIP3    H230545   0.642   6.408   0.393  0.3980 -2.6072 -1.2909
 3044TIP3   OH230546   2.098   4.000  16.614 -0.1269  0.0537 -0.3843
 3044TIP3    H130547   2.022   3.942  16.607 -0.8372  1.0796 -1.4290
 3044TIP3    H230548   2.065   4.086  16.587  1.1558  0.7321  0.1607
 3045TIP3   OH230549   1.164   1.614   5.623 -0.1769 -0.3714 -0.8842
 3045TIP3    H130550   1.249   1.575   5.603  0.0008 -0.1179 -0.6245
 3045TIP3    H230551   1.102   1.542   5.617  0.1920 -0.7564 -0.0933
 3046TIP3   OH230552   5.567   5.584   4.281 -0.0529 -0.4938 -0.0510
 3046TIP3    H130553   5.627   5.517   4.313 -0.4336 -0.2490  1.1970
 3046TIP3    H230554   5.480   5.544   4.290 -0.3321  0.3866  1.2855
 3047TIP3   OH230555   6.432   6.663   3.381  0.3485  0.4601  0.0974
 3047TIP3    H130556   6.344   6.628   3.392 -0.5663  2.6265 -0.1528
 3047TIP3    H230557   6.452   6.647   3.289  0.3541 -0.2982  0.2227
 3048TIP3   OH230558   2.242   2.927   1.479  0.2472 -0.0588 -0.1076
 3048TIP3    H130559   2.164   2.872   1.477 -0.1885  0.5645 -0.5000
 3048TIP3    H230560   2.303   2.885   1.419 -0.9294  1.1293 -2.1808
 3049TIP3   OH230561   6.592   1.748  13.724 -0.0505 -0.6680  0.7392
 3049TIP3    H130562   6.531   1.694  13.773 -1.3207  0.4362  0.4201
 3049TIP3    H230563   6.642   1.795  13.790  0.7332 -1.8589  1.0074
 3050TIP3   OH230564   1.445   4.715   1.148 -0.0401  0.1393 -0.3330
 3050TIP3    H130565   1.433   4.681   1.059 -1.1631  0.8333 -0.4557
 3050TIP3    H230566   1.477   4.804   1.136  1.1730 -0.2482 -0.0232
 3051TIP3   OH230567   2.920   0.896   0.566 -0.0554  0.5414  0.3719
 3051TIP3    H130568   2.895   0.882   0.657  0.4858 -1.1803  0.2644
 3051TIP3    H230569   2.848   0.858   0.515 -0.0138  0.8615  0.0665
 3052TIP3   OH230570   4.521   2.549   3.213  0.2028 -0.2819 -0.0497
 3052TIP3    H130571   4.538   2.643   3.222  0.0468 -0.3956  1.6503
 3052TIP3    H230572   4.599   2.507   3.249  1.8358 -0.8499 -4.0197
 3053TIP3   OH230573   3.835   0.985   1.511  0.5024 -0.2706 -0.3156
 3053TIP3    H130574   3.750   1.001   1.470  0.5179  0.7007  0.0142
 3053TIP3    H230575   3.837   1.044   1.586  2.0026  0.6344 -1.0562
 3054TIP3   OH230576   3.167   1.186  13.935 -0.1372 -0.2992 -0.1585
 3054TIP3    H130577   3.210   1.176  14.020 -2.1539 -1.3338  0.7758
 3054TIP3    H230578   3.228   1.148  13.872 -0.2105 -2.9169  1.2954
 3055TIP3   OH230579   2.905   5.879   2.617 -0.4093  0.0213  0.6885
 3055TIP3    H130580   2.820   5.921   2.629 -0.7182 -0.7134  1.1342
 3055TIP3    H230581   2.909   5.857   2.524 -0.1583  1.2061  0.4131
 3056TIP3   OH230582   5.505   3.515   2.771 -0.3318  0.3359 -0.0269
 3056TIP3    H130583   5.518   3.428   2.809 -1.5941  0.7907  1.4760
 3056TIP3    H230584   5.418   3.511   2.731 -0.0654  0.6669 -0.6416
 3057TIP3   OH230585   0.520   1.442   0.949 -0.0728 -0.2329  0.1015
 3057TIP3    H130586   0.589   1.408   0.893 -0.1004 -0.4585  0.1994
 3057TIP3    H230587   0.477   1.509   0.896  1.8516  1.7418  0.9968
 3058TIP3   OH230588   6.278   4.182   3.498 -0.2226 -0.0663 -0.0759
 3058TIP3    H130589   6.250   4.252   3.557 -1.3202  1.1591 -2.0392
 3058TIP3    H230590   6.320   4.118   3.556  1.6753  2.6329  1.6508
 3059TIP3   OH230591   5.570   4.556  14.330 -0.2840 -0.0253  0.1796
 3059TIP3    H130592   5.654   4.512  14.324 -1.2120 -1.6393 -1.5586
 3059TIP3    H230593   5.588   4.645  14.299  1.1651  0.2385  1.7132
 3060TIP3   OH230594   1.933   2.318  11.976 -0.3356  0.4712  0.4269
 3060TIP3    H130595   1.978   2.238  11.948  0.5682  1.2346 -0.3001
 3060TIP3    H230596   1.866   2.287  12.038  0.2081 -0.8151  0.3839
 3061TIP3   OH230597   3.141   1.907   4.190 -0.1900  0.3932  0.3384
 3061TIP3    H130598   3.212   1.931   4.131  0.5283 -0.5248  0.8248
 3061TIP3    H230599   3.067   1.890   4.132  0.5969 -0.8006 -0.3207
 3062TIP3   OH230600   6.750   2.077   0.459  0.3172  0.7567  0.0958
 3062TIP3    H130601   6.727   2.153   0.406  0.3063  1.7279  1.4484
 3062TIP3    H230602   6.670   2.026   0.465  0.2821  0.7153 -0.6913
 3063TIP3   OH230603   3.177   3.858  13.023  0.5677  0.0255 -0.4940
 3063TIP3    H130604   3.269   3.858  13.048  0.0731 -1.2616  1.4023
 3063TIP3    H230605   3.130   3.880  13.103 -0.8858 -1.1385 -1.0133
 3064TIP3   OH230606   5.229   6.577  15.027 -0.2065 -0.4412  0.1322
 3064TIP3    H130607   5.140   6.555  15.002  0.4566  0.8257 -3.5872
 3064TIP3    H230608   5.223   6.666  15.064 -0.0869  0.9971 -3.1593
 3065TIP3   OH230609   4.564   3.587  12.704  0.5250  0.1349  0.4993
 3065TIP3    H130610   4.534   3.559  12.791 -0.3698  0.9832  0.4611
 3065TIP3    H230611   4.554   3.509  12.650 -0.5391  0.0919  0.7526
 3066TIP3   OH230612   3.282   2.124   5.321 -0.6523  0.1105 -0.2660
 3066TIP3    H130613   3.297   2.031   5.341  1.2594  0.5065  0.2366
 3066TIP3    H230614   3.361   2.151   5.273 -1.2853  1.4313 -0.5781
 3067TIP3   OH230615   2.733   5.752  15.892  0.6332 -0.1542  0.5728
 3067TIP3    H130616   2.818   5.737  15.934  0.6692  1.8055  1.2287
 3067TIP3    H230617   2.670   5.708  15.949  1.0062 -0.0375  1.0762
 3068TIP3   OH230618   6.458   3.039   6.045  0.4948 -0.8794  0.0542
 3068TIP3    H130619   6.503   3.091   6.111 -0.7123 -2.5705  2.2749
 3068TIP3    H230620   6.464   2.949   6.077 -0.6228 -1.6589 -1.8492
 3069TIP3   OH230621   1.031   5.394   4.592  0.1118 -0.3184 -0.5280
 3069TIP3    H130622   1.075   5.336   4.654  0.1774  1.7276  1.3621
 3069TIP3    H230623   1.081   5.384   4.511  1.5601 -1.1154  0.4342
 3070TIP3   OH230624   5.879   1.394  13.853  0.2639 -0.0968  0.3421
 3070TIP3    H130625   5.866   1.376  13.760 -2.2175  3.0374 -0.0096
 3070TIP3    H230626   5.801   1.359  13.896 -0.1351  1.2973  0.7975
 3071TIP3   OH230627   0.484   4.906  15.384 -0.3414  0.5186  0.0431
 3071TIP3    H130628   0.427   4.982  15.394 -0.0777  0.7790 -0.4518
 3071TIP3    H230629   0.519   4.913  15.295  0.6032  0.4629  0.3968
 3072TIP3   OH230630   5.178   0.316   3.871 -0.3485 -0.5416 -0.9949
 3072TIP3    H130631   5.202   0.298   3.780 -0.7237 -2.1368 -0.7935
 3072TIP3    H230632   5.131   0.237   3.899 -0.7237  0.1758  0.4046
 3073TIP3   OH230633   3.935   2.968   0.187 -0.8786 -0.4013 -0.0545
 3073TIP3    H130634   3.843   2.942   0.188 -1.6579  2.1701 -0.3416
 3073TIP3    H230635   3.932   3.063   0.178  1.8277 -0.3225 -0.3606
 3074TIP3   OH230636   1.916   4.227   5.897 -0.5759 -0.0050 -0.0143
 3074TIP3    H130637   1.931   4.135   5.875  0.5467  0.2150 -0.1833
 3074TIP3    H230638   1.951   4.276   5.822  2.7360  0.7170  1.8744
 3075TIP3   OH230639   5.358   6.588   0.411  0.1651  0.3743  0.3605
 3075TIP3    H130640   5.315   6.559   0.491  0.1760  1.0269  0.6096
 3075TIP3    H230641   5.309   6.545   0.340 -0.7383  0.9028  0.6533
 3076TIP3   OH230642   3.914   5.196   3.404  0.4578  0.0187 -0.8763
 3076TIP3    H130643   4.007   5.216   3.391  1.4401 -3.0316  1.1557
 3076TIP3    H230644   3.904   5.187   3.498 -1.7388 -0.6123 -1.1446
 3077TIP3   OH230645   0.036   2.334   2.199 -0.0211  0.1195  0.2569
 3077TIP3    H130646   0.028   2.400   2.131 -0.6068  0.4972  0.6857
 3077TIP3    H230647   0.012   2.252   2.156 -0.3596  0.3525 -0.0064
 3078TIP3   OH230648   1.866   4.761   5.809 -0.3650  0.2005  0.6449
 3078TIP3    H130649   1.818   4.781   5.890 -0.4801 -1.8860  1.1154
 3078TIP3    H230650   1.837   4.829   5.748 -1.3121  1.0090  1.9462
 3079TIP3   OH230651   5.709   2.893  15.353 -0.8458  0.1450 -0.4561
 3079TIP3    H130652   5.614   2.890  15.346 -0.8891 -1.7930  0.5698
 3079TIP3    H230653   5.737   2.803  15.339  0.9118  0.8299 -1.5226
 3080TIP3   OH230654   3.687   3.577   0.815 -0.2134 -0.2812  0.5540
 3080TIP3    H130655   3.639   3.660   0.817 -0.9582 -0.7398  1.6922
 3080TIP3    H230656   3.689   3.553   0.722 -2.2176 -0.2861  0.4958
 3081TIP3   OH230657   1.956   3.188   1.854  0.2499 -0.4059 -0.5158
 3081TIP3    H130658   1.959   3.100   1.892 -1.2952  0.1176  0.9282
 3081TIP3    H230659   2.037   3.230   1.883  0.3086 -0.8918  0.0424
 3082TIP3   OH230660   0.008   3.737  12.043 -0.0095  0.5975  0.7521
 3082TIP3    H130661  -0.021   3.823  12.071  0.4468  1.1548 -0.4423
 3082TIP3    H230662   0.102   3.736  12.062  0.7892  1.8487 -2.7375
 3083TIP3   OH230663   2.576   4.378   0.088 -0.0664  0.1229 -0.0611
 3083TIP3    H130664   2.653   4.430   0.114  0.1471 -0.6334  0.8317
 3083TIP3    H230665   2.585   4.369  -0.007 -0.3228  2.0553 -0.3011
 3084TIP3   OH230666   5.856   1.716   5.224 -0.1290 -0.0858 -0.3048
 3084TIP3    H130667   5.826   1.756   5.306  1.4277  1.0815 -0.2687
 3084TIP3    H230668   5.791   1.649   5.204  0.9608 -2.4989  3.4902
 3085TIP3   OH230669   0.118   3.618   5.464 -0.4609  0.6287 -0.4872
 3085TIP3    H130670   0.129   3.556   5.392 -1.0858  1.0931 -0.9882
 3085TIP3    H230671   0.148   3.702   5.428 -1.2599  0.9640 -0.3746
 3086TIP3   OH230672   5.678   3.848  10.486  0.7889  0.1445 -0.0009
 3086TIP3    H130673   5.600   3.899  10.507  1.9192  0.7376  2.8859
 3086TIP3    H230674   5.749   3.912  10.484  1.5719 -0.7140 -0.4998
 3087TIP3   OH230675   0.925   6.709  13.725  0.0613  0.6975  0.1293
 3087TIP3    H130676   0.835   6.694  13.755  0.0264 -0.3926 -0.4649
 3087TIP3    H230677   0.975   6.640  13.768  1.0427  2.6797  2.2810
 3088TIP3   OH230678   6.391   6.237  16.332  0.3993 -0.7725 -0.2555
 3088TIP3    H130679   6.415   6.305  16.269  0.6310 -1.3218 -0.7609
 3088TIP3    H230680   6.365   6.285  16.411 -0.0709 -0.0807 -0.8357
 3089TIP3   OH230681   4.925   4.418   4.197 -0.8882 -0.0329 -0.2884
 3089TIP3    H130682   4.838   4.380   4.211 -0.6303 -1.2305 -1.8503
 3089TIP3    H230683   4.908   4.497   4.145 -1.1762  0.6245  0.7794
 3090TIP3   OH230684   1.450   3.071   3.393  0.2394 -0.3370  0.0628
 3090TIP3    H130685   1.472   2.979   3.375  0.9785  0.3155 -2.6024
 3090TIP3    H230686   1.366   3.084   3.349  0.0656  0.2082  0.5689
 3091TIP3   OH230687   5.820   0.479   3.610  0.4533 -0.8349  0.1200
 3091TIP3    H130688   5.876   0.470   3.687 -1.1650 -1.8159  1.2003
 3091TIP3    H230689   5.777   0.563   3.621 -0.2347 -1.2440  0.6108
 3092TIP3   OH230690   4.183   3.204  13.177  0.5967 -0.0607  0.1820
 3092TIP3    H130691   4.243   3.134  13.203 -1.1287 -1.0580  1.5861
 3092TIP3    H230692   4.121   3.162  13.116  1.0504  0.8603 -0.9486
 3093TIP3   OH230693   2.407   4.784  16.649 -0.4194  0.0604  0.0561
 3093TIP3    H130694   2.328   4.831  16.676 -0.0961  0.4244  0.3674
 3093TIP3    H230695   2.428   4.819  16.563  0.3568  1.1832  0.6781
 3094TIP3   OH230696   1.047   2.709   4.113 -0.0620  0.0307 -0.1606
 3094TIP3    H130697   1.033   2.710   4.208 -0.9212  0.5339 -0.2891
 3094TIP3    H230698   0.988   2.776   4.079  0.6136  0.2080 -1.0086
 3095TIP3   OH230699   0.650   1.389  13.245  0.2163  0.6454 -0.1458
 3095TIP3    H130700   0.634   1.339  13.165 -2.3315 -0.1682  0.8189
 3095TIP3    H230701   0.698   1.329  13.302  0.3487  0.5645 -0.3423
 3096TIP3   OH230702   3.222   6.341   5.927 -0.3809  0.5894 -0.4916
 3096TIP3    H130703   3.285   6.403   5.964  0.1861  0.4436 -1.2271
 3096TIP3    H230704   3.274   6.267   5.898 -0.7211  1.0928 -2.4395
 3097TIP3   OH230705   5.491   4.252  15.434  0.7659 -0.5765  0.2876
 3097TIP3    H130706   5.531   4.166  15.430  2.1365 -0.0351  1.9210
 3097TIP3    H230707   5.404   4.237  15.471  0.2613 -1.4730 -1.2184
 3098TIP3   OH230708   4.380   2.656   4.599  0.2006 -0.3441 -0.2366
 3098TIP3    H130709   4.393   2.561   4.589  2.8063 -0.3087  2.2756
 3098TIP3    H230710   4.373   2.669   4.693 -2.0545  1.7939 -0.6525
 3099TIP3   OH230711   3.373   6.187  17.218  0.0679  0.2910 -0.1660
 3099TIP3    H130712   3.413   6.265  17.258  0.8430 -0.0742 -0.2062
 3099TIP3    H230713   3.410   6.184  17.130  0.6643 -0.5641  0.1057
 3100TIP3   OH230714   4.984   0.675  15.772 -0.0346 -0.4831  0.0957
 3100TIP3    H130715   5.079   0.690  15.773  0.1068 -1.3516  1.1890
 3100TIP3    H230716   4.957   0.685  15.863 -1.2769  1.3738 -0.4414
 3101TIP3   OH230717   1.501   5.818  14.658 -0.1067 -0.2213  0.3414
 3101TIP3    H130718   1.583   5.858  14.688  0.1032 -1.6114  1.6940
 3101TIP3    H230719   1.522   5.725  14.649 -1.1631 -0.3696 -0.6787
 3102TIP3   OH230720   5.459   4.407   0.094  0.2451 -0.2545  0.1856
 3102TIP3    H130721   5.403   4.473   0.134  0.5353  0.4057 -0.4718
 3102TIP3    H230722   5.496   4.359   0.167 -1.0322 -0.5738  0.6357
 3103TIP3   OH230723   2.369   0.081  16.928  0.5263 -0.4724  0.1360
 3103TIP3    H130724   2.308   0.076  17.001  0.0895 -3.4001 -0.3639
 3103TIP3    H230725   2.348   0.163  16.885 -2.1742 -0.7816  0.7668
 3104TIP3   OH230726   5.808   0.559  16.201 -0.0253 -0.2957 -0.5453
 3104TIP3    H130727   5.782   0.469  16.220 -1.5309  0.2886  0.2188
 3104TIP3    H230728   5.728   0.611  16.213  1.5683  1.6221  2.4657
 3105TIP3   OH230729   5.505   4.747   1.539 -0.6162  0.0997 -0.4008
 3105TIP3    H130730   5.420   4.751   1.585  0.4777 -0.7147  1.7669
 3105TIP3    H230731   5.499   4.815   1.472 -2.9283  0.1743 -0.1640
 3106TIP3   OH230732   5.955   1.418   2.051 -0.3962  0.1050 -0.5447
 3106TIP3    H130733   6.051   1.417   2.056 -0.3095  0.2105 -1.9481
 3106TIP3    H230734   5.933   1.507   2.024 -0.6558 -0.8520 -3.7739
 3107TIP3   OH230735   5.244   4.760   3.978  0.6240 -0.0427 -0.1066
 3107TIP3    H130736   5.193   4.801   4.048  0.0977 -2.6164  1.1014
 3107TIP3    H230737   5.334   4.759   4.011  1.1806  2.7588 -1.4162
 3108TIP3   OH230738   3.046   1.806   1.695 -0.4366 -0.4417  0.1133
 3108TIP3    H130739   3.006   1.738   1.640 -1.0128 -0.5570  0.6553
 3108TIP3    H230740   3.094   1.862   1.635 -0.5737 -0.9090 -0.4297
 3109TIP3   OH230741   4.323   1.142   3.799 -0.3057  0.1697 -0.0766
 3109TIP3    H130742   4.245   1.170   3.847 -0.6397  1.4031 -1.3302
 3109TIP3    H230743   4.297   1.144   3.707  1.9123  2.9232 -0.6992
 3110TIP3   OH230744   4.880   1.048   1.772 -0.4315 -0.0637 -0.2146
 3110TIP3    H130745   4.805   1.069   1.827  0.6133  2.7284  0.2463
 3110TIP3    H230746   4.953   1.094   1.813  1.1120 -1.0289 -1.8269
 3111TIP3   OH230747   5.292   0.252  11.577 -0.0229  0.0871 -0.4199
 3111TIP3    H130748   5.341   0.284  11.653 -1.7386  0.3811  0.5818
 3111TIP3    H230749   5.341   0.285  11.501  1.5817 -0.0156  0.5475
 3112TIP3   OH230750   1.480   6.493  14.052 -0.0466 -0.5301 -0.7231
 3112TIP3    H130751   1.572   6.485  14.077 -0.0635 -0.2211 -0.5568
 3112TIP3    H230752   1.460   6.586  14.065 -0.5251 -0.6968 -0.2704
 3113TIP3   OH230753   5.000   4.597  14.545 -0.1571 -0.2122  0.0226
 3113TIP3    H130754   4.970   4.685  14.521  0.0933  0.7782  3.1288
 3113TIP3    H230755   5.088   4.611  14.579 -0.2305 -1.6318  0.8183
 3114TIP3   OH230756   5.511   2.844  11.929  0.6594  0.1513 -0.0741
 3114TIP3    H130757   5.593   2.892  11.921  2.3411 -2.3866  1.1008
 3114TIP3    H230758   5.524   2.767  11.872 -2.2681  1.4223 -2.5875
 3115TIP3   OH230759   4.042   2.068   4.140 -0.4483  0.4384  0.0416
 3115TIP3    H130760   4.109   2.133   4.160 -0.7839  0.6539  0.4704
 3115TIP3    H230761   4.042   2.010   4.217  0.2632 -0.4250 -0.5840
 3116TIP3   OH230762   4.029   6.495  11.370 -0.4295  0.6158 -0.6666
 3116TIP3    H130763   3.999   6.422  11.315 -1.3651 -0.5460  1.3447
 3116TIP3    H230764   3.952   6.521  11.419  0.1078  2.4676 -0.7858
 3117TIP3   OH230765   2.702   6.202   0.202  0.0483  0.5788 -0.0985
 3117TIP3    H130766   2.707   6.108   0.183 -0.8017  0.1803  1.5361
 3117TIP3    H230767   2.793   6.228   0.219  0.1825 -0.1546  0.3467
 3118TIP3   OH230768   2.327   4.730   1.200 -0.4678 -0.2054  0.4364
 3118TIP3    H130769   2.267   4.689   1.137  1.4696 -1.3308 -0.7226
 3118TIP3    H230770   2.393   4.773   1.145 -0.0551  0.7613  1.6932
 3119TIP3   OH230771   3.448   1.814   0.737  0.2497  0.1118 -0.2937
 3119TIP3    H130772   3.376   1.778   0.685  0.8638 -2.4664  0.5760
 3119TIP3    H230773   3.405   1.876   0.796 -0.5272  2.6747 -3.4157
 3120TIP3   OH230774   2.966   1.585   3.212  0.5887 -0.7464 -0.3613
 3120TIP3    H130775   3.056   1.565   3.237 -0.0251 -2.6655  0.3805
 3120TIP3    H230776   2.959   1.558   3.120  0.5031 -1.5328 -0.1282
 3121TIP3   OH230777   2.563   5.582  16.048 -0.0582 -0.0938  0.4576
 3121TIP3    H130778   2.592   5.527  16.121  0.2390 -1.3112 -0.5541
 3121TIP3    H230779   2.490   5.533  16.009  1.1045 -0.4874 -1.3051
 3122TIP3   OH230780   1.268   4.701  16.910 -0.3443 -0.0462  0.2638
 3122TIP3    H130781   1.226   4.771  16.960  0.8224  1.3915 -0.7501
 3122TIP3    H230782   1.248   4.621  16.959 -1.3053  1.0467  1.6709
 3123TIP3   OH230783   2.260   1.687   1.175  0.2267  0.1593 -0.0511
 3123TIP3    H130784   2.344   1.730   1.158 -0.6925  1.1624 -2.1868
 3123TIP3    H230785   2.284   1.595   1.192  1.8338  0.6476  0.4674
 3124TIP3   OH230786   2.621   2.231  11.415 -0.5270  0.3459 -0.2481
 3124TIP3    H130787   2.659   2.147  11.442 -1.3124  0.6824  2.0184
 3124TIP3    H230788   2.696   2.287  11.397  0.0111 -0.3623 -0.2418
 3125TIP3   OH230789   6.119   4.311   3.699  0.3153 -0.8916 -0.5511
 3125TIP3    H130790   6.080   4.228   3.726 -1.2476 -0.0028  0.0011
 3125TIP3    H230791   6.137   4.357   3.781  0.9731 -0.5975 -0.8583
 3126TIP3   OH230792   0.013   1.135   2.875  0.5720 -0.1284 -0.3015
 3126TIP3    H130793   0.015   1.147   2.780  0.1100 -0.5847 -0.3677
 3126TIP3    H230794  -0.011   1.222   2.909 -0.2653 -0.2104 -0.6572
 3127TIP3   OH230795   5.618   3.979   1.926  0.4759  0.0256 -0.6032
 3127TIP3    H130796   5.600   3.953   2.017  0.1877  0.4727 -0.5288
 3127TIP3    H230797   5.556   3.928   1.874 -0.0978  0.5619 -0.4565
 3128TIP3   OH230798   0.826   2.761  11.636 -0.2337 -0.1427 -0.4931
 3128TIP3    H130799   0.880   2.814  11.577 -0.7273 -0.3042 -1.0960
 3128TIP3    H230800   0.833   2.805  11.721  0.5079  0.0741 -0.6577
 3129TIP3   OH230801   2.506   6.692   0.887 -0.6322  0.3246 -0.0526
 3129TIP3    H130802   2.419   6.676   0.851 -0.9525  0.3555  0.7043
 3129TIP3    H230803   2.495   6.680   0.982 -0.2674  2.3095  0.2446
 3130TIP3   OH230804   3.208   4.706  13.923  0.2238 -0.3358  0.0678
 3130TIP3    H130805   3.155   4.676  13.849 -1.1941 -0.1904  1.0102
 3130TIP3    H230806   3.247   4.627  13.959 -0.6063 -0.6224  0.3312
 3131TIP3   OH230807   5.467   6.756   3.315 -0.2556 -0.1277  0.1128
 3131TIP3    H130808   5.531   6.818   3.351 -0.9545 -0.7025  2.4785
 3131TIP3    H230809   5.383   6.784   3.352 -0.7823 -1.6513  0.1149
 3132TIP3   OH230810   0.194   3.838  14.466 -0.4787  0.3251 -0.0866
 3132TIP3    H130811   0.133   3.815  14.396  0.0409  0.1492 -0.4894
 3132TIP3    H230812   0.264   3.886  14.422  0.9345 -1.6547 -0.0624
 3133TIP3   OH230813   4.117   5.118  16.056 -0.0965 -0.2399  0.1160
 3133TIP3    H130814   4.026   5.087  16.054  0.1095 -0.8223 -0.5750
 3133TIP3    H230815   4.118   5.195  15.999 -0.5267  0.8455  1.5300
 3134TIP3   OH230816   6.630   2.342   4.503  1.0671 -0.9088  0.5313
 3134TIP3    H130817   6.686   2.321   4.429  0.9650  0.2093  0.1260
 3134TIP3    H230818   6.548   2.296   4.485  1.6933 -2.1759  0.8988
 3135TIP3   OH230819   6.394   5.800  14.165 -0.5516  0.6788  0.4169
 3135TIP3    H130820   6.340   5.786  14.087 -0.8016  0.0005  0.7071
 3135TIP3    H230821   6.412   5.894  14.165 -1.9392  0.9583  0.4445
 3136TIP3   OH230822   2.262   6.496  12.832  0.2860 -0.6146  0.1596
 3136TIP3    H130823   2.281   6.559  12.902  2.9167  0.6807 -1.6259
 3136TIP3    H230824   2.214   6.547  12.767  0.1846 -1.1186 -0.1585
 3137TIP3   OH230825   3.516   2.387   1.369 -0.6503  0.3091 -0.2983
 3137TIP3    H130826   3.495   2.363   1.459 -1.0903  1.0751 -0.1973
 3137TIP3    H230827   3.434   2.420   1.333 -0.3235  0.5937 -0.7901
 3138TIP3   OH230828   4.026   2.687   1.015  0.2762 -0.3985  0.5091
 3138TIP3    H130829   3.978   2.623   0.962  1.7102 -0.0964 -1.1773
 3138TIP3    H230830   3.979   2.769   1.003  0.5432 -0.3522 -0.2155
 3139TIP3   OH230831   2.573   5.361  16.806  0.1101 -0.1252  0.6542
 3139TIP3    H130832   2.503   5.413  16.767  0.4806 -0.3858 -0.3758
 3139TIP3    H230833   2.538   5.272  16.809 -0.1286 -0.0154  1.4556
 3140TIP3   OH230834   6.420   6.089  14.312  0.1035 -0.1782  0.7392
 3140TIP3    H130835   6.449   6.096  14.221 -0.0118 -2.0842  0.5268
 3140TIP3    H230836   6.339   6.139  14.316  0.9279  1.2275  0.1849
 3141TIP3   OH230837   0.146   0.801   0.008  0.4811 -0.6571  0.1122
 3141TIP3    H130838   0.075   0.835   0.063 -0.6515 -0.6964 -1.3147
 3141TIP3    H230839   0.201   0.878  -0.010  0.0189 -0.3447  0.0345
 3142TIP3   OH230840   4.343   4.175  15.111  0.3356 -0.3094  0.6463
 3142TIP3    H130841   4.264   4.122  15.107  1.4249 -1.9485 -0.0266
 3142TIP3    H230842   4.403   4.124  15.165  1.0724  0.7141  0.8097
 3143TIP3   OH230843   2.280   1.362  10.999 -0.5131 -0.2012  0.0331
 3143TIP3    H130844   2.250   1.276  11.028 -0.2289  0.0337  1.0425
 3143TIP3    H230845   2.351   1.385  11.059  0.2947  0.1620 -1.0461
 3144TIP3   OH230846   5.959   5.160  14.433  0.0292 -0.5026 -0.2510
 3144TIP3    H130847   5.880   5.143  14.483  1.7389  0.3825  2.9282
 3144TIP3    H230848   5.990   5.073  14.406 -1.8973 -0.8545 -1.3687
 3145TIP3   OH230849   3.806   6.663  16.362 -0.1776  0.9019 -0.0172
 3145TIP3    H130850   3.897   6.643  16.384 -0.3166  0.5114  0.2089
 3145TIP3    H230851   3.770   6.580  16.330 -0.4530  1.0528 -0.1027
 3146TIP3   OH230852   6.653   3.441   2.202  0.8404  0.3462 -0.2503
 3146TIP3    H130853   6.558   3.449   2.208  0.9668  1.3767  0.4404
 3146TIP3    H230854   6.680   3.417   2.291  1.1888 -0.4384 -0.5571
 3147TIP3   OH230855   4.930   0.981   2.842  0.8621 -0.2129  0.2966
 3147TIP3    H130856   4.839   0.975   2.871  1.1855  0.9301  1.5850
 3147TIP3    H230857   4.978   0.924   2.902  0.9537 -1.1867 -0.6729
 3148TIP3   OH230858   0.491   3.706   4.186  0.0103 -0.6027  0.3392
 3148TIP3    H130859   0.576   3.677   4.153 -0.0241  0.1490 -0.4251
 3148TIP3    H230860   0.461   3.770   4.122 -0.0013  0.9866  1.9073
 3149TIP3   OH230861   0.630   2.021   5.219 -0.3997  0.6136 -0.2007
 3149TIP3    H130862   0.723   2.000   5.215  0.0673  2.1641  1.6723
 3149TIP3    H230863   0.598   2.005   5.130  1.5079 -0.5122 -0.7171
 3150TIP3   OH230864   2.079   2.051   4.608  0.1018  0.2840  0.0776
 3150TIP3    H130865   2.062   2.031   4.516 -0.3421  1.2444 -0.0510
 3150TIP3    H230866   2.097   1.966   4.648  0.2224 -0.1453 -0.8795
 3151TIP3   OH230867   4.649   6.544  13.209  0.1052  0.1761 -0.1393
 3151TIP3    H130868   4.656   6.456  13.172  0.1216 -0.0632  0.4307
 3151TIP3    H230869   4.710   6.544  13.282  0.6072  0.8750 -0.5463
 3152TIP3   OH230870   4.868   2.205  15.453  0.3075  0.1587 -0.5844
 3152TIP3    H130871   4.925   2.281  15.462  0.2283 -0.0337  1.8466
 3152TIP3    H230872   4.806   2.213  15.525 -2.4168  0.0626 -2.8711
 3153TIP3   OH230873   6.207   0.034  16.669  0.1893 -0.6075  0.0567
 3153TIP3    H130874   6.191  -0.054  16.702  1.6696 -1.1899 -0.7501
 3153TIP3    H230875   6.205   0.026  16.574  2.7317 -0.2714 -0.0720
 3154TIP3   OH230876   4.474   4.584   2.499 -0.0656 -0.0416  0.4490
 3154TIP3    H130877   4.568   4.598   2.494 -0.1041 -0.3168 -1.6290
 3154TIP3    H230878   4.458   4.510   2.440 -1.7912  1.0274 -0.4509
 3155TIP3   OH230879   5.386   2.931   6.738  0.0111  0.3480 -0.1040
 3155TIP3    H130880   5.345   3.017   6.745  0.4141  0.6178 -1.0105
 3155TIP3    H230881   5.476   2.944   6.767 -0.1997  0.0108  0.7223
 3156TIP3   OH230882   1.010   2.148  16.523  0.4693  0.1331 -0.0718
 3156TIP3    H130883   1.094   2.101  16.524 -0.7212 -2.0406  1.3094
 3156TIP3    H230884   0.974   2.130  16.436  0.5018 -0.6610  0.0759
 3157TIP3   OH230885   0.781   5.910   1.362 -0.4786 -0.1774  0.1198
 3157TIP3    H130886   0.709   5.902   1.424 -1.0852  0.1527 -0.5372
 3157TIP3    H230887   0.848   5.961   1.408 -1.4750  1.2326  0.0213
 3158TIP3   OH230888   0.642   0.608   0.099  0.4122 -0.4088 -0.2223
 3158TIP3    H130889   0.667   0.699   0.112 -1.3248  0.3065 -1.7547
 3158TIP3    H230890   0.724   0.560   0.101  1.0788  0.6550  4.4917
 3159TIP3   OH230891   3.260   5.260   0.687  0.2030 -0.5858 -0.0560
 3159TIP3    H130892   3.195   5.313   0.733  0.9856 -0.2654  0.6805
 3159TIP3    H230893   3.344   5.300   0.708  0.7657 -1.8621  0.1668
 3160TIP3   OH230894   6.667   3.510   0.163 -0.0589  0.9158 -0.1723
 3160TIP3    H130895   6.686   3.420   0.138 -0.9698  1.4834 -3.0125
 3160TIP3    H230896   6.574   3.522   0.141 -0.1248  2.3588  0.8167
 3161TIP3   OH230897   4.186   6.494   0.633  0.0839 -0.0381 -0.4647
 3161TIP3    H130898   4.138   6.571   0.600 -0.3799 -1.1065 -2.3533
 3161TIP3    H230899   4.265   6.490   0.579 -1.7189 -3.0567 -3.0110
 3162TIP3   OH230900   6.654   3.962  13.200  0.4576 -0.5573 -0.6928
 3162TIP3    H130901   6.651   3.974  13.105  2.1240  1.1736 -0.5485
 3162TIP3    H230902   6.667   3.867  13.211 -0.6865 -0.9046 -2.1432
 3163TIP3   OH230903   5.083   0.889  13.690  0.0982 -0.6910 -0.2161
 3163TIP3    H130904   5.018   0.878  13.621  0.0591  1.2739 -0.5236
 3163TIP3    H230905   5.051   0.964  13.741  1.3961 -0.5839  0.4491
 3164TIP3   OH230906   2.201   4.236   4.160  0.0490 -0.1046  0.0538
 3164TIP3    H130907   2.173   4.148   4.185  0.8006 -0.1209  0.8568
 3164TIP3    H230908   2.294   4.227   4.141  0.0014  0.4029 -0.4159
 3165TIP3   OH230909   4.786   1.226   5.771 -0.2229 -0.0764 -0.3741
 3165TIP3    H130910   4.827   1.202   5.855  0.1372  0.7717 -0.2978
 3165TIP3    H230911   4.850   1.283   5.729 -0.9179  0.4807 -0.6895
 3166TIP3   OH230912   0.113   1.392   2.033  0.0089  0.2252 -0.1529
 3166TIP3    H130913   0.153   1.342   2.104  1.7900 -0.1835 -1.4222
 3166TIP3    H230914   0.109   1.330   1.960  0.2990  1.3158 -1.1027
 3167TIP3   OH230915   1.554   2.853  14.077 -0.0850 -0.3228 -0.2671
 3167TIP3    H130916   1.470   2.829  14.037 -0.8990  0.7480  0.7619
 3167TIP3    H230917   1.566   2.791  14.149 -0.2270 -0.1717 -0.1135
 3168TIP3   OH230918   1.372   1.061  16.564  0.4223 -0.7805  0.2525
 3168TIP3    H130919   1.286   1.019  16.564 -0.0879  0.2418  0.7709
 3168TIP3    H230920   1.354   1.152  16.540  1.5534 -0.9226 -1.1798
 3169TIP3   OH230921   4.484   3.110   1.158  0.0413 -0.0700  0.5920
 3169TIP3    H130922   4.440   3.059   1.226  1.0042  0.2387  1.4662
 3169TIP3    H230923   4.567   3.136   1.199 -0.5010  2.3366  0.2066
 3170TIP3   OH230924   0.450   5.186  12.370  0.1765  0.5283  0.3049
 3170TIP3    H130925   0.357   5.182  12.349  0.2287  0.1189  0.1486
 3170TIP3    H230926   0.456   5.247  12.443  0.0969  2.8499 -1.5402
 3171TIP3   OH230927   4.550   0.148   0.995  0.1809 -0.4710 -0.5256
 3171TIP3    H130928   4.506   0.162   1.078  0.3733  0.3556 -0.5553
 3171TIP3    H230929   4.480   0.142   0.931  0.1240  2.4819 -0.8123
 3172TIP3   OH230930   0.188   4.890   0.038  0.2908  0.3744  0.4133
 3172TIP3    H130931   0.273   4.913   0.000  0.5125 -0.6479  0.2870
 3172TIP3    H230932   0.167   4.963   0.096  1.5945  0.2786  1.0106
 3173TIP3   OH230933   1.728   4.936  13.223 -0.0219  0.6677  0.1022
 3173TIP3    H130934   1.649   4.905  13.180  0.3187 -0.2412  0.1289
 3173TIP3    H230935   1.697   4.984  13.299 -0.5286 -0.1747  0.4340
 3174TIP3   OH230936   4.681   0.723   5.238  0.4759  0.0069 -0.0225
 3174TIP3    H130937   4.671   0.632   5.208 -0.6424  0.0432  0.2303
 3174TIP3    H230938   4.773   0.743   5.221  0.6299 -1.0318 -0.4836
 3175TIP3   OH230939   5.573   3.346  13.489 -0.0623 -0.0247  0.6991
 3175TIP3    H130940   5.662   3.321  13.516  0.7620  1.2853 -0.7825
 3175TIP3    H230941   5.530   3.262  13.472  1.0477 -0.6630  0.9377
 3176TIP3   OH230942   2.197   6.475   5.964 -0.9036  0.1557 -0.4107
 3176TIP3    H130943   2.260   6.541   5.994 -2.1980  1.4161 -0.4152
 3176TIP3    H230944   2.164   6.435   6.044 -1.0143  0.3630 -0.3524
 3177TIP3   OH230945   3.563   2.945   1.706 -0.4675 -0.1480 -0.2401
 3177TIP3    H130946   3.472   2.974   1.700 -0.1950  0.5056 -1.2708
 3177TIP3    H230947   3.578   2.934   1.800 -1.7655 -0.7717 -0.0934
 3178TIP3   OH230948   0.559   1.997  14.555  0.0005 -0.7019 -0.8735
 3178TIP3    H130949   0.474   2.021  14.593  0.8247  0.5089  0.2180
 3178TIP3    H230950   0.589   1.923  14.608  1.2361  1.1021  1.0275
 3179TIP3   OH230951   2.325   2.464  11.798 -0.2114  0.2028 -0.0584
 3179TIP3    H130952   2.316   2.369  11.809  0.8869 -0.0899 -1.5812
 3179TIP3    H230953   2.380   2.491  11.872 -1.3578 -0.1911  0.9452
 3180TIP3   OH230954   3.117   4.835   4.084 -0.4769 -0.1982  0.2837
 3180TIP3    H130955   3.075   4.826   3.998 -0.3083 -0.7124  0.2575
 3180TIP3    H230956   3.052   4.803   4.146 -1.1186  1.4197  0.4717
 3181TIP3   OH230957   0.317   2.054   4.060 -1.1213 -0.1438 -0.0234
 3181TIP3    H130958   0.252   2.001   4.106  2.1029 -2.1196  2.4461
 3181TIP3    H230959   0.349   1.997   3.990 -1.0262  0.2962 -0.3389
 3182TIP3   OH230960   1.118   2.812  12.304 -0.2474 -0.0110  0.4252
 3182TIP3    H130961   1.132   2.723  12.339  0.6754  0.0976  0.3401
 3182TIP3    H230962   1.178   2.867  12.354 -0.0367  0.3959 -0.2856
 3183TIP3   OH230963   5.107   0.556  16.387  0.4000  0.0533  0.1365
 3183TIP3    H130964   5.139   0.561  16.477  2.5974  0.3229 -0.6186
 3183TIP3    H230965   5.057   0.636  16.374  2.1662  1.2246  0.3745
 3184TIP3   OH230966   2.118   1.190  15.894  0.4842 -0.4021  0.4373
 3184TIP3    H130967   2.073   1.239  15.963  0.3856 -0.5307  0.4618
 3184TIP3    H230968   2.098   1.099  15.912  0.5334 -0.4423  0.2896
 3185TIP3   OH230969   3.128   0.511   1.088 -0.5062 -0.3182  0.0644
 3185TIP3    H130970   3.118   0.419   1.063 -1.1818  0.2700 -1.9704
 3185TIP3    H230971   3.213   0.516   1.130 -1.4979 -2.3280  2.4250
 3186TIP3   OH230972   3.980   3.353   5.173 -0.3210 -0.2723  0.1691
 3186TIP3    H130973   3.937   3.311   5.098 -0.8180 -2.0606  1.4081
 3186TIP3    H230974   4.025   3.281   5.218  0.1608  0.8040  1.4474
 3187TIP3   OH230975   6.397   3.369  13.021  0.6334 -0.7612 -0.1215
 3187TIP3    H130976   6.392   3.346  12.928 -0.1810 -1.0813  0.0028
 3187TIP3    H230977   6.322   3.325  13.061 -0.1398  0.9706  0.3739
 3188TIP3   OH230978   0.642   1.704  13.514  0.2319  0.3701  0.2376
 3188TIP3    H130979   0.615   1.793  13.534 -0.1983  0.4646 -0.7130
 3188TIP3    H230980   0.703   1.680  13.583 -0.6293  0.9490  1.2020
 3189TIP3   OH230981   6.421   0.103   1.269  0.3556 -0.6653  0.3382
 3189TIP3    H130982   6.499   0.053   1.247  1.2760  1.3095 -1.0506
 3189TIP3    H230983   6.432   0.125   1.362  2.1861  0.7798 -0.1805
 3190TIP3   OH230984   3.549   4.961   0.750 -0.4662 -0.3102 -0.8636
 3190TIP3    H130985   3.530   4.884   0.696 -1.1967  0.5941 -1.9171
 3190TIP3    H230986   3.630   4.997   0.713  0.8355 -1.5481  0.7287
 3191TIP3   OH230987   3.312   2.312  14.033  0.2706 -0.6567  0.0813
 3191TIP3    H130988   3.281   2.279  13.948 -2.4306  0.4624  0.5926
 3191TIP3    H230989   3.297   2.406  14.029  1.5720 -0.3935  1.2282
 3192TIP3   OH230990   4.826   5.257  17.232  0.2181 -0.5334 -0.0300
 3192TIP3    H130991   4.860   5.190  17.172 -0.6363 -0.2787 -0.8071
 3192TIP3    H230992   4.732   5.238  17.239 -0.0172  0.5386 -0.1921
 3193TIP3   OH230993   5.198   4.375   5.052  0.3310 -0.5417 -0.3998
 3193TIP3    H130994   5.184   4.304   4.990  1.1615  0.5079 -1.8116
 3193TIP3    H230995   5.278   4.419   5.022  1.2444 -0.5412  1.9057
 3194TIP3   OH230996   3.309   5.579  17.232 -0.1246 -0.1452 -0.0289
 3194TIP3    H130997   3.380   5.573  17.168 -0.1655 -0.4373 -0.0462
 3194TIP3    H230998   3.353   5.568  17.317 -0.1767 -0.5393 -0.0513
 3195TIP3   OH230999   0.518   2.718  14.166 -0.4268  0.2685  0.2849
 3195TIP3    H131000   0.434   2.759  14.186 -1.5293 -1.9854  0.4096
 3195TIP3    H231001   0.525   2.723  14.071 -0.4598  0.9042  0.3143
 3196TIP3   OH231002   1.932   3.454   2.713  0.2238 -0.3566  0.4533
 3196TIP3    H131003   2.010   3.403   2.690 -0.2062  0.1888 -2.3263
 3196TIP3    H231004   1.958   3.545   2.699 -0.7155 -0.1346  0.1472
 3197TIP3   OH231005   0.574   0.232  14.299  0.1921  0.1434  0.4352
 3197TIP3    H131006   0.583   0.326  14.282  1.9489 -0.1056 -0.1327
 3197TIP3    H231007   0.649   0.193  14.254 -0.3891 -1.5048  0.8913
 3198TIP3   OH231008   5.526   6.009   7.077 -0.2203  0.0302  0.0944
 3198TIP3    H131009   5.590   6.000   7.147 -1.0108  0.2279  0.8455
 3198TIP3    H231010   5.579   6.026   6.999  0.5736  1.4457  0.9293
 3199TIP3   OH231011   0.912   5.449  12.628  0.1365 -0.0874 -0.1729
 3199TIP3    H131012   0.920   5.498  12.710 -3.0672  0.4132 -0.1267
 3199TIP3    H231013   0.947   5.362  12.649  1.3191  0.6821  1.1065
 3200TIP3   OH231014   1.397   1.783   3.393  0.2573 -0.2465  0.1882
 3200TIP3    H131015   1.462   1.792   3.324  0.3809  0.9240  0.4421
 3200TIP3    H231016   1.338   1.857   3.380  0.0955 -0.1988  1.1286
 3201TIP3   OH231017   5.999   6.721   4.232  0.4640  0.1144 -0.0784
 3201TIP3    H131018   6.010   6.759   4.319 -0.0152  1.0463 -0.4102
 3201TIP3    H231019   5.940   6.646   4.245 -0.1562  0.6622  0.3031
 3202TIP3   OH231020   5.714   1.164   6.103 -0.3402 -0.5094 -0.3046
 3202TIP3    H131021   5.801   1.199   6.122 -0.4111 -0.6180  0.2427
 3202TIP3    H231022   5.673   1.156   6.189  0.3774 -3.7476 -0.1762
 3203TIP3   OH231023   5.293   0.870  10.424  0.2547  0.3110  0.1506
 3203TIP3    H131024   5.198   0.872  10.415  0.3825 -0.4351 -1.5970
 3203TIP3    H231025   5.308   0.862  10.518 -1.4090  0.2421  0.4254
 3204TIP3   OH231026   5.218   1.078  13.355 -0.5159 -0.1572  0.3435
 3204TIP3    H131027   5.291   1.136  13.330  1.4371 -1.7790  2.1877
 3204TIP3    H231028   5.143   1.137  13.363  0.8196  1.7114 -0.5018
 3205TIP3   OH231029   5.466   2.037  10.921 -0.1997 -0.1590 -0.4770
 3205TIP3    H131030   5.422   1.969  10.871 -2.7941  1.2849 -0.2777
 3205TIP3    H231031   5.467   2.005  11.011  0.6388 -0.9054 -0.7465
 3206TIP3   OH231032   6.565   5.924   3.896  0.2005  0.4009  0.1536
 3206TIP3    H131033   6.615   5.941   3.816 -0.1996 -0.4305 -0.2827
 3206TIP3    H231034   6.476   5.950   3.873 -0.2720 -1.4969 -0.2738
 3207TIP3   OH231035   4.549   2.146   2.608  0.2620 -0.4635  0.5569
 3207TIP3    H131036   4.638   2.134   2.574 -0.7622 -2.6428 -1.4800
 3207TIP3    H231037   4.497   2.167   2.531 -1.3346 -1.0466  1.4581
 3208TIP3   OH231038   4.455   5.453   0.138  0.4383  0.5812  0.7894
 3208TIP3    H131039   4.455   5.532   0.084  1.6600 -0.3105 -0.5330
 3208TIP3    H231040   4.526   5.468   0.201 -0.5940  1.3617  1.7756
 3209TIP3   OH231041   4.561   0.211   4.717  0.4990 -0.0230 -0.1534
 3209TIP3    H131042   4.476   0.198   4.759  0.3501  0.6524 -0.2430
 3209TIP3    H231043   4.587   0.124   4.687  0.1024 -0.3273  0.3806
 3210TIP3   OH231044   4.024   1.808   1.522 -0.1624  0.8414  0.1152
 3210TIP3    H131045   3.989   1.775   1.604  1.6206 -1.2620  0.0652
 3210TIP3    H231046   4.118   1.817   1.538  0.2359  0.2178 -1.7580
 3211TIP3   OH231047   0.557   4.099   5.020  0.0482 -0.9217  0.2981
 3211TIP3    H131048   0.579   4.171   4.960 -3.4377 -0.4770 -0.5823
 3211TIP3    H231049   0.635   4.045   5.022  0.8603 -0.0572 -3.3970
 3212TIP3   OH231050   5.409   4.080  16.792  0.5163 -0.1917 -0.2677
 3212TIP3    H131051   5.445   4.143  16.854  1.4461 -1.3883  0.4117
 3212TIP3    H231052   5.428   3.995  16.830 -1.0196 -0.8936 -1.0248
 3213TIP3   OH231053   5.633   3.661  12.660 -0.0483 -0.4840  0.4235
 3213TIP3    H131054   5.668   3.722  12.725 -1.1676 -0.0195  0.6018
 3213TIP3    H231055   5.568   3.609  12.708 -0.3121 -0.6757 -0.1318
 3214TIP3   OH231056   3.878   5.221   5.231 -0.1092 -0.6394 -0.1585
 3214TIP3    H131057   3.833   5.300   5.202 -0.5681 -0.7898  0.1402
 3214TIP3    H231058   3.858   5.156   5.164  3.8117  0.6299 -2.7418
 3215TIP3   OH231059   5.914   5.018   3.561 -0.6087 -0.4940 -0.2178
 3215TIP3    H131060   5.889   5.107   3.586  0.3623 -0.2048 -0.2478
 3215TIP3    H231061   5.900   5.015   3.467  1.9214  0.5224 -0.6860
 3216TIP3   OH231062   6.687   4.408   0.517 -0.0801 -0.2019  0.1733
 3216TIP3    H131063   6.768   4.458   0.509 -0.2091 -0.0308 -0.0658
 3216TIP3    H231064   6.706   4.324   0.474 -0.3579  0.2311 -0.8019
 3217TIP3   OH231065   4.401   1.431   3.089 -0.2415  0.0941  0.1218
 3217TIP3    H131066   4.348   1.508   3.108 -0.6244 -0.0574 -0.3312
 3217TIP3    H231067   4.385   1.413   2.996 -1.9633 -1.8955  0.7559
 3218TIP3   OH231068   0.767   6.368  10.822 -0.3103 -0.4652 -0.0478
 3218TIP3    H131069   0.849   6.357  10.775 -0.4953 -0.3203 -0.4047
 3218TIP3    H231070   0.733   6.452  10.792 -1.1016 -1.0058 -0.6832
 3219TIP3   OH231071   3.872   4.136  12.332 -0.2173 -0.4087  0.6462
 3219TIP3    H131072   3.856   4.051  12.291  0.5019 -0.3202  0.1722
 3219TIP3    H231073   3.938   4.177  12.277 -0.5243  0.4434  0.9029
 3220TIP3   OH231074   1.994   2.279   4.753 -0.8531 -0.1251  0.2075
 3220TIP3    H131075   2.009   2.204   4.697  1.1302 -0.9354  1.7438
 3220TIP3    H231076   1.927   2.250   4.815  0.8623 -1.1645  1.6490
 3221TIP3   OH231077   5.697   6.045  12.507  0.4975  0.2213 -0.2352
 3221TIP3    H131078   5.620   6.090  12.541  1.1560  1.1463  0.0451
 3221TIP3    H231079   5.694   5.958  12.546  0.8891  1.0497  1.6874
 3222TIP3   OH231080   2.568   2.064   4.258 -0.1301 -0.2004  0.3757
 3222TIP3    H131081   2.625   2.055   4.334  1.0505 -0.8664 -0.5781
 3222TIP3    H231082   2.621   2.110   4.193 -0.1591 -2.1409 -1.0498
 3223TIP3   OH231083   4.409   2.651  13.160  0.2988  0.6063 -0.2655
 3223TIP3    H131084   4.396   2.556  13.163 -0.9981  0.7574 -0.7583
 3223TIP3    H231085   4.375   2.683  13.243 -1.2659  0.8604 -0.9920
 3224TIP3   OH231086   3.153   1.604  15.484 -0.2037 -0.4832 -0.4369
 3224TIP3    H131087   3.096   1.680  15.496  0.0431 -0.1572 -1.2828
 3224TIP3    H231088   3.217   1.632  15.419  0.1048 -1.2978 -0.4900
 3225TIP3   OH231089   2.221   1.456   1.431  0.5559  0.0431 -0.2045
 3225TIP3    H131090   2.316   1.453   1.443  0.7899  0.5977 -1.8161
 3225TIP3    H231091   2.207   1.425   1.342 -0.9320 -1.6577  0.5905
 3226TIP3   OH231092   6.475   6.279  15.802 -0.3461  0.0772 -0.5139
 3226TIP3    H131093   6.521   6.363  15.807  1.3525 -0.7758 -1.5292
 3226TIP3    H231094   6.383   6.302  15.812  0.1554  1.9918 -0.0779
 3227TIP3   OH231095   4.409   5.020  12.621 -0.4585  0.3325  0.3787
 3227TIP3    H131096   4.490   4.993  12.664 -1.2941  0.2500  1.9363
 3227TIP3    H231097   4.378   4.941  12.577 -0.3150  0.0369  0.7999
 3228TIP3   OH231098   0.283   5.774   0.468  0.3805 -0.1600 -0.4484
 3228TIP3    H131099   0.305   5.856   0.512 -0.7675  0.2536 -0.6466
 3228TIP3    H231100   0.229   5.726   0.531 -2.3577  0.9869 -1.8368
 3229TIP3   OH231101   2.471   1.907   0.876  0.1693 -0.5994  0.2449
 3229TIP3    H131102   2.386   1.948   0.857 -0.8633 -1.7077  2.2863
 3229TIP3    H231103   2.449   1.829   0.927  2.5507  0.2709  2.7200
 3230TIP3   OH231104   0.014   3.092   3.586 -0.0727 -0.8519  0.0284
 3230TIP3    H131105  -0.035   3.079   3.668 -1.1265 -0.7003 -0.5636
 3230TIP3    H231106  -0.053   3.119   3.523  1.1019  1.4207 -0.2964
 3231TIP3   OH231107   1.929   0.329   0.783 -0.4208 -0.5063 -0.0965
 3231TIP3    H131108   1.967   0.265   0.844 -0.6759 -2.3972 -1.8447
 3231TIP3    H231109   1.843   0.348   0.819 -0.2017 -0.8983  0.6438
 3232TIP3   OH231110   2.739   1.905  12.840 -0.1736  0.2418 -0.5764
 3232TIP3    H131111   2.827   1.926  12.872  0.9277 -1.5983 -2.2016
 3232TIP3    H231112   2.702   1.846  12.906 -0.2965  1.2362  0.2451
 3233TIP3   OH231113   4.038   2.072  12.832 -0.2469 -0.6157  0.2688
 3233TIP3    H131114   3.970   2.126  12.793  0.5324 -0.6248 -1.1368
 3233TIP3    H231115   3.996   1.987  12.847 -0.3271 -0.8678 -1.3367
 3234TIP3   OH231116   4.663   1.645  16.949 -0.2712 -0.1641 -0.1959
 3234TIP3    H131117   4.669   1.612  16.859  0.2683 -0.5459 -0.0204
 3234TIP3    H231118   4.740   1.610  16.993  0.3971  1.4813 -0.0419
 3235TIP3   OH231119   6.416   6.667  15.148  0.3321 -0.2803  0.6125
 3235TIP3    H131120   6.503   6.665  15.187  0.8310 -0.9809 -0.5074
 3235TIP3    H231121   6.388   6.576  15.146 -0.5298 -0.0306  1.1927
 3236TIP3   OH231122   2.855   0.274   4.437 -0.3003 -0.3319  0.2846
 3236TIP3    H131123   2.796   0.345   4.411  0.4231 -0.7520 -2.7181
 3236TIP3    H231124   2.914   0.313   4.501  0.3857  1.9574 -1.6858
 3237TIP3   OH231125   5.634   0.097  14.644 -0.3845  0.0143 -0.1091
 3237TIP3    H131126   5.672   0.021  14.601  0.8123  0.2871  0.4504
 3237TIP3    H231127   5.571   0.132  14.581  0.0808 -0.6164 -0.9314
 3238TIP3   OH231128   3.057   6.017   4.546 -0.4750 -0.3136 -0.6266
 3238TIP3    H131129   3.072   6.027   4.452  2.0106  3.4361  0.0467
 3238TIP3    H231130   2.975   6.064   4.563 -0.3609 -0.0626 -0.7705
 3239TIP3   OH231131   0.139   5.792  12.692  0.1109 -0.3900  0.2263
 3239TIP3    H131132   0.077   5.758  12.627 -1.5365  2.4052  0.2978
 3239TIP3    H231133   0.224   5.785  12.649 -0.6577 -1.0069 -1.2260
 3240TIP3   OH231134   4.045   3.541  10.658 -0.4504 -0.5457 -0.3131
 3240TIP3    H131135   4.111   3.489  10.704 -0.3896  1.2256  1.6643
 3240TIP3    H231136   4.074   3.631  10.667 -2.3874  0.1512 -0.6611
 3241TIP3   OH231137   2.895   3.679   3.047  0.0310  0.4973 -0.3064
 3241TIP3    H131138   2.966   3.741   3.039 -0.4274  1.0710  0.0680
 3241TIP3    H231139   2.838   3.715   3.114  0.0232 -0.5835  0.2785
 3242TIP3   OH231140   1.697   4.869  11.815  0.2702 -0.2184  0.1478
 3242TIP3    H131141   1.633   4.845  11.748  1.1916 -1.2782 -0.3606
 3242TIP3    H231142   1.782   4.855  11.773  0.8446 -0.1169  1.2711
 3243TIP3   OH231143   5.469   6.211  15.090  0.2871 -0.4260  0.2544
 3243TIP3    H131144   5.428   6.161  15.161 -0.8560 -0.0183 -0.1055
 3243TIP3    H231145   5.549   6.163  15.070 -0.6674 -1.9707  0.0744
 3244TIP3   OH231146   6.715   1.174  16.997 -0.3875 -0.2987 -0.4263
 3244TIP3    H131147   6.760   1.186  17.081  1.5115  0.4632 -1.5223
 3244TIP3    H231148   6.778   1.126  16.943 -1.1376  0.2179 -1.7726
 3245TIP3   OH231149   3.547   4.320   4.463 -0.1658 -0.8931 -0.5555
 3245TIP3    H131150   3.520   4.274   4.543 -0.7978 -0.6483 -0.6201
 3245TIP3    H231151   3.544   4.412   4.486 -1.7701 -0.7397 -1.2628
 3246TIP3   OH231152   3.780   3.591  15.537 -0.4753  0.2831  0.2700
 3246TIP3    H131153   3.732   3.509  15.524  1.8594 -1.1230  0.3355
 3246TIP3    H231154   3.866   3.565  15.569  0.0876  2.8078  0.9669
 3247TIP3   OH231155   4.699   2.734  11.184 -0.6555 -0.2310 -0.2327
 3247TIP3    H131156   4.661   2.807  11.135 -0.9145 -0.5502 -0.5059
 3247TIP3    H231157   4.645   2.658  11.161 -1.1664 -0.2657  1.0258
 3248TIP3   OH231158   0.967   6.626  11.329 -0.1203 -0.1757  0.4955
 3248TIP3    H131159   0.941   6.543  11.287 -1.8479 -0.9990  3.0916
 3248TIP3    H231160   0.912   6.631  11.407  2.5909  1.5976  2.3473
 3249TIP3   OH231161   3.768   4.132   0.742 -0.6292  0.1301  0.1243
 3249TIP3    H131162   3.768   4.216   0.697 -2.5650  1.0228  1.7359
 3249TIP3    H231163   3.678   4.120   0.771 -0.6134 -2.9458 -0.8527
 3250TIP3   OH231164   2.125   0.772   2.317 -0.0950  0.3174 -0.3497
 3250TIP3    H131165   2.132   0.833   2.244 -1.4589  1.6008  0.5673
 3250TIP3    H231166   2.051   0.804   2.369 -0.0312 -1.3715  0.8499
 3251TIP3   OH231167   1.585   2.807   5.370 -0.5011 -0.0712 -0.0454
 3251TIP3    H131168   1.658   2.867   5.386 -0.6361  0.6068 -1.8517
 3251TIP3    H231169   1.524   2.823   5.443  1.2172 -0.8031  1.5960
 3252TIP3   OH231170   1.402   1.792  15.624 -0.0846  0.0034  0.2537
 3252TIP3    H131171   1.483   1.837  15.601  0.3328 -0.7629  0.1973
 3252TIP3    H231172   1.336   1.861  15.629  0.3112  0.4789 -0.9405
 3253TIP3   OH231173   4.931   1.013   1.513  0.1626 -0.2028  0.3286
 3253TIP3    H131174   4.900   1.038   1.601  0.0389  1.0860 -0.0671
 3253TIP3    H231175   4.857   0.967   1.474 -0.0124 -0.2142  0.6719
 3254TIP3   OH231176   2.795   2.177   1.617  0.7238 -0.1310 -0.3774
 3254TIP3    H131177   2.747   2.172   1.535  0.6282 -0.2594 -0.3139
 3254TIP3    H231178   2.838   2.263   1.615  1.0550 -0.3025 -0.7470
 3255TIP3   OH231179   0.535   3.198  15.822 -0.4945 -0.4236  0.3706
 3255TIP3    H131180   0.459   3.202  15.880 -1.5085  0.2277 -0.9783
 3255TIP3    H231181   0.519   3.267  15.757  0.3393 -1.4906 -0.9938
 3256TIP3   OH231182   5.180   0.353  12.518 -0.3053 -0.5945 -0.1904
 3256TIP3    H131183   5.210   0.361  12.427 -1.3606 -0.7024 -0.5486
 3256TIP3    H231184   5.241   0.408  12.567 -0.5973  0.6263 -1.1609
 3257TIP3   OH231185   0.591   5.471   4.291 -0.4956 -0.4749 -0.0796
 3257TIP3    H131186   0.650   5.472   4.366  0.2527  0.6387 -0.6719
 3257TIP3    H231187   0.647   5.490   4.216 -1.0755 -2.4095 -1.0526
 3258TIP3   OH231188   3.624   2.889  12.854 -0.4563 -0.5711  0.6144
 3258TIP3    H131189   3.564   2.920  12.786  1.5276  2.0722  0.0061
 3258TIP3    H231190   3.631   2.963  12.914  1.4950 -1.1859  1.1518
 3259TIP3   OH231191   3.768   3.186   0.148 -0.5953 -0.2310  0.7929
 3259TIP3    H131192   3.766   3.221   0.237  1.0137  0.2719  0.6381
 3259TIP3    H231193   3.718   3.249   0.096  0.8991  0.9925  0.8185
 3260TIP3   OH231194   5.690   5.438  17.067 -0.9224 -0.2797 -0.7120
 3260TIP3    H131195   5.760   5.421  17.005  0.3377  1.6850  0.1232
 3260TIP3    H231196   5.611   5.445  17.012 -0.1552 -0.5662 -1.8686
 3261TIP3   OH231197   1.797   1.124  16.965 -0.0221  0.2557 -0.4084
 3261TIP3    H131198   1.864   1.059  16.943 -0.7472 -0.9719  0.9677
 3261TIP3    H231199   1.791   1.178  16.886  0.3606 -1.5391 -1.7215
 3262TIP3   OH231200   2.078   4.699   6.047 -0.2425  0.0781 -0.3220
 3262TIP3    H131201   2.092   4.791   6.024  1.8770  0.4148  2.0753
 3262TIP3    H231202   2.091   4.652   5.964 -1.2265  1.9056 -1.5552
 3263TIP3   OH231203   2.751   3.525  15.832  0.1404  0.2074  0.0996
 3263TIP3    H131204   2.666   3.508  15.872 -0.0869  1.6626  0.2661
 3263TIP3    H231205   2.806   3.452  15.861 -1.1233 -0.8943 -0.2437
 3264TIP3   OH231206   3.346   5.830  13.805  0.0002 -0.1326  0.2336
 3264TIP3    H131207   3.326   5.846  13.712  0.1743  1.0585  0.3924
 3264TIP3    H231208   3.270   5.781  13.838  0.5185 -1.7026 -0.8422
 3265TIP3   OH231209   1.051   4.782   1.100  0.3759  0.1233  0.2628
 3265TIP3    H131210   1.060   4.718   1.171  1.4048  0.1298  0.1404
 3265TIP3    H231211   0.977   4.750   1.049 -0.3839  0.1169  1.3271
 3266TIP3   OH231212   4.416   4.685   1.466  0.3127  0.2809  0.4479
 3266TIP3    H131213   4.357   4.615   1.493  0.5618  0.4806  1.5480
 3266TIP3    H231214   4.495   4.639   1.434 -0.3881  0.0183 -0.9542
 3267TIP3   OH231215   6.068   6.690  11.785  0.0377  0.2334 -0.1484
 3267TIP3    H131216   6.138   6.704  11.849  0.9259 -0.2164 -1.0072
 3267TIP3    H231217   6.032   6.604  11.807 -1.1319  1.0146  1.1044
 3268TIP3   OH231218   1.743   3.567  15.042 -0.2420 -0.2362  0.0217
 3268TIP3    H131219   1.733   3.477  15.073  0.7287 -0.4230 -0.1943
 3268TIP3    H231220   1.794   3.560  14.961 -1.3156  0.3925 -0.7247
 3269TIP3   OH231221   4.064   4.646   1.282  0.6929 -0.3164 -0.6804
 3269TIP3    H131222   4.018   4.687   1.355 -0.8190  2.1599 -2.9088
 3269TIP3    H231223   4.057   4.552   1.298 -2.4755  0.0974  0.6406
 3270TIP3   OH231224   6.601   3.237   5.020  0.3557 -0.7512 -0.1703
 3270TIP3    H131225   6.665   3.224   4.949 -0.2739 -1.7387 -0.5628
 3270TIP3    H231226   6.646   3.207   5.099  0.1989 -1.9273 -0.5233
 3271TIP3   OH231227   4.334   3.341   4.708  0.2340 -0.2202 -0.0184
 3271TIP3    H131228   4.307   3.381   4.791  0.7690  2.3211 -1.0038
 3271TIP3    H231229   4.295   3.397   4.641  1.1936 -1.2637 -1.4763
 3272TIP3   OH231230   6.306   0.314  11.323 -0.0108  0.2109 -0.6301
 3272TIP3    H131231   6.214   0.301  11.304 -0.3978  2.6867 -0.6785
 3272TIP3    H231232   6.314   0.295  11.417 -0.6268  0.2467 -0.5694
 3273TIP3   OH231233   6.727   1.911  16.583 -0.3272  0.5940  0.2686
 3273TIP3    H131234   6.706   1.942  16.494 -2.5024 -3.3373 -0.7208
 3273TIP3    H231235   6.808   1.862  16.573 -1.3996 -1.2012  0.0542
 3274TIP3   OH231236   1.298   2.409  13.556 -0.3010 -1.0455 -0.1317
 3274TIP3    H131237   1.363   2.451  13.500 -0.5917  0.8551  0.9154
 3274TIP3    H231238   1.220   2.402  13.500  0.6122 -2.9152 -1.2411
 3275TIP3   OH231239   2.739   4.560  15.120  0.2569  0.0289  0.1139
 3275TIP3    H131240   2.718   4.568  15.213  1.0989 -0.1969  0.3319
 3275TIP3    H231241   2.690   4.631  15.078  0.5792  0.6939  0.8466
 3276TIP3   OH231242   2.441   1.037  13.803  0.0760  0.1718 -0.6774
 3276TIP3    H131243   2.446   1.075  13.891  0.9411 -1.8556  0.2062
 3276TIP3    H231244   2.530   1.046  13.769  0.0396 -0.1360 -0.8526
 3277TIP3   OH231245   3.045   1.067  14.352 -0.5375 -0.1202 -0.3225
 3277TIP3    H131246   3.023   1.117  14.431  1.1676 -1.5844  1.1210
 3277TIP3    H231247   3.057   1.133  14.284 -1.1243  1.2281  0.8587
 3278TIP3   OH231248   1.005   2.740  16.248 -0.3836  0.1856 -0.4450
 3278TIP3    H131249   1.071   2.805  16.271 -0.1844 -0.3205  0.4332
 3278TIP3    H231250   0.926   2.791  16.232  0.4817  0.9218 -2.7039
 3279TIP3   OH231251   6.155   0.017   0.266 -1.1011  0.1457 -0.3909
 3279TIP3    H131252   6.240  -0.013   0.234 -1.1273 -0.6467  0.2831
 3279TIP3    H231253   6.143  -0.029   0.349 -2.1452  0.3347 -0.4370
 3280TIP3   OH231254   0.085   1.213  13.719 -0.2381  0.5925  0.4709
 3280TIP3    H131255   0.099   1.170  13.635 -1.9930 -0.6929  0.8292
 3280TIP3    H231256   0.039   1.294  13.698  0.7398  1.0618  0.0674
 3281TIP3   OH231257   4.435   0.047   2.238 -0.4518 -0.1131 -0.0900
 3281TIP3    H131258   4.395   0.011   2.160 -0.6552 -0.5802  0.2304
 3281TIP3    H231259   4.386   0.127   2.256 -2.1690 -1.4067  1.1123
 3282TIP3   OH231260   1.557   3.075   0.082 -0.4574  0.3742 -0.2272
 3282TIP3    H131261   1.547   2.995   0.134  0.5425  0.7252  0.5146
 3282TIP3    H231262   1.514   3.055  -0.001 -0.3037 -0.9008 -0.0063
 3283TIP3   OH231263   3.113   6.284  11.159  0.4147 -0.2239  0.4319
 3283TIP3    H131264   3.059   6.301  11.082 -0.0270 -2.2309  0.2657
 3283TIP3    H231265   3.086   6.351  11.222  0.8613  1.5039 -1.1815
 3284TIP3   OH231266   6.158   0.315   3.519  0.6782 -0.2665  0.3286
 3284TIP3    H131267   6.195   0.229   3.537  0.5171 -0.4192 -0.0767
 3284TIP3    H231268   6.198   0.372   3.585  1.5114 -0.4594 -0.0054
 3285TIP3   OH231269   1.290   3.375  13.870  0.3642 -0.8356  0.2229
 3285TIP3    H131270   1.285   3.337  13.958  2.6209 -1.2047  0.2117
 3285TIP3    H231271   1.202   3.362  13.834  0.1135 -2.9573  1.4969
 3286TIP3   OH231272   2.700   3.814   3.213 -0.3659 -0.3447 -0.4214
 3286TIP3    H131273   2.643   3.758   3.266  0.0466 -0.0173  0.3761
 3286TIP3    H231274   2.751   3.863   3.277  0.7074 -0.5239 -1.1353
 3287TIP3   OH231275   1.769   2.193  15.087  0.1777 -0.3564 -0.1934
 3287TIP3    H131276   1.773   2.196  15.183 -0.6196 -0.0170 -0.1673
 3287TIP3    H231277   1.676   2.199  15.067  0.2639 -1.5020 -0.9637
 3288TIP3   OH231278   0.783   4.137  13.517 -0.9416  0.5951  0.2240
 3288TIP3    H131279   0.852   4.078  13.487 -1.1537 -0.3575  1.5957
 3288TIP3    H231280   0.817   4.225  13.499 -0.3263  0.0894 -1.1703
 3289TIP3   OH231281   5.613   3.869   2.742  0.3069  0.3058  0.0184
 3289TIP3    H131282   5.566   3.798   2.785  1.0580  1.1849  2.4136
 3289TIP3    H231283   5.547   3.936   2.727 -0.1106 -0.3009 -0.9001
 3290TIP3   OH231284   4.212   4.676  12.162  0.5059 -0.2546  0.0087
 3290TIP3    H131285   4.282   4.615  12.185 -0.3095 -1.0954  0.2482
 3290TIP3    H231286   4.134   4.622  12.153 -0.2569  0.7715  0.3670
 3291TIP3   OH231287   4.527   1.268   2.102  0.3438 -0.0247 -0.2534
 3291TIP3    H131288   4.453   1.219   2.067  1.1798 -0.8722 -0.8749
 3291TIP3    H231289   4.544   1.228   2.187  1.0049 -0.8105 -0.7460
 3292TIP3   OH231290   2.339   3.053  15.293 -0.2983 -0.1090  0.3808
 3292TIP3    H131291   2.400   3.127  15.295 -1.6542  1.0282  0.3015
 3292TIP3    H231292   2.268   3.082  15.236 -1.0057 -1.3484  0.6182
 3293TIP3   OH231293   3.345   6.231  14.058 -0.2275  0.2153  0.3963
 3293TIP3    H131294   3.344   6.279  13.975 -2.8576 -0.3640  0.0564
 3293TIP3    H231295   3.361   6.298  14.124 -0.8197  1.1030 -0.3491
 3294TIP3   OH231296   6.206   3.858  13.786  0.0842 -0.0620 -0.0601
 3294TIP3    H131297   6.241   3.829  13.870  0.2069 -0.8881 -0.3818
 3294TIP3    H231298   6.237   3.792  13.724 -1.3340 -0.3431 -0.4843
 3295TIP3   OH231299   4.060   4.137   0.007 -0.2508  0.4125  0.2159
 3295TIP3    H131300   4.117   4.097   0.073  1.9316  0.5551 -1.5372
 3295TIP3    H231301   4.100   4.221  -0.012 -1.8396  1.1265 -0.0345
 3296TIP3   OH231302   0.772   3.138  17.009 -0.5885 -0.1611  0.4190
 3296TIP3    H131303   0.701   3.117  16.948 -0.7978  1.1061  0.2056
 3296TIP3    H231304   0.843   3.167  16.953 -0.2185 -0.5369  0.6914
 3297TIP3   OH231305   6.056   1.248   2.803  0.7908  0.1367  0.4937
 3297TIP3    H131306   6.057   1.197   2.722  1.2719 -0.3548  0.8109
 3297TIP3    H231307   6.130   1.216   2.854  1.5625  1.6659  0.3830
 3298TIP3   OH231308   4.622   4.890   1.549  0.6813  0.2864  0.0518
 3298TIP3    H131309   4.562   4.829   1.592 -0.1160  0.0065 -1.4115
 3298TIP3    H231310   4.670   4.837   1.486  2.3076  0.5686  1.0360
 3299TIP3   OH231311   1.762   5.355  11.441  0.0105  0.4442  0.1049
 3299TIP3    H131312   1.840   5.320  11.399 -0.3688  0.3772 -0.5388
 3299TIP3    H231313   1.709   5.278  11.463 -0.0012  0.5059  0.3001
 3300TIP3   OH231314   5.275   4.011  15.211  0.3440  0.2704 -0.4893
 3300TIP3    H131315   5.224   3.951  15.156 -1.0520  0.5052  0.5257
 3300TIP3    H231316   5.336   4.053  15.150  0.0672 -0.7995 -1.5375
 3301TIP3   OH231317   5.182   3.105  11.610  0.1839  0.4491 -0.8686
 3301TIP3    H131318   5.125   3.131  11.538  1.0554  0.4692 -1.5546
 3301TIP3    H231319   5.267   3.144  11.589  0.2593  1.0574  0.5360
 3302TIP3   OH231320   3.038   5.098  14.108  0.1719  0.4195 -0.3129
 3302TIP3    H131321   2.953   5.091  14.150  1.3706 -2.7437  1.8093
 3302TIP3    H231322   3.089   5.155  14.165  0.4002 -0.1892  0.1006
 3303TIP3   OH231323   5.806   3.134   5.673 -0.0816 -0.1657 -0.1414
 3303TIP3    H131324   5.717   3.161   5.699  0.4743  1.3503  0.2289
 3303TIP3    H231325   5.830   3.068   5.738 -0.7568 -0.2360  0.0497
 3304TIP3   OH231326   6.165   2.775   3.629 -0.7314 -0.1193  0.3585
 3304TIP3    H131327   6.169   2.870   3.612 -0.2855 -0.1317  0.3667
 3304TIP3    H231328   6.095   2.743   3.572 -0.7991  0.1976  0.2620
 3305TIP3   OH231329   4.671   6.247   0.043 -0.8516 -0.3776  0.2374
 3305TIP3    H131330   4.705   6.157   0.037 -1.8956 -0.7278 -0.5658
 3305TIP3    H231331   4.708   6.280   0.125  1.4098 -0.7336 -0.5945
 3306TIP3   OH231332   6.753   2.843  15.302 -0.3720 -0.7735  0.1565
 3306TIP3    H131333   6.674   2.869  15.350 -0.2700 -1.2162  0.5744
 3306TIP3    H231334   6.724   2.773  15.244  0.0075 -2.0159  1.4244
 3307TIP3   OH231335   6.083   3.823   4.696  0.1494 -0.0269 -0.2984
 3307TIP3    H131336   6.088   3.746   4.639 -0.9136 -0.3729  0.0515
 3307TIP3    H231337   6.126   3.796   4.777  0.9168  0.1802 -0.6375
 3308TIP3   OH231338   5.118   5.206   1.653 -0.2265 -0.2674 -0.4312
 3308TIP3    H131339   5.039   5.253   1.626 -0.4563 -0.9832 -1.0007
 3308TIP3    H231340   5.126   5.134   1.591  1.2541  0.1910 -0.7850
 3309TIP3   OH231341   2.067   1.771  14.230  0.3751  0.0621 -0.4705
 3309TIP3    H131342   2.033   1.813  14.151  1.2803  0.9398 -0.3930
 3309TIP3    H231343   2.160   1.793  14.231 -0.0624  2.0194  2.0673
 3310TIP3   OH231344   2.501   2.645   6.286 -0.4702 -0.2289  0.4287
 3310TIP3    H131345   2.466   2.670   6.200  1.2772 -1.4263 -0.6511
 3310TIP3    H231346   2.571   2.708   6.302  0.1809 -0.9167  0.2985
 3311TIP3   OH231347   5.653   6.008  13.715 -0.4545 -0.3673  0.5121
 3311TIP3    H131348   5.744   6.018  13.687 -0.6247 -1.0852 -0.2785
 3311TIP3    H231349   5.655   6.029  13.809  0.5709 -0.6557  0.5591
 3312TIP3   OH231350   2.112   6.261   0.217  0.6768  0.6440 -0.2816
 3312TIP3    H131351   2.037   6.218   0.260  0.2947  0.0391 -1.5140
 3312TIP3    H231352   2.122   6.344   0.263  0.2556  0.0205  0.9476
 3313TIP3   OH231353   3.997   0.094  15.448 -0.1749  0.1615 -0.5681
 3313TIP3    H131354   4.037   0.133  15.525 -0.3906  1.2895 -1.0203
 3313TIP3    H231355   4.064   0.101  15.380  0.1781 -1.2242 -0.3868
 3314TIP3   OH231356   3.544   0.717   3.564 -0.1410 -0.2764  0.1881
 3314TIP3    H131357   3.618   0.700   3.506 -0.9689  1.3419 -1.3693
 3314TIP3    H231358   3.560   0.805   3.598 -0.3816 -0.6774  1.3826
 3315TIP3   OH231359   5.389   4.583  15.063 -0.3025  0.3773 -0.2709
 3315TIP3    H131360   5.408   4.512  15.002 -3.2094  0.1563 -1.0132
 3315TIP3    H231361   5.455   4.649  15.044  1.4345 -1.4253 -0.7064
 3316TIP3   OH231362   5.013   3.175   6.160 -0.0724 -0.0116  0.1199
 3316TIP3    H131363   4.963   3.104   6.119  0.2847 -1.2216  1.7393
 3316TIP3    H231364   4.948   3.223   6.212 -0.1245  0.2492 -0.1858
 3317TIP3   OH231365   5.776   2.511   2.733  0.0689 -0.0602  0.4433
 3317TIP3    H131366   5.832   2.465   2.796  0.8754 -0.0867 -0.2789
 3317TIP3    H231367   5.732   2.578   2.784 -1.4634 -1.9085  1.6184
 3318TIP3   OH231368   6.248   5.788   6.610  0.3810  0.1596  0.0496
 3318TIP3    H131369   6.258   5.880   6.634  1.3132 -0.4499  2.0960
 3318TIP3    H231370   6.174   5.757   6.663 -0.4437 -0.0877 -1.2137
 3319TIP3   OH231371   5.815   4.560  14.620  0.0351  0.7653 -0.4131
 3319TIP3    H131372   5.723   4.551  14.648 -0.1589  0.3221 -1.1916
 3319TIP3    H231373   5.861   4.491  14.668  0.6230  3.2806  2.8125
 3320TIP3   OH231374   5.191   6.536   2.701 -0.5069  0.0315 -0.2226
 3320TIP3    H131375   5.111   6.566   2.745 -0.5141  0.7160 -0.6974
 3320TIP3    H231376   5.201   6.445   2.729 -0.8836  0.2560  0.6612
 3321TIP3   OH231377   5.998   5.332  15.909 -0.1223 -0.1131 -0.0054
 3321TIP3    H131378   6.053   5.254  15.906 -0.9709 -0.7399  0.3667
 3321TIP3    H231379   6.021   5.381  15.830  1.7764  0.2090  0.7288
 3322TIP3   OH231380   2.548   2.550  16.427 -0.2385 -0.1853  0.0540
 3322TIP3    H131381   2.467   2.567  16.474 -1.4572 -0.3382 -1.9345
 3322TIP3    H231382   2.537   2.462  16.390 -0.0007  0.5543 -1.8370
 3323TIP3   OH231383   1.395   0.168   1.824  0.0336 -0.5203 -0.3897
 3323TIP3    H131384   1.326   0.196   1.764 -1.7788 -2.0533  0.8902
 3323TIP3    H231385   1.348   0.123   1.894  2.2984 -0.9203  0.9137
 3324TIP3   OH231386   5.793   2.749   6.099  0.2906 -0.5004  0.3221
 3324TIP3    H131387   5.888   2.736   6.099  0.3442 -0.1211 -0.6623
 3324TIP3    H231388   5.765   2.728   6.010 -0.4679  0.0097  0.4322
 3325TIP3   OH231389   0.402   1.606   5.485  0.5696 -0.5532 -0.4751
 3325TIP3    H131390   0.386   1.666   5.412 -2.1654  0.9585  1.3058
 3325TIP3    H231391   0.479   1.641   5.529  0.9991 -0.3054 -1.4016
 3326TIP3   OH231392   4.169   6.467   3.292 -0.3416  0.3488 -0.5120
 3326TIP3    H131393   4.202   6.506   3.373  1.1748 -1.5838 -0.1827
 3326TIP3    H231394   4.201   6.525   3.223  0.2010  0.7857  0.1049
 3327TIP3   OH231395   5.586   3.490   0.482  0.1731  0.2259  0.1337
 3327TIP3    H131396   5.595   3.556   0.551  0.5810 -1.2463  1.5348
 3327TIP3    H231397   5.618   3.409   0.523 -0.6123 -0.9030 -1.4412
 3328TIP3   OH231398   3.663   6.481  16.635 -0.3228 -0.5753  0.0669
 3328TIP3    H131399   3.683   6.419  16.564  1.1941  0.3230 -0.2920
 3328TIP3    H231400   3.573   6.459  16.660 -0.4185 -1.7671 -1.2505
 3329TIP3   OH231401   5.324   5.424   3.992 -0.3933  0.3497 -0.1286
 3329TIP3    H131402   5.286   5.468   4.068  1.1602  1.6147 -0.0780
 3329TIP3    H231403   5.329   5.332   4.018  0.0619  0.7584  1.2792
 3330TIP3   OH231404   3.001   0.269  13.057  0.3423 -0.2946 -0.7030
 3330TIP3    H131405   2.909   0.277  13.030  0.2124 -2.4369 -0.9541
 3330TIP3    H231406   3.000   0.283  13.152  0.3123  3.6032 -1.2025
 3331TIP3   OH231407   4.938   1.403   5.600  0.5174 -0.6950  0.3094
 3331TIP3    H131408   5.021   1.437   5.565  0.2689 -1.2861 -0.8757
 3331TIP3    H231409   4.871   1.460   5.561  0.3911  0.1517  1.7245
 3332TIP3   OH231410   5.593   2.873  13.882 -0.4232  0.0871  0.1186
 3332TIP3    H131411   5.544   2.865  13.964  1.5445  0.8224  1.3848
 3332TIP3    H231412   5.661   2.806  13.888 -0.4651 -0.0785 -1.0887
 3333TIP3   OH231413   3.500   4.064  14.862 -0.2282 -0.8678 -0.4333
 3333TIP3    H131414   3.422   4.117  14.844 -0.5115 -1.0742  0.1497
 3333TIP3    H231415   3.565   4.094  14.799 -0.1018  0.7665  0.4515
 3334TIP3   OH231416   0.630   2.071   5.836 -0.0627  0.1005 -0.1084
 3334TIP3    H131417   0.702   2.118   5.879  0.1350  0.3225 -0.6760
 3334TIP3    H231418   0.560   2.070   5.901 -0.1497  1.3983 -0.1640
 3335TIP3   OH231419   5.066   6.593   5.916  0.2181  0.3581  0.9704
 3335TIP3    H131420   5.029   6.526   5.858 -3.9270  2.7705  0.7058
 3335TIP3    H231421   5.051   6.558   6.004  1.2558 -0.6205  0.7803
 3336TIP3   OH231422   1.992   1.885  17.185 -0.5953  0.3937 -0.3278
 3336TIP3    H131423   2.075   1.846  17.159 -0.3890  0.9125 -0.4649
 3336TIP3    H231424   1.965   1.936  17.108  0.1906  2.2322  0.5880
 3337TIP3   OH231425   1.914   1.910  15.750  0.0790  0.1656 -0.2757
 3337TIP3    H131426   1.913   1.952  15.836 -0.8134  1.6854 -0.9992
 3337TIP3    H231427   2.000   1.869  15.744  0.6078  1.0825  0.8639
 3338TIP3   OH231428   4.202   5.655  11.723 -0.1956  0.8798  1.0362
 3338TIP3    H131429   4.251   5.733  11.747 -0.8545  1.2553  1.1705
 3338TIP3    H231430   4.168   5.673  11.635 -1.0917  1.1098  1.4237
 3339TIP3   OH231431   3.834   1.192   2.420 -0.2699  0.1858  0.4617
 3339TIP3    H131432   3.920   1.209   2.458 -0.5325  0.7837  0.7870
 3339TIP3    H231433   3.832   1.097   2.408  0.1185  0.0779  1.2230
 3340TIP3   OH231434   0.333   6.777  12.554  0.4525  0.0922 -0.0510
 3340TIP3    H131435   0.428   6.776  12.563  0.5184 -0.1430 -0.7032
 3340TIP3    H231436   0.305   6.688  12.576  0.5571 -0.3128 -1.4581
 3341TIP3   OH231437   3.588   5.723  11.711 -0.4772  0.4217 -0.2444
 3341TIP3    H131438   3.492   5.720  11.709 -0.4735 -0.6138  0.9073
 3341TIP3    H231439   3.611   5.705  11.802  0.8462 -0.1905 -0.6852
 3342TIP3   OH231440   3.627   4.752   2.002 -0.0912  0.1999 -0.0411
 3342TIP3    H131441   3.545   4.703   1.993 -0.9509  1.8255 -1.1864
 3342TIP3    H231442   3.676   4.730   1.923 -0.8682  1.8727 -1.0123
 3343TIP3   OH231443   2.349   1.866  15.855  0.5390  0.0219  0.7011
 3343TIP3    H131444   2.380   1.954  15.833  1.2361 -0.5015 -0.4560
 3343TIP3    H231445   2.397   1.842  15.934  1.4028  0.1152  0.2035
 3344TIP3   OH231446   1.686   1.667   6.031  0.0856  0.1998 -1.1512
 3344TIP3    H131447   1.657   1.585   6.072  1.3273  0.2995 -0.0270
 3344TIP3    H231448   1.781   1.658   6.025  0.0968  0.9662 -2.3634
 3345TIP3   OH231449   2.024   2.578   5.810  0.1711 -0.4105  0.0153
 3345TIP3    H131450   2.059   2.550   5.895 -0.2829 -0.6754  0.1191
 3345TIP3    H231451   2.093   2.557   5.747  1.3170  1.5625  0.5608
 3346TIP3   OH231452   5.251   3.641   2.180 -0.6453  0.1854  0.0227
 3346TIP3    H131453   5.318   3.644   2.248 -0.0736  0.1443 -0.5289
 3346TIP3    H231454   5.299   3.615   2.101 -1.2664  0.4047 -0.4283
 3347TIP3   OH231455   1.399   3.004  13.559 -0.1242 -0.1164 -0.1224
 3347TIP3    H131456   1.315   2.960  13.568 -0.7316  1.3608  1.5639
 3347TIP3    H231457   1.413   3.047  13.643  2.2826 -0.2726 -0.4110
 3348TIP3   OH231458   5.248   1.413  14.353 -0.5591  0.4531 -0.5286
 3348TIP3    H131459   5.171   1.452  14.312 -0.4924  0.1036 -0.9866
 3348TIP3    H231460   5.271   1.474  14.423 -0.2316  1.4556 -1.4869
 3349TIP3   OH231461   4.623   4.428   5.315  0.2687 -0.0629  0.0891
 3349TIP3    H131462   4.639   4.451   5.224  0.1168  1.7811  0.5045
 3349TIP3    H231463   4.653   4.505   5.365  0.2046 -0.9814  1.5675
 3350TIP3   OH231464   1.990   0.925   0.449  0.0292 -0.5002  0.5121
 3350TIP3    H131465   2.057   0.971   0.499  0.4868 -0.7073  0.0880
 3350TIP3    H231466   1.915   0.921   0.509  0.1017  0.4739  0.6848
 3351TIP3   OH231467   3.172   1.620  13.072 -0.5171  0.3723 -0.0306
 3351TIP3    H131468   3.206   1.703  13.041  0.7866 -0.1198  0.0540
 3351TIP3    H231469   3.080   1.621  13.047 -0.0191  0.9493 -1.8800
 3352TIP3   OH231470   0.711   0.228   2.843  0.0855  0.2893 -0.1289
 3352TIP3    H131471   0.794   0.272   2.823 -0.0239 -1.0932 -4.1846
 3352TIP3    H231472   0.735   0.135   2.847 -0.9945  0.0292  0.4031
 3353TIP3   OH231473   4.613   5.453   1.985  0.3778  0.7455  0.4624
 3353TIP3    H131474   4.649   5.370   1.953  0.7968  1.0339  0.1780
 3353TIP3    H231475   4.622   5.448   2.080  0.0370  0.2972  0.4701
 3354TIP3   OH231476   3.826   5.195   2.487 -0.2387 -0.5104 -0.3256
 3354TIP3    H131477   3.789   5.116   2.447  0.2100 -0.2371 -1.2832
 3354TIP3    H231478   3.771   5.210   2.564 -0.0441 -2.0210  0.1316
 3355TIP3   OH231479   5.332   6.461   5.928  0.2022 -0.4020 -0.0613
 3355TIP3    H131480   5.360   6.477   5.838 -1.9054  1.4031 -0.4618
 3355TIP3    H231481   5.244   6.425   5.919  0.1458 -0.6217  1.2654
 3356TIP3   OH231482   4.393   2.649   5.398  0.1332 -0.5157  0.1455
 3356TIP3    H131483   4.452   2.678   5.468  0.6604 -0.9795 -0.0973
 3356TIP3    H231484   4.307   2.682   5.424  0.6143  0.7957  0.1452
 3357TIP3   OH231485   1.986   0.858  15.903  0.2266 -0.1699 -0.2796
 3357TIP3    H131486   1.935   0.806  15.966  0.8301 -0.4237  0.0071
 3357TIP3    H231487   1.927   0.873  15.830 -0.2400 -0.5161  0.0272
 3358TIP3   OH231488   1.181   0.422  13.886  0.1109 -0.1334  0.1153
 3358TIP3    H131489   1.258   0.395  13.837  0.4441 -0.8587  1.0188
 3358TIP3    H231490   1.108   0.413  13.824  0.6205 -0.3698 -0.4462
 3359TIP3   OH231491   4.049   5.319   2.351  0.3103 -0.0295 -0.2428
 3359TIP3    H131492   4.014   5.263   2.282  1.6897  0.4363 -1.3492
 3359TIP3    H231493   3.981   5.319   2.418 -0.0013 -2.5027 -0.4975
 3360TIP3   OH231494   0.927   3.429   4.776  0.8369 -0.0763 -0.5963
 3360TIP3    H131495   0.963   3.387   4.854  0.0170  0.5767  0.1451
 3360TIP3    H231496   0.989   3.408   4.707  1.7447 -0.3933  0.2993
 3361TIP3   OH231497   1.615   3.868  12.312  0.2252  0.2055  0.5478
 3361TIP3    H131498   1.571   3.788  12.281 -0.9065  0.7769  0.6652
 3361TIP3    H231499   1.683   3.884  12.246 -0.0735 -0.3946  0.0775
 3362TIP3   OH231500   2.496   4.107   1.853 -0.5995 -0.0457 -0.2770
 3362TIP3    H131501   2.420   4.120   1.911  0.8857  0.8589  1.5207
 3362TIP3    H231502   2.519   4.195   1.824  0.9546 -0.0953  0.7677
 3363TIP3   OH231503   4.119   2.556  16.149 -0.3059 -0.2450  0.1934
 3363TIP3    H131504   4.055   2.506  16.200  0.3250 -0.4604  0.7872
 3363TIP3    H231505   4.098   2.648  16.166  0.9800 -0.3067  2.2383
 3364TIP3   OH231506   6.627   4.165   1.560 -0.5579 -0.8168 -0.0842
 3364TIP3    H131507   6.654   4.242   1.511  0.4773 -2.1160 -1.5982
 3364TIP3    H231508   6.675   4.171   1.643 -2.9052  1.7922  1.1952
 3365TIP3   OH231509   3.895   5.417  14.601 -0.2624  0.0817  0.2280
 3365TIP3    H131510   3.940   5.347  14.553 -0.6685 -0.0316  0.0174
 3365TIP3    H231511   3.893   5.491  14.540  0.4386  0.3772  0.5603
 3366TIP3   OH231512   2.716   0.251   4.735 -0.6890  0.4152 -0.3906
 3366TIP3    H131513   2.768   0.327   4.711  0.3646 -0.6757 -1.6764
 3366TIP3    H231514   2.737   0.235   4.827  0.9202  0.2436 -0.7878
 3367TIP3   OH231515   3.311   2.999  12.252  0.5778 -0.3182 -0.6227
 3367TIP3    H131516   3.385   3.052  12.223  0.9690 -1.5336 -1.9311
 3367TIP3    H231517   3.317   2.999  12.347  2.9038 -1.3020 -0.7391
 3368TIP3   OH231518   5.710   4.701  12.385 -0.2725  0.8356 -0.5324
 3368TIP3    H131519   5.779   4.708  12.318 -0.9177 -1.3866 -1.4974
 3368TIP3    H231520   5.629   4.723  12.338 -0.6765 -0.3147 -0.3899
 3369TIP3   OH231521   3.928   1.524  15.348 -0.5845  0.2930 -0.3107
 3369TIP3    H131522   3.927   1.612  15.386  0.0097  0.3057 -0.3164
 3369TIP3    H231523   3.977   1.471  15.412 -0.3024  0.1309 -0.6597
 3370TIP3   OH231524   1.059   6.682  10.919 -0.3417 -0.0552 -0.0981
 3370TIP3    H131525   1.060   6.758  10.861 -0.1921  0.1226  0.1367
 3370TIP3    H231526   1.111   6.616  10.873  0.3882  0.3342  0.1664
 3371TIP3   OH231527   6.713   4.703  12.583  0.0082  0.2694  0.4686
 3371TIP3    H131528   6.713   4.773  12.648  3.5418  0.7862  0.0201
 3371TIP3    H231529   6.798   4.660  12.593 -0.8802 -2.0610 -1.2877
 3372TIP3   OH231530   1.851   3.718  11.399  0.1727  0.1410 -0.0330
 3372TIP3    H131531   1.808   3.797  11.366 -0.3664  0.9231  2.4147
 3372TIP3    H231532   1.780   3.655  11.410  0.2628  0.0664  0.1285
 3373TIP3   OH231533   2.728   4.248   2.629  0.0576 -0.0423  0.3585
 3373TIP3    H131534   2.734   4.332   2.674 -0.3740 -0.0849  0.4920
 3373TIP3    H231535   2.667   4.264   2.557  0.4927 -0.0625 -0.0168
 3374TIP3   OH231536   4.550   1.837   2.273 -0.6542  0.1967 -0.4679
 3374TIP3    H131537   4.644   1.843   2.293 -0.8683  0.9727  0.3810
 3374TIP3    H231538   4.546   1.811   2.182  0.4047  0.7142 -0.6709
 3375TIP3   OH231539   4.262   0.063   9.959 -0.0746  0.3049  0.0168
 3375TIP3    H131540   4.183   0.075  10.011 -0.4920 -0.2931 -0.4697
 3375TIP3    H231541   4.255  -0.026   9.924  0.5156  0.4612 -0.5200
 3376TIP3   OH231542   5.947   1.016   5.675  0.5024 -0.1270  0.0556
 3376TIP3    H131543   5.969   1.066   5.596  0.2202  0.5036  0.3666
 3376TIP3    H231544   5.851   1.018   5.678  0.5274  0.3559  0.7265
 3377TIP3   OH231545   1.798   3.197   3.829  0.4087  0.1737  0.9284
 3377TIP3    H131546   1.765   3.284   3.808  0.1768 -0.0539  0.3256
 3377TIP3    H231547   1.759   3.176   3.914 -0.9919 -0.0675  0.2467
 3378TIP3   OH231548   4.051   2.550   5.791  0.0888 -0.4017  0.1796
 3378TIP3    H131549   4.051   2.623   5.729  1.4524 -0.3825  0.2003
 3378TIP3    H231550   4.073   2.474   5.738  0.6343 -0.4837  0.5191
 3379TIP3   OH231551   4.912   6.646  12.947  0.2932  0.0399 -0.1569
 3379TIP3    H131552   4.880   6.709  13.012  2.1225 -1.9592  2.8362
 3379TIP3    H231553   4.838   6.587  12.932 -0.1298  0.4771  0.1847
 3380TIP3   OH231554   3.600   6.027  10.585  0.2778  0.2455  0.4796
 3380TIP3    H131555   3.550   6.042  10.504 -0.5861  0.0013  0.9546
 3380TIP3    H231556   3.636   5.939  10.575  3.0104  1.4937 -1.0947
 3381TIP3   OH231557   2.869   3.716  13.052  0.0136  0.2505  0.2290
 3381TIP3    H131558   2.911   3.663  12.984 -0.1762  0.3964 -0.0003
 3381TIP3    H231559   2.892   3.672  13.134  0.3998  0.1844  0.0867
 3382TIP3   OH231560   5.504   4.052   5.248  0.2597  0.3315 -1.2760
 3382TIP3    H131561   5.478   3.977   5.195 -1.9787 -1.9543  2.8156
 3382TIP3    H231562   5.591   4.028   5.281 -0.6584 -0.7437  0.4201
 3383TIP3   OH231563   1.258   5.001   1.096  0.0853 -0.7553 -0.2621
 3383TIP3    H131564   1.198   4.930   1.119 -0.4187  0.0174  0.8304
 3383TIP3    H231565   1.222   5.079   1.138  1.2989 -0.0745 -0.4311
 3384TIP3   OH231566   2.829   4.209  15.324  0.3598 -0.6358 -0.1846
 3384TIP3    H131567   2.824   4.115  15.346 -0.2429 -0.3240  1.0860
 3384TIP3    H231568   2.893   4.244  15.386 -0.6120  0.0881  0.4176
 3385TIP3   OH231569   5.713   1.457   3.441 -0.2299 -0.2199  0.1098
 3385TIP3    H131570   5.793   1.481   3.395 -0.2143 -0.9528 -0.2553
 3385TIP3    H231571   5.721   1.362   3.454 -0.2559 -0.0301  1.5752
 3386TIP3   OH231572   0.997   2.579  11.919  0.6995 -0.2380  0.3118
 3386TIP3    H131573   0.977   2.671  11.935 -1.2494 -0.1612 -2.2994
 3386TIP3    H231574   1.086   2.579  11.884  0.3829  0.7553 -0.5101
 3387TIP3   OH231575   4.526   1.317   4.063 -0.4047 -0.6545 -1.1050
 3387TIP3    H131576   4.439   1.334   4.099 -0.4835  0.1736 -1.6711
 3387TIP3    H231577   4.548   1.229   4.095  0.4187  0.8395  2.7890
 3388TIP3   OH231578   2.862   1.145   2.389  0.3293 -0.0056 -0.4904
 3388TIP3    H131579   2.847   1.051   2.379 -0.1335 -0.0379  0.4639
 3388TIP3    H231580   2.779   1.186   2.365  1.0469  0.2772 -2.5910
 3389TIP3   OH231581   5.927   2.275  16.078  0.1041 -0.5595  0.0960
 3389TIP3    H131582   5.888   2.250  15.994 -1.5976 -1.6421  1.1883
 3389TIP3    H231583   5.899   2.208  16.139  1.9715 -0.1934  1.3935
 3390TIP3   OH231584   5.430   0.813  15.576 -0.3061 -0.2291 -0.3664
 3390TIP3    H131585   5.339   0.823  15.605 -0.5402 -3.1002  0.0714
 3390TIP3    H231586   5.442   0.882  15.510 -2.8903  0.0249 -0.6325
 3391TIP3   OH231587   6.157   0.692   2.801  0.4266 -0.4469 -0.7841
 3391TIP3    H131588   6.097   0.641   2.747 -0.7250  0.5683 -0.5035
 3391TIP3    H231589   6.222   0.629   2.832 -0.4051 -1.5357 -1.2321
 3392TIP3   OH231590   2.354   1.609   5.148 -0.9971 -0.3425 -0.0489
 3392TIP3    H131591   2.391   1.697   5.148 -2.4309  0.2584  0.0908
 3392TIP3    H231592   2.391   1.567   5.070 -2.1697  1.1588 -1.4313
 3393TIP3   OH231593   6.109   1.597  12.664  0.0499 -0.0771  0.2082
 3393TIP3    H131594   6.125   1.631  12.752  1.6432 -1.0364  0.3185
 3393TIP3    H231595   6.189   1.550  12.642 -2.1097 -3.9760  0.1880
 3394TIP3   OH231596   1.460   3.697   4.696 -0.0971 -0.8022 -0.6211
 3394TIP3    H131597   1.461   3.789   4.723 -0.1139 -0.4741 -1.7089
 3394TIP3    H231598   1.512   3.652   4.763  0.5793  0.1271 -0.5058
 3395TIP3   OH231599   5.102   5.373   0.614  0.1851 -0.0578  0.2144
 3395TIP3    H131600   5.105   5.453   0.562 -0.4068  1.0873  1.8863
 3395TIP3    H231601   5.194   5.356   0.636  0.2759  0.3864  0.1930
 3396TIP3   OH231602   4.832   4.387   3.590  0.3027  0.0750  0.0560
 3396TIP3    H131603   4.925   4.390   3.612  0.1247  1.6091  0.6849
 3396TIP3    H231604   4.825   4.433   3.507  0.2162 -0.8477 -0.4583
 3397TIP3   OH231605   6.140   3.358   2.154 -0.1376 -0.0434 -0.5141
 3397TIP3    H131606   6.118   3.340   2.245  0.2989  1.3768 -0.1074
 3397TIP3    H231607   6.065   3.405   2.119  0.2782  0.6661 -0.4704
 3398TIP3   OH231608   1.507   1.681  12.274 -0.2548  0.1011 -0.2880
 3398TIP3    H131609   1.485   1.627  12.349 -0.8829 -2.0854 -1.9907
 3398TIP3    H231610   1.422   1.709  12.239 -0.0645 -0.9114 -1.5988
 3399TIP3   OH231611   5.988   4.706  12.042 -0.2059 -0.0727  0.7724
 3399TIP3    H131612   5.948   4.621  12.027 -0.2771  0.0351  0.3504
 3399TIP3    H231613   6.007   4.740  11.955 -1.6866  1.0664  0.8771
 3400TIP3   OH231614   4.201   4.972  11.412  0.2249 -0.2697 -0.5340
 3400TIP3    H131615   4.199   5.067  11.427 -0.2565 -0.1738 -1.1599
 3400TIP3    H231616   4.120   4.954  11.363 -1.6373 -1.5964  2.8380
 3401TIP3   OH231617   0.202   0.695  14.397  0.2157 -0.1637  0.2248
 3401TIP3    H131618   0.207   0.709  14.491  0.1078  0.9175  0.0729
 3401TIP3    H231619   0.151   0.770  14.364 -1.1325 -1.3653 -0.4940
 3402TIP3   OH231620   3.876   2.287   2.813  0.1816  0.4624  0.0785
 3402TIP3    H131621   3.897   2.330   2.730 -1.5985  0.2401 -0.4975
 3402TIP3    H231622   3.785   2.310   2.829  0.6853  1.0129  2.2914
 3403TIP3   OH231623   1.969   6.011  14.920  0.2798  0.4857 -0.1080
 3403TIP3    H131624   2.055   5.999  14.878 -0.0240  0.7709 -0.8118
 3403TIP3    H231625   1.982   6.086  14.979  0.6698  0.1698  0.2103
 3404TIP3   OH231626   1.440   4.260  14.531 -0.3325 -0.2292 -0.3772
 3404TIP3    H131627   1.426   4.176  14.574 -2.7393  0.7796  0.8907
 3404TIP3    H231628   1.474   4.318  14.599 -0.6045  0.3782 -0.7481
 3405TIP3   OH231629   5.528   3.064   4.341  0.2899 -0.1594 -0.1063
 3405TIP3    H131630   5.574   3.012   4.275 -0.1767  0.8066 -1.2062
 3405TIP3    H231631   5.578   3.050   4.421  1.2190 -0.8697 -0.7978
 3406TIP3   OH231632   6.687   1.912   3.548 -0.7374  0.1711  0.2803
 3406TIP3    H131633   6.723   1.996   3.574 -0.9791 -0.4836  2.8176
 3406TIP3    H231634   6.593   1.918   3.567 -1.1076 -0.0196 -1.3402
 3407TIP3   OH231635   6.721   3.560  14.210 -0.1745 -0.0456 -0.3909
 3407TIP3    H131636   6.752   3.498  14.277 -3.4190  0.5042  1.7506
 3407TIP3    H231637   6.739   3.646  14.248 -0.6168  0.2789 -0.9129
 3408TIP3   OH231638   4.626   5.510   5.002 -0.1801 -0.0385 -0.4126
 3408TIP3    H131639   4.599   5.422   5.030 -1.3532  0.5492  0.3415
 3408TIP3    H231640   4.557   5.568   5.035  0.3111  1.1066 -1.3636
 3409TIP3   OH231641   4.233   6.069   5.446  0.4904  0.6512  0.6508
 3409TIP3    H131642   4.312   6.035   5.403  1.6193  3.0353  0.7675
 3409TIP3    H231643   4.261   6.086   5.536 -0.5172  0.3030  1.0326
 3410TIP3   OH231644   1.413   5.176  13.778  0.0036  0.4536  0.3072
 3410TIP3    H131645   1.413   5.199  13.684  3.4204  1.6503  0.5383
 3410TIP3    H231646   1.430   5.082  13.780 -1.2534  0.2059 -0.2993
 3411TIP3   OH231647   5.905   3.546  12.429  0.1049 -0.3051 -0.2929
 3411TIP3    H131648   5.962   3.474  12.455  0.2888 -0.1351 -0.2241
 3411TIP3    H231649   5.817   3.509  12.432  0.1664 -0.4257  0.0899
 3412TIP3   OH231650   1.026   2.919  16.729  0.1218 -0.0281  0.0207
 3412TIP3    H131651   1.008   2.827  16.708 -0.5544 -0.4996  2.5601
 3412TIP3    H231652   0.940   2.962  16.721  0.3989  0.3641 -0.9525
 3413TIP3   OH231653   1.369   2.882   1.371  0.1880 -0.4208 -0.2233
 3413TIP3    H131654   1.444   2.938   1.391 -0.1272  0.5843 -1.7720
 3413TIP3    H231655   1.303   2.908   1.436  0.8589 -0.6754  0.5742
 3414TIP3   OH231656   6.722   3.627  15.264 -0.3121 -0.4943 -0.1707
 3414TIP3    H131657   6.788   3.558  15.276  0.0008 -0.6412 -2.5350
 3414TIP3    H231658   6.757   3.682  15.195 -1.9066  0.4057 -0.2874
 3415TIP3   OH231659   4.589   6.415  10.610 -0.3939 -0.3902 -0.3764
 3415TIP3    H131660   4.677   6.391  10.640 -0.1899 -1.0827 -1.5315
 3415TIP3    H231661   4.558   6.477  10.676 -0.3381 -2.6187  1.8421
 3416TIP3   OH231662   0.886   4.180   4.081 -0.1399 -0.2308  0.1935
 3416TIP3    H131663   0.900   4.199   4.174  0.9768 -1.3809  0.2725
 3416TIP3    H231664   0.919   4.091   4.069  0.5216  0.2171 -1.4848
 3417TIP3   OH231665   2.289   0.619   5.638  0.8255 -0.9391 -0.1511
 3417TIP3    H131666   2.236   0.568   5.577 -0.5066  0.2128  0.0104
 3417TIP3    H231667   2.309   0.558   5.709 -0.8039 -1.2484  0.0786
 3418TIP3   OH231668   1.709   4.095  11.536  0.5105 -0.3717 -0.1809
 3418TIP3    H131669   1.703   4.032  11.608  1.6589  0.4793  0.6867
 3418TIP3    H231670   1.754   4.047  11.466 -0.0126 -0.9897 -0.0981
 3419TIP3   OH231671   1.732   5.727   3.346  0.2435  0.3680  0.0953
 3419TIP3    H131672   1.665   5.773   3.296 -0.9776 -0.3004  1.0859
 3419TIP3    H231673   1.802   5.791   3.358  0.1568  0.8192 -1.6520
 3420TIP3   OH231674   0.333   4.226   3.786 -0.1838  0.2449 -0.0050
 3420TIP3    H131675   0.258   4.206   3.841  1.0354 -0.4382  1.4343
 3420TIP3    H231676   0.395   4.268   3.845  0.3565  1.3046 -1.3065
 3421TIP3   OH231677   6.398   6.164   1.880  0.2439  0.2167 -0.4216
 3421TIP3    H131678   6.458   6.091   1.893 -1.6205 -1.0174  1.5632
 3421TIP3    H231679   6.424   6.229   1.945  1.0960  0.7943 -1.3347
 3422TIP3   OH231680   0.254   4.582   1.688  0.3646  0.0112 -0.5801
 3422TIP3    H131681   0.200   4.520   1.738  0.3760  0.0617 -0.5061
 3422TIP3    H231682   0.284   4.645   1.753 -0.7694  0.8951 -0.8932
 3423TIP3   OH231683   0.860   1.892   4.284  0.1008  0.1380 -0.3022
 3423TIP3    H131684   0.841   1.985   4.272 -0.0652  0.1039 -0.3017
 3423TIP3    H231685   0.841   1.874   4.376 -1.6181 -0.3091 -0.7264
 3424TIP3   OH231686   0.526   5.135   0.952  0.2736 -0.1803  0.0937
 3424TIP3    H131687   0.601   5.148   1.009 -0.4973  0.9400  0.8630
 3424TIP3    H231688   0.498   5.045   0.969  1.3349 -0.5506 -0.0845
 3425TIP3   OH231689   5.423   5.337  15.395  0.8227 -0.1657 -0.2211
 3425TIP3    H131690   5.339   5.314  15.356  0.4874 -0.5517  0.7332
 3425TIP3    H231691   5.469   5.254  15.406 -0.0271 -0.3078  2.3774
 3426TIP3   OH231692   1.990   0.804   5.077  0.2118  0.4632  0.5950
 3426TIP3    H131693   1.947   0.811   5.163 -0.0305  0.6249  0.4596
 3426TIP3    H231694   2.055   0.874   5.077 -0.2622  0.9039  0.3725
 3427TIP3   OH231695   0.696   2.948  11.374 -0.0476 -0.5170  0.6038
 3427TIP3    H131696   0.696   2.989  11.288 -0.6692  2.0776  1.7814
 3427TIP3    H231697   0.777   2.898  11.377  0.3563  0.0004 -1.2000
 3428TIP3   OH231698   2.118   5.604  12.009 -0.7196  0.5439 -0.3646
 3428TIP3    H131699   2.169   5.679  12.038  0.4746 -0.3661 -0.0807
 3428TIP3    H231700   2.091   5.625  11.920  2.4992 -0.1445 -1.5423
 3429TIP3   OH231701   5.295   1.442   1.307  0.1135  0.0009  0.0555
 3429TIP3    H131702   5.372   1.426   1.361 -0.3121  0.4938  0.8260
 3429TIP3    H231703   5.327   1.493   1.232  0.1817  2.1484  1.4973
 3430TIP3   OH231704   0.834   4.411   6.431 -0.3774 -0.3897 -0.5194
 3430TIP3    H131705   0.849   4.372   6.517 -0.4995  1.4886  0.3626
 3430TIP3    H231706   0.742   4.392   6.412 -1.2308  1.8849  1.1781
 3431TIP3   OH231707   0.989   3.220   0.794  0.6517  0.2227  0.7703
 3431TIP3    H131708   0.901   3.256   0.799  1.2069  1.4674  2.0519
 3431TIP3    H231709   0.999   3.195   0.702 -1.7734 -1.9347  1.0540
 3432TIP3   OH231710   5.803   2.270   1.864  0.2451 -0.0380  0.0715
 3432TIP3    H131711   5.845   2.227   1.789  0.3343 -1.6854  1.0304
 3432TIP3    H231712   5.851   2.237   1.940  0.0377  1.4814  0.8842
 3433TIP3   OH231713   3.860   1.240   0.499 -0.7270 -0.0815  0.4546
 3433TIP3    H131714   3.772   1.268   0.526 -0.9737 -1.1082  0.7111
 3433TIP3    H231715   3.852   1.227   0.404 -1.3869 -2.0862  0.7584
 3434TIP3   OH231716   3.693   2.467   5.316  0.3052  0.3562 -0.1591
 3434TIP3    H131717   3.615   2.523   5.312  0.8281  1.0544 -0.7971
 3434TIP3    H231718   3.755   2.516   5.370  0.4670  0.0028 -0.0220
 3435TIP3   OH231719   6.150   5.627  16.475 -0.2875  0.2547  0.6239
 3435TIP3    H131720   6.187   5.613  16.387 -0.5202  0.5452  0.4798
 3435TIP3    H231721   6.150   5.540  16.515  0.4699  0.2357  0.5967
 3436TIP3   OH231722   5.914   3.252  14.065  0.0892  0.8972  0.1105
 3436TIP3    H131723   5.969   3.304  14.007  0.7289 -1.5217 -1.4919
 3436TIP3    H231724   5.834   3.237  14.015 -0.3757  0.8937  0.8382
 3437TIP3   OH231725   1.206   1.193   4.182 -0.3507  0.1496  0.2712
 3437TIP3    H131726   1.290   1.233   4.162 -1.0208  1.1338 -0.5814
 3437TIP3    H231727   1.187   1.222   4.271 -0.2907  0.7880  0.0777
 3438TIP3   OH231728   5.997   5.088  15.125  0.2756 -0.6159 -0.6624
 3438TIP3    H131729   6.028   5.178  15.128 -0.2120 -0.4841  0.9777
 3438TIP3    H231730   5.980   5.071  15.032 -2.0756  1.8104 -0.7436
 3439TIP3   OH231731   1.096   2.858   5.334  0.1118  0.1413 -0.4562
 3439TIP3    H131732   1.113   2.764   5.333  0.3307  0.1726  0.1113
 3439TIP3    H231733   1.054   2.873   5.419  2.3389  0.9425  0.5390
 3440TIP3   OH231734   6.701   1.500  16.993  0.6820  0.8282  0.0012
 3440TIP3    H131735   6.700   1.414  16.950  1.9540  0.4327  0.7634
 3440TIP3    H231736   6.615   1.506  17.034 -0.2630  0.8727 -1.9135
 3441TIP3   OH231737   2.877   0.866   4.062  0.1672 -0.5801  0.0322
 3441TIP3    H131738   2.946   0.806   4.088 -0.7244 -1.8436 -0.4806
 3441TIP3    H231739   2.796   0.816   4.072 -0.4673  0.0205 -1.9012
 3442TIP3   OH231740   2.173   6.664   2.532  0.6808  0.2312 -0.2190
 3442TIP3    H131741   2.144   6.750   2.502 -0.2283  0.0821  0.2157
 3442TIP3    H231742   2.155   6.605   2.459 -0.1509  0.1340  0.0613
 3443TIP3   OH231743   2.330   5.410   2.307  0.4100  0.0254 -0.1862
 3443TIP3    H131744   2.340   5.319   2.280  0.4024  0.2235 -0.8818
 3443TIP3    H231745   2.237   5.428   2.296  0.0676 -0.4448  1.8034
 3444TIP3   OH231746   5.318   6.497  12.484  0.3537  0.3952  0.1885
 3444TIP3    H131747   5.339   6.418  12.435 -1.4793  0.4823 -0.8019
 3444TIP3    H231748   5.323   6.471  12.576  0.4303 -0.6891 -0.1215
 3445TIP3   OH231749   5.851   0.070  11.795  0.5574  0.0867  0.2054
 3445TIP3    H131750   5.862   0.130  11.721  3.9878 -1.4271 -0.6418
 3445TIP3    H231751   5.917   0.002  11.780 -1.0078 -2.1376  2.8572
 3446TIP3   OH231752   3.248   4.371   1.009 -0.4769 -0.5120 -0.0344
 3446TIP3    H131753   3.332   4.386   1.052 -0.5150 -1.2663  0.3135
 3446TIP3    H231754   3.247   4.277   0.990 -1.2577 -0.5150 -0.0114
 3447TIP3   OH231755   5.658   6.164   0.542 -0.1642  0.5873 -0.3166
 3447TIP3    H131756   5.734   6.182   0.487 -0.8494 -0.2480 -1.5533
 3447TIP3    H231757   5.682   6.087   0.593  0.0893  0.7635 -0.1694
 3448TIP3   OH231758   5.911   6.746  16.259 -0.0806 -0.0177 -0.1499
 3448TIP3    H131759   5.987   6.779  16.211  0.0556  0.4445  0.3761
 3448TIP3    H231760   5.836   6.790  16.219  0.1544  1.4229  0.9495
 3449TIP3   OH231761   6.054   0.422  10.780  0.1120  0.4150 -0.1466
 3449TIP3    H131762   6.084   0.371  10.855  0.3644 -0.3887 -0.7854
 3449TIP3    H231763   6.085   0.511  10.797  0.3760  0.1847  0.5784
 3450TIP3   OH231764   2.805   2.366  13.937 -0.3655  0.4704  0.4526
 3450TIP3    H131765   2.731   2.345  13.993 -1.3256  2.6067  0.0359
 3450TIP3    H231766   2.832   2.282  13.900 -1.4525 -0.5642  1.9649
 3451TIP3   OH231767   0.514   4.485  12.153  0.0505 -0.3564  0.3014
 3451TIP3    H131768   0.522   4.476  12.247  1.3129 -1.5446  0.0948
 3451TIP3    H231769   0.581   4.427  12.117 -1.0358 -0.6361 -1.3381
 3452TIP3   OH231770   2.274   4.102  11.181 -0.0339  0.1796  0.4185
 3452TIP3    H131771   2.316   4.073  11.262  1.0776 -0.9810 -0.5519
 3452TIP3    H231772   2.339   4.085  11.113 -1.2534  0.3999 -0.8239
 3453TIP3   OH231773   2.964   0.470   2.832  0.2970  0.5051  0.0243
 3453TIP3    H131774   3.048   0.496   2.795  1.6696 -0.5205  2.3133
 3453TIP3    H231775   2.921   0.552   2.854  1.2208  1.0182 -0.0702
 3454TIP3   OH231776   0.764   5.633  16.785 -0.4014 -0.4865  0.5279
 3454TIP3    H131777   0.675   5.666  16.786 -0.4992 -0.7653  1.3759
 3454TIP3    H231778   0.819   5.712  16.792 -0.6376 -0.4844  2.8100
 3455TIP3   OH231779   0.501   4.859   2.083 -0.2920 -0.2767 -0.3979
 3455TIP3    H131780   0.471   4.948   2.101 -2.8724 -1.1168 -0.4254
 3455TIP3    H231781   0.485   4.811   2.164  1.0671 -0.7546 -0.3952
 3456TIP3   OH231782   5.093   5.846   0.583  0.6070  0.2889 -0.4419
 3456TIP3    H131783   5.156   5.783   0.547  0.2105  0.0480 -0.7265
 3456TIP3    H231784   5.026   5.854   0.515  0.1154  0.2251  0.0271
 3457TIP3   OH231785   1.247   3.477   2.027  0.7945  0.3763 -0.4281
 3457TIP3    H131786   1.165   3.430   2.045 -0.6913  2.5591 -1.3661
 3457TIP3    H231787   1.315   3.411   2.040 -1.0949 -1.4718  0.4150
 3458TIP3   OH231788   3.369   3.770   4.071  0.5209 -0.0698  0.0121
 3458TIP3    H131789   3.461   3.757   4.049  0.5534  0.2142 -0.0246
 3458TIP3    H231790   3.353   3.711   4.144  1.1475  1.0321  1.0681
 3459TIP3   OH231791   2.120   4.061   0.453  0.3480  0.1603 -0.2512
 3459TIP3    H131792   2.093   3.970   0.442  0.6737  0.1695 -1.1414
 3459TIP3    H231793   2.038   4.108   0.468 -0.1261  0.1425 -2.6400
 3460TIP3   OH231794   4.138   0.088  11.575  0.9592 -0.1739 -0.1627
 3460TIP3    H131795   4.103   0.047  11.654 -0.2547 -0.8441 -1.0353
 3460TIP3    H231796   4.130   0.021  11.507 -0.3043  1.2143 -1.4263
 3461TIP3   OH231797   3.593   4.449   5.360 -0.3594  0.8197  0.0905
 3461TIP3    H131798   3.681   4.440   5.396  0.1817  1.0648 -1.1439
 3461TIP3    H231799   3.589   4.541   5.331 -0.5089  0.4318 -1.1463
 3462TIP3   OH231800   1.084   6.287   1.212 -0.3333  0.0300 -0.0986
 3462TIP3    H131801   1.046   6.296   1.300 -1.5673 -1.5232 -0.4521
 3462TIP3    H231802   1.009   6.287   1.153  0.3684 -0.8109 -1.0050
 3463TIP3   OH231803   6.641   4.373   3.859 -0.2547 -0.2070  0.0904
 3463TIP3    H131804   6.722   4.396   3.814 -1.4536  1.2972 -1.3947
 3463TIP3    H231805   6.652   4.406   3.948  0.8733 -0.3002 -0.0097
 3464TIP3   OH231806   4.433   0.469   1.341 -0.5552  0.5795  0.1680
 3464TIP3    H131807   4.354   0.522   1.328 -1.7294 -0.6691  1.9391
 3464TIP3    H231808   4.483   0.516   1.408 -0.8909  0.1931  0.6874
 3465TIP3   OH231809   3.456   1.639  10.568 -0.6868 -0.4140  0.7022
 3465TIP3    H131810   3.473   1.712  10.628  1.2347 -1.6344  1.6704
 3465TIP3    H231811   3.542   1.616  10.533 -1.4046 -1.6400 -0.2889
 3466TIP3   OH231812   3.913   0.960   0.543  0.4043  0.1338  0.0494
 3466TIP3    H131813   3.827   0.923   0.566 -0.8238  0.5976 -3.4092
 3466TIP3    H231814   3.896   1.054   0.533  1.3694  0.2660 -0.3588
 3467TIP3   OH231815   5.381   4.746   3.335 -0.2991  0.4077 -0.0956
 3467TIP3    H131816   5.395   4.712   3.423 -0.7536 -0.5437 -0.3851
 3467TIP3    H231817   5.438   4.823   3.330  0.0037  0.2585  0.8990
 3468TIP3   OH231818   3.984   5.215  11.150  0.7286 -0.3666 -0.3783
 3468TIP3    H131819   3.967   5.195  11.058  0.9716  0.9181 -0.7110
 3468TIP3    H231820   3.911   5.174  11.197  0.3153 -0.5727 -1.1872
 3469TIP3   OH231821   5.890   5.692   0.408 -0.4411 -0.8513 -0.3601
 3469TIP3    H131822   5.857   5.608   0.376  0.4791 -0.6279 -1.9238
 3469TIP3    H231823   5.867   5.755   0.339  0.8522 -0.2225 -0.2374
 3470TIP3   OH231824   5.436   6.726  12.164  0.6933 -0.1802  0.1796
 3470TIP3    H131825   5.477   6.764  12.241 -1.6824 -0.6747  1.7388
 3470TIP3    H231826   5.446   6.631  12.176 -0.2704 -0.2821  0.2312
 3471TIP3   OH231827   0.357   0.116   0.938  0.1962  0.2144  0.0563
 3471TIP3    H131828   0.276   0.119   0.886  0.6998  0.3334 -0.7245
 3471TIP3    H231829   0.363   0.025   0.968  0.9144 -0.3326 -1.7169
 3472TIP3   OH231830   1.612   3.602   3.980  0.4651  0.7196  0.4371
 3472TIP3    H131831   1.595   3.518   4.022 -0.0767  0.1448 -0.8914
 3472TIP3    H231832   1.531   3.623   3.934  0.1091  2.6782  1.8906
 3473TIP3   OH231833   3.303   3.352  12.493  0.4693 -0.1850  1.0452
 3473TIP3    H131834   3.225   3.305  12.465  1.8571 -1.7365 -0.3243
 3473TIP3    H231835   3.295   3.438  12.452  0.1325 -0.8032 -0.2005
 3474TIP3   OH231836   1.154   6.258  16.741  0.2986  0.6170 -0.1771
 3474TIP3    H131837   1.250   6.255  16.748  0.2268  1.5169  1.3975
 3474TIP3    H231838   1.129   6.167  16.726  1.4515  0.4913 -1.4223
 3475TIP3   OH231839   1.324   6.534   3.842 -0.2311 -0.2545  0.2834
 3475TIP3    H131840   1.308   6.613   3.790 -0.4866 -1.6520 -1.8367
 3475TIP3    H231841   1.314   6.563   3.933  1.3846  2.5223 -0.3581
 3476TIP3   OH231842   2.888   1.829  11.482 -0.2164 -0.3924  0.2479
 3476TIP3    H131843   2.889   1.826  11.578 -0.6436  0.2412  0.2732
 3476TIP3    H231844   2.958   1.769  11.456  0.7715  0.4333  0.9750
 3477TIP3   OH231845   2.789   0.826   1.557  0.1143 -0.3670  0.1767
 3477TIP3    H131846   2.797   0.858   1.646 -1.6840  2.0051 -0.4830
 3477TIP3    H231847   2.716   0.765   1.560 -0.2323  0.0541  0.2203
 3478TIP3   OH231848   5.010   1.349   2.240  0.0750  0.4588  0.1001
 3478TIP3    H131849   5.077   1.368   2.306 -1.0058  0.2874  1.2701
 3478TIP3    H231850   4.932   1.392   2.273 -1.0737 -1.5890  0.1253
 3479TIP3   OH231851   0.851   6.197   5.723  0.0900 -0.0789 -0.1386
 3479TIP3    H131852   0.854   6.210   5.818  1.8712 -0.3052 -0.1390
 3479TIP3    H231853   0.792   6.123   5.711 -1.3470  0.9147  0.6757
 3480TIP3   OH231854   1.234   5.757  16.155 -0.0955 -0.4360 -0.6391
 3480TIP3    H131855   1.303   5.744  16.220  0.2471 -3.3178 -1.5077
 3480TIP3    H231856   1.153   5.760  16.206  0.4465  0.5761  0.1727
 3481TIP3   OH231857   2.639   5.642  17.073  0.3171  0.3506  1.1219
 3481TIP3    H131858   2.606   5.674  16.989 -0.7630 -3.2188  0.1203
 3481TIP3    H231859   2.569   5.660  17.135 -1.1438 -1.7969  0.1600
 3482TIP3   OH231860   1.455   6.461   5.871  0.3170 -0.4214  0.0903
 3482TIP3    H131861   1.534   6.410   5.885 -0.4476 -1.7286 -0.2966
 3482TIP3    H231862   1.474   6.515   5.794  0.6363 -1.1419 -0.3409
 3483TIP3   OH231863   2.137   5.994  13.384 -0.7970 -0.1849 -0.2783
 3483TIP3    H131864   2.165   5.917  13.334  1.0519  0.2069  0.1006
 3483TIP3    H231865   2.046   5.976  13.408 -0.3206 -2.3652 -0.0066
 3484TIP3   OH231866   4.546   3.945   2.369 -0.0110  0.4273  0.5511
 3484TIP3    H131867   4.507   4.005   2.432 -0.5988  0.9805 -0.3317
 3484TIP3    H231868   4.489   3.868   2.371 -0.1884  0.5562  0.4965
 3485TIP3   OH231869   2.780   6.467   2.460 -0.0421  0.1318  0.2037
 3485TIP3    H131870   2.801   6.521   2.384 -0.5360 -0.3634 -0.2838
 3485TIP3    H231871   2.853   6.483   2.521  0.8354 -0.1923 -0.7501
 3486TIP3   OH231872   6.478   3.786  16.484 -0.1313 -0.3955  0.0420
 3486TIP3    H131873   6.503   3.745  16.402 -3.5847  0.0643 -1.3545
 3486TIP3    H231874   6.505   3.724  16.552  1.5776 -1.3875 -1.5165
 3487TIP3   OH231875   6.699   5.481  15.388  0.3127  0.3637 -0.6149
 3487TIP3    H131876   6.712   5.416  15.319  0.5245  0.8837 -1.0655
 3487TIP3    H231877   6.711   5.566  15.344 -2.5101  0.8125 -0.6134
 3488TIP3   OH231878   5.785   5.532  12.583 -0.1737  0.1106  0.7102
 3488TIP3    H131879   5.709   5.507  12.532  0.6295  0.2008 -0.5557
 3488TIP3    H231880   5.769   5.496  12.670 -0.9668 -1.1542  0.0510
 3489TIP3   OH231881   2.170   1.375   0.412  0.8071 -0.2274 -0.4780
 3489TIP3    H131882   2.154   1.335   0.497  2.4288  2.6245  1.2304
 3489TIP3    H231883   2.207   1.304   0.359  0.2688 -1.9060  1.3304
 3490TIP3   OH231884   1.757   5.877  12.375 -0.4867 -0.1471  0.2746
 3490TIP3    H131885   1.802   5.937  12.435  0.1617  1.2321 -1.5457
 3490TIP3    H231886   1.671   5.916  12.361 -1.5713 -1.7238  2.1356
 3491TIP3   OH231887   3.599   3.093  13.971  0.0705 -0.0272  0.6711
 3491TIP3    H131888   3.641   3.179  13.971  0.3985 -0.1741 -0.8835
 3491TIP3    H231889   3.666   3.033  13.938 -0.8835 -0.4913 -0.4541
 3492TIP3   OH231890   2.170   0.579   3.705 -0.0225  0.1076  0.6132
 3492TIP3    H131891   2.179   0.637   3.781 -5.4661 -0.0257  1.5698
 3492TIP3    H231892   2.241   0.516   3.714  2.3536  2.9781  2.8932
 3493TIP3   OH231893   5.583   3.031  16.425 -0.5471  0.3459 -0.0474
 3493TIP3    H131894   5.588   2.985  16.508  0.3511 -0.4216 -0.5129
 3493TIP3    H231895   5.674   3.053  16.404 -0.7848  0.7010 -0.7303
 3494TIP3   OH231896   1.827   1.250   3.812  0.1793  0.1459  0.2334
 3494TIP3    H131897   1.770   1.195   3.867 -3.9687  4.2842  0.4795
 3494TIP3    H231898   1.877   1.302   3.875  0.3665  0.1887  0.0492
 3495TIP3   OH231899   2.609   0.423  13.507  0.0305  0.3287  0.3046
 3495TIP3    H131900   2.613   0.327  13.509 -0.4628  0.3295  1.2681
 3495TIP3    H231901   2.651   0.451  13.588  0.0670  0.9277  0.0795
 3496TIP3   OH231902   0.554   0.719   1.936 -0.2606 -0.3020  1.1055
 3496TIP3    H131903   0.565   0.695   1.844  0.2419 -1.9128  1.5714
 3496TIP3    H231904   0.579   0.811   1.940  0.2246 -0.3609 -0.2793
 3497TIP3   OH231905   4.218   1.383  16.406  0.1255  0.7265 -0.2403
 3497TIP3    H131906   4.292   1.356  16.461 -0.3824 -0.8509 -0.3121
 3497TIP3    H231907   4.165   1.304  16.396 -0.5360  1.3499 -1.8357
 3498TIP3   OH231908   5.219   4.562  10.978 -0.0087  0.1249  0.1983
 3498TIP3    H131909   5.175   4.557  10.893  1.9717  0.5981 -0.8716
 3498TIP3    H231910   5.279   4.636  10.970  0.3493  0.0385  1.9449
 3499TIP3   OH231911   0.455   5.181  13.137  0.3388 -0.2869  0.0745
 3499TIP3    H131912   0.476   5.108  13.079  0.9183 -0.7312  0.8217
 3499TIP3    H231913   0.388   5.231  13.091  1.3402 -0.1984 -1.3057
 3500TIP3   OH231914   6.636   0.789   0.471  0.1632 -0.0348  0.7737
 3500TIP3    H131915   6.728   0.773   0.490  0.4444  1.5096  0.7717
 3500TIP3    H231916   6.596   0.702   0.471  2.0652 -0.9533 -1.6671
 3501TIP3   OH231917   5.413   2.441   0.610 -0.6959  0.0043  0.0164
 3501TIP3    H131918   5.372   2.396   0.685  2.3349  1.2714  2.5491
 3501TIP3    H231919   5.496   2.395   0.597 -0.5134  0.7576 -1.6148
 3502TIP3   OH231920   6.276   3.853  17.237  0.1887 -0.1502 -0.5107
 3502TIP3    H131921   6.269   3.948  17.250 -1.0110 -0.2580 -0.3465
 3502TIP3    H231922   6.370   3.836  17.242  0.4269  1.0503 -0.6773
 3503TIP3   OH231923   3.166   0.489   1.999  0.3375  0.2668  0.1937
 3503TIP3    H131924   3.108   0.555   2.038  0.5115  1.0067 -0.7876
 3503TIP3    H231925   3.109   0.437   1.943  0.7535  1.4772 -1.3710
 3504TIP3   OH231926   3.426   3.010   3.258  0.1960 -0.7249 -0.5028
 3504TIP3    H131927   3.519   2.988   3.256 -0.1284 -2.1759 -0.1673
 3504TIP3    H231928   3.398   2.990   3.347 -0.3433  0.1041 -0.4819
 3505TIP3   OH231929   5.835   6.187  15.835 -0.4388 -0.2618 -0.2792
 3505TIP3    H131930   5.798   6.275  15.825 -0.7596 -0.2492  0.9166
 3505TIP3    H231931   5.759   6.130  15.845 -0.2277 -0.6802 -1.0479
 3506TIP3   OH231932   6.678   5.316   3.608 -0.3123  0.1253 -0.0632
 3506TIP3    H131933   6.617   5.358   3.547 -0.8352 -0.0238  0.3539
 3506TIP3    H231934   6.762   5.357   3.590 -1.2035  2.9037  1.7990
 3507TIP3   OH231935   0.092   3.489   4.660 -0.1480 -0.6326  0.3940
 3507TIP3    H131936   0.179   3.516   4.686 -0.2394  0.2689 -0.2048
 3507TIP3    H231937   0.106   3.424   4.591  0.0526 -0.8184  0.6112
 3508TIP3   OH231938   6.102   0.652   1.386  0.0777 -0.5707  0.7073
 3508TIP3    H131939   6.057   0.664   1.469 -0.0606  0.3352  0.5042
 3508TIP3    H231940   6.036   0.666   1.319  0.5442  0.2662  0.4168
 3509TIP3   OH231941   3.361   5.319   1.887 -0.2064 -0.1986  0.0047
 3509TIP3    H131942   3.303   5.290   1.816  0.1704  2.0957 -1.3079
 3509TIP3    H231943   3.416   5.385   1.846 -0.4709  1.7116  2.6432
 3510TIP3   OH231944   4.627   1.229  12.588  0.1897  0.1393 -0.0374
 3510TIP3    H131945   4.641   1.166  12.517  1.8647  1.6866 -1.1298
 3510TIP3    H231946   4.556   1.285  12.557 -1.9410 -1.7447  1.3355
 3511TIP3   OH231947   6.448   2.931  13.995 -0.0750  0.4976 -0.7951
 3511TIP3    H131948   6.446   2.869  13.922  0.8876 -1.3751  0.7349
 3511TIP3    H231949   6.460   3.017  13.953  1.1062 -0.5992 -2.7993
 3512TIP3   OH231950   6.263   2.187  17.104  0.4356 -0.0765  0.2373
 3512TIP3    H131951   6.215   2.114  17.065 -1.9489  0.9121  1.2121
 3512TIP3    H231952   6.200   2.227  17.164  1.7437  2.6686 -0.1591
 3513TIP3   OH231953   5.126   5.612  14.327 -0.4943  0.5375  0.0925
 3513TIP3    H131954   5.042   5.566  14.323 -0.1573 -0.0008 -1.0798
 3513TIP3    H231955   5.134   5.640  14.418 -1.2820 -0.6500  0.5337
 3514TIP3   OH231956   4.633   2.373  17.175 -0.3474 -0.1964  0.0632
 3514TIP3    H131957   4.680   2.325  17.243  0.8295 -0.6536 -1.0635
 3514TIP3    H231958   4.655   2.328  17.093  0.9760  2.3874 -1.0549
 3515TIP3   OH231959   0.382   3.139   0.595 -0.3023 -0.0624 -0.4996
 3515TIP3    H131960   0.346   3.170   0.678  2.3940  0.4717  0.5391
 3515TIP3    H231961   0.360   3.046   0.592  1.0541 -0.4763  1.6741
 3516TIP3   OH231962   0.239   3.638  12.397 -1.0830 -0.0137 -0.2141
 3516TIP3    H131963   0.144   3.633  12.410 -1.1240  1.1639 -0.0222
 3516TIP3    H231964   0.274   3.661  12.483 -0.6278 -0.3675 -0.3030
 3517TIP3   OH231965   4.168   1.012   0.956  0.1131 -0.4997 -0.6738
 3517TIP3    H131966   4.152   0.934   0.903 -0.6562  0.1779 -1.4534
 3517TIP3    H231967   4.209   0.979   1.036 -1.5591 -1.8593 -0.3496
 3518TIP3   OH231968   4.555   5.891   2.499 -0.3110 -0.3344 -0.0142
 3518TIP3    H131969   4.553   5.970   2.553 -0.5609 -0.6767  0.4786
 3518TIP3    H231970   4.591   5.920   2.416  2.1827 -0.2489  1.0618
 3519TIP3   OH231971   6.685   6.122  16.839  0.4022 -0.0155  0.6271
 3519TIP3    H131972   6.707   6.115  16.746 -3.9211  1.6082 -0.6332
 3519TIP3    H231973   6.628   6.047  16.855 -1.5290  1.5108  1.0757
 3520TIP3   OH231974   5.859   5.249   3.224 -0.2068  0.1058  0.0422
 3520TIP3    H131975   5.881   5.164   3.262  2.3843  0.4606 -0.5288
 3520TIP3    H231976   5.926   5.263   3.157 -1.3268  2.0424 -0.7175
 3521TIP3   OH231977   6.633   4.098  16.966 -0.1485 -0.9659  0.5577
 3521TIP3    H131978   6.558   4.049  16.933  0.3167 -1.5100  0.3053
 3521TIP3    H231979   6.694   4.100  16.892 -0.1859  0.0346  0.5478
 3522TIP3   OH231980   4.239   3.596   5.574 -0.1528 -0.2070 -0.3022
 3522TIP3    H131981   4.207   3.686   5.583  1.4308  0.3310  0.0064
 3522TIP3    H231982   4.196   3.564   5.494 -0.5245  0.9005 -0.5593
 3523TIP3   OH231983   2.790   3.013  14.161 -0.5262 -0.1360  0.1221
 3523TIP3    H131984   2.804   3.040  14.070 -0.5854 -1.8248 -0.4075
 3523TIP3    H231985   2.831   3.081  14.213  1.8898 -0.5235 -1.2256
 3524TIP3   OH231986   6.067   3.886   5.479  0.3333  0.4996  0.3343
 3524TIP3    H131987   6.039   3.918   5.565  2.5672  1.0618  0.9035
 3524TIP3    H231988   6.045   3.956   5.419 -1.8301 -0.1587  0.3122
 3525TIP3   OH231989   4.950   0.861   0.049 -0.5142  0.7011 -0.2875
 3525TIP3    H131990   4.951   0.900  -0.038 -1.6324  1.5872  0.0775
 3525TIP3    H231991   4.914   0.930   0.105  0.3283  0.1875  0.8943
 3526TIP3   OH231992   5.651   5.917   2.018 -0.9983 -0.1919  0.3281
 3526TIP3    H131993   5.603   5.961   1.949 -1.0982 -0.5222  0.1853
 3526TIP3    H231994   5.712   5.858   1.972 -1.0321 -0.3768  0.5160
 3527TIP3   OH231995   6.222   1.336  13.088  0.2957  0.4393  0.9160
 3527TIP3    H131996   6.301   1.316  13.138  0.5650  1.3314  0.8475
 3527TIP3    H231997   6.196   1.252  13.051  1.9203  0.3632 -0.0826
 3528TIP3   OH231998   0.374   1.257  13.835 -0.4691 -0.2477  0.3639
 3528TIP3    H131999   0.406   1.210  13.912 -1.1028 -0.4787  0.4880
 3528TIP3    H232000   0.283   1.279  13.857 -0.8163 -0.7702 -0.5300
 3529TIP3   OH232001   5.748   2.620  13.772  0.4344 -0.1583 -0.3080
 3529TIP3    H132002   5.827   2.652  13.728  0.3521 -2.0696 -1.8975
 3529TIP3    H232003   5.679   2.626  13.706 -0.8325  1.5945  1.1025
 3530TIP3   OH232004   4.122   2.068   0.382 -0.4017  0.0575 -0.4255
 3530TIP3    H132005   4.216   2.079   0.399 -0.7256  1.6455  0.3376
 3530TIP3    H232006   4.086   2.156   0.384 -2.1267 -0.6510  0.4837
 3531TIP3   OH232007   2.339   1.355  15.397 -0.3021 -0.2596 -0.0648
 3531TIP3    H132008   2.409   1.294  15.422 -1.5053 -2.2692 -1.3898
 3531TIP3    H232009   2.264   1.298  15.378 -1.4917  1.6522 -1.2702
 3532TIP3   OH232010   2.499   4.600   4.375 -0.3317  0.4893  0.0731
 3532TIP3    H132011   2.496   4.695   4.384 -0.9573  0.5118 -0.3076
 3532TIP3    H232012   2.506   4.585   4.280 -1.3452  0.1447  0.0373
 3533TIP3   OH232013   3.055   0.093   3.440  0.2571  0.1812  0.0183
 3533TIP3    H132014   3.022   0.153   3.374 -1.1660 -0.8584 -0.2352
 3533TIP3    H232015   3.010   0.119   3.521  3.2696  2.5770  1.0465
 3534TIP3   OH232016   3.782   6.076  16.470 -0.1687 -0.5510 -0.3142
 3534TIP3    H132017   3.789   6.168  16.496  1.3034  0.0765 -2.7716
 3534TIP3    H232018   3.694   6.050  16.496  0.1155  0.9216  2.2980
 3535TIP3   OH232019   1.528   2.627  11.847 -0.7097  0.6158  0.4063
 3535TIP3    H132020   1.533   2.720  11.825  0.8653  0.4592  0.0545
 3535TIP3    H232021   1.607   2.610  11.898  0.9436 -1.2909 -2.6093
 3536TIP3   OH232022   3.087   1.315   4.952 -0.6785 -0.2884 -0.0899
 3536TIP3    H132023   3.171   1.284   4.988  0.7970  1.7940 -1.5984
 3536TIP3    H232024   3.054   1.376   5.017 -0.8552 -0.8651  0.3616
 3537TIP3   OH232025   5.392   0.979   6.475  0.9881  0.0350  0.1982
 3537TIP3    H132026   5.467   0.921   6.464 -1.1212 -2.4156 -1.6256
 3537TIP3    H232027   5.343   0.941   6.548 -0.1596 -0.1739 -0.6886
 3538TIP3   OH232028   6.003   6.375   5.889 -0.0243  0.2711  0.2781
 3538TIP3    H132029   5.942   6.350   5.820  1.3088 -0.6446 -0.6034
 3538TIP3    H232030   5.996   6.305   5.954  0.5059 -0.1368 -0.1011
 3539TIP3   OH232031   5.471   2.116   2.197 -0.0868 -0.5076 -0.4272
 3539TIP3    H132032   5.493   2.165   2.276  0.0392 -2.0155  0.5077
 3539TIP3    H232033   5.405   2.053   2.225  0.3589 -1.4312 -1.3900
 3540TIP3   OH232034   6.042   4.418   1.477 -0.2782  0.4947 -0.1466
 3540TIP3    H132035   6.085   4.342   1.439 -0.2923  0.7139 -0.6163
 3540TIP3    H232036   6.084   4.493   1.435 -0.4132  0.7401  0.1468
 3541TIP3   OH232037   0.219   0.512   1.652  0.1893 -0.0657  0.5237
 3541TIP3    H132038   0.302   0.464   1.641  1.2543  2.2359 -2.1411
 3541TIP3    H232039   0.154   0.457   1.609  0.6490 -1.0027  1.0024
 3542TIP3   OH232040   0.988   4.017  14.929 -0.8339 -0.5044  0.0120
 3542TIP3    H132041   1.058   3.953  14.915 -0.1013  0.0919  0.9346
 3542TIP3    H232042   0.989   4.034  15.023 -0.3260  1.6378 -0.3582
 3543TIP3   OH232043   2.077   5.007   3.713  0.1472 -0.3824 -0.3664
 3543TIP3    H132044   2.169   5.028   3.702 -0.3209  1.4780 -0.8470
 3543TIP3    H232045   2.065   4.996   3.807  0.3836  1.7033 -0.0776
 3544TIP3   OH232046   1.303   5.988  12.779 -0.4130  0.3061 -0.3175
 3544TIP3    H132047   1.282   6.046  12.852  1.7391 -1.7019  1.9944
 3544TIP3    H232048   1.397   6.003  12.763 -0.4131 -0.7197 -1.3653
 3545TIP3   OH232049   2.566   5.979  11.685 -0.4376 -0.2195 -0.1075
 3545TIP3    H132050   2.573   5.883  11.681 -0.6520 -0.2425  0.0680
 3545TIP3    H232051   2.477   5.997  11.656  0.2813  0.0623 -2.2523
 3546TIP3   OH232052   1.864   4.156  14.061 -0.3746  0.2166 -0.5834
 3546TIP3    H132053   1.825   4.243  14.066 -0.9534 -0.1073  0.6937
 3546TIP3    H232054   1.916   4.158  13.981  1.8300  2.6721  0.7936
 3547TIP3   OH232055   0.897   3.140  16.074 -0.6384  0.0380  0.2899
 3547TIP3    H132056   0.916   3.163  16.165 -1.6512 -2.6256  1.2067
 3547TIP3    H232057   0.868   3.223  16.035  1.2579  1.5568  1.9452
 3548TIP3   OH232058   1.372   3.579   5.642  0.2837  0.4206 -0.1451
 3548TIP3    H132059   1.454   3.543   5.608 -0.3017 -0.1956 -0.9598
 3548TIP3    H232060   1.318   3.502   5.660 -0.6674  0.8534 -1.0737
 3549TIP3   OH232061   3.226   5.191   3.815  0.3552 -0.7080 -0.7749
 3549TIP3    H132062   3.225   5.194   3.719 -1.0924 -0.2275 -0.7533
 3549TIP3    H232063   3.197   5.278   3.842  3.2252  0.0161  0.1305
 3550TIP3   OH232064   6.329   6.744  11.602 -0.0170 -0.0323  0.5319
 3550TIP3    H132065   6.389   6.715  11.533  0.1845  2.7711 -0.5186
 3550TIP3    H232066   6.387   6.768  11.675  0.1115  1.5816 -0.0753
 3551TIP3   OH232067   3.637   1.746  10.959 -0.3283  0.1216 -0.6407
 3551TIP3    H132068   3.669   1.664  10.922 -1.3815 -0.7740  0.3835
 3551TIP3    H232069   3.630   1.805  10.883  0.1715 -0.8099 -1.4245
 3552TIP3   OH232070   2.241   1.100  14.861  0.2740  0.4302 -0.5147
 3552TIP3    H132071   2.304   1.131  14.926 -2.3294  1.9655  1.3571
 3552TIP3    H232072   2.226   1.175  14.804  0.5751 -0.1154 -1.3237
 3553TIP3   OH232073   2.777   2.389  13.202  0.2443  0.0386  0.1082
 3553TIP3    H132074   2.839   2.437  13.257  0.8607 -1.0566  0.3975
 3553TIP3    H232075   2.818   2.303  13.190  1.2474  0.9939 -4.0060
 3554TIP3   OH232076   4.540   0.916  12.741  0.2123 -0.1368  0.5863
 3554TIP3    H132077   4.518   1.001  12.781 -0.5680  0.1281 -0.3915
 3554TIP3    H232078   4.488   0.913  12.661  2.3142 -0.3302 -0.8214
 3555TIP3   OH232079   5.735   4.750  16.900 -0.5048 -0.1651  0.2877
 3555TIP3    H132080   5.807   4.804  16.934 -0.3558 -1.4440  2.0905
 3555TIP3    H232081   5.674   4.813  16.863  1.1339  1.0037 -0.5126
 3556TIP3   OH232082   3.727   3.743   4.298 -0.4591  0.3140 -0.2427
 3556TIP3    H132083   3.781   3.669   4.272  0.3397  1.0462 -0.6673
 3556TIP3    H232084   3.678   3.767   4.219 -0.3918  0.5243 -0.2204
 3557TIP3   OH232085   6.314   2.290  13.845 -0.2881  0.3599 -0.0168
 3557TIP3    H132086   6.406   2.310  13.831  0.4802 -2.8902 -0.0974
 3557TIP3    H232087   6.267   2.357  13.796  2.0825  0.6189 -2.0446
 3558TIP3   OH232088   3.522   0.568  15.855 -0.1103  0.4348  0.3633
 3558TIP3    H132089   3.505   0.644  15.910 -3.5462  0.2779 -0.3540
 3558TIP3    H232090   3.450   0.508  15.873  0.5449 -1.0845 -1.7781
 3559TIP3   OH232091   0.434   4.099   5.916  0.0757  0.0217 -0.2922
 3559TIP3    H132092   0.405   4.190   5.927  1.2016  0.4843 -1.0005
 3559TIP3    H232093   0.463   4.094   5.825  0.6561 -0.8549 -0.0673
 3560TIP3   OH232094   1.038   0.449  14.130 -0.9872 -0.1332  0.2935
 3560TIP3    H132095   1.042   0.536  14.169  1.0898 -0.3101  0.5592
 3560TIP3    H232096   1.086   0.457  14.048  0.8735 -1.4550  1.2182
 3561TIP3   OH232097   0.055   4.883   4.425 -0.1831 -0.2828  0.5035
 3561TIP3    H132098   0.033   4.897   4.517 -3.2198  0.9808 -0.3276
 3561TIP3    H232099   0.135   4.933   4.411  0.6439 -0.9806  2.5868
 3562TIP3   OH232100   2.711   0.262  10.395  0.5345 -0.3764 -0.9901
 3562TIP3    H132101   2.678   0.326  10.333 -0.8395 -0.4338 -0.3518
 3562TIP3    H232102   2.640   0.198  10.404  0.4972 -0.1062  0.9851
 3563TIP3   OH232103   4.782   0.058   4.162 -0.1979 -0.3889 -0.2577
 3563TIP3    H132104   4.842   0.013   4.222 -1.1280 -2.7887 -1.1092
 3563TIP3    H232105   4.830   0.062   4.079 -0.7329 -1.2227 -0.6081
 3564TIP3   OH232106   5.285   2.657  11.339 -0.4435 -0.0880 -0.1052
 3564TIP3    H132107   5.357   2.707  11.298 -1.1184  1.0354  0.0586
 3564TIP3    H232108   5.293   2.570  11.301 -0.1402  0.5334 -1.5293
 3565TIP3   OH232109   2.064   4.827  15.624 -0.3890 -0.5317  0.1063
 3565TIP3    H132110   2.059   4.893  15.555 -1.9928 -2.1130 -1.3318
 3565TIP3    H232111   2.093   4.876  15.701 -1.2213  1.7948 -1.0021
 3566TIP3   OH232112   3.430   2.245   6.159  0.1855 -0.2858  0.3123
 3566TIP3    H132113   3.516   2.204   6.161  0.1174 -0.5986 -1.9122
 3566TIP3    H232114   3.440   2.326   6.208  0.8323 -1.9704  3.0808
 3567TIP3   OH232115   4.042   4.783  11.122  0.1984 -0.5858  0.7368
 3567TIP3    H132116   4.029   4.820  11.210  3.0647 -0.8755  1.3629
 3567TIP3    H232117   4.042   4.689  11.135 -0.7372 -0.6675  0.1813
 3568TIP3   OH232118   6.038   2.035  11.238  0.1959  0.6475 -0.0675
 3568TIP3    H132119   6.071   1.971  11.300  0.8426 -0.7360 -1.7996
 3568TIP3    H232120   6.093   2.025  11.161 -0.4156  2.5253 -0.7885
 3569TIP3   OH232121   5.144   2.432   5.884  0.2141  0.4962 -0.2890
 3569TIP3    H132122   5.185   2.447   5.969 -0.1922  0.9342 -0.1694
 3569TIP3    H232123   5.139   2.336   5.876  2.7914  0.3886 -1.0565
 3570TIP3   OH232124   0.838   2.877  16.075 -0.5839  0.5064  0.1152
 3570TIP3    H132125   0.783   2.851  16.001  1.3896 -0.0477 -1.1900
 3570TIP3    H232126   0.860   2.968  16.058 -0.7602  0.6108  0.4325
 3571TIP3   OH232127   4.688   6.390  15.406  0.3288 -0.2940 -0.0112
 3571TIP3    H132128   4.760   6.328  15.409 -0.1747 -0.8555  0.7880
 3571TIP3    H232129   4.623   6.354  15.466 -0.7493  0.0432 -0.9602
 3572TIP3   OH232130   4.833   3.087   2.646 -1.0697 -0.4068 -0.1560
 3572TIP3    H132131   4.834   3.152   2.716 -0.2573  0.8646 -1.3057
 3572TIP3    H232132   4.765   3.119   2.586  1.0740  0.8210 -2.0041
 3573TIP3   OH232133   6.321   4.260  14.579  0.1199 -0.4408 -0.2028
 3573TIP3    H132134   6.321   4.356  14.576 -0.7695 -0.4474 -0.6057
 3573TIP3    H232135   6.363   4.233  14.498  0.7142 -0.3932  0.0864
 3574TIP3   OH232136   0.560   1.753   2.788  0.4671 -0.5516  0.1060
 3574TIP3    H132137   0.532   1.711   2.870 -0.5037 -0.9698 -0.4323
 3574TIP3    H232138   0.496   1.724   2.724 -0.1626  1.7098 -0.3048
 3575TIP3   OH232139   6.044   0.514   4.786  0.9618  0.7163  0.2738
 3575TIP3    H132140   6.137   0.535   4.781  0.8588  0.9624 -0.7575
 3575TIP3    H232141   6.025   0.508   4.880  1.9939  0.7478  0.4871
 3576TIP3   OH232142   2.142   1.231   4.452  0.3122  0.3959 -0.0609
 3576TIP3    H132143   2.155   1.145   4.493 -0.1752  0.5317  0.3945
 3576TIP3    H232144   2.097   1.282   4.519 -0.5102  0.6245 -0.7787
 3577TIP3   OH232145   5.600   3.502   1.574 -0.2339 -0.0103 -0.2058
 3577TIP3    H132146   5.513   3.511   1.613  0.0861 -0.8904  0.7312
 3577TIP3    H232147   5.660   3.536   1.640  0.3313 -1.7114  0.1833
 3578TIP3   OH232148   5.659   4.287  16.697 -0.2944 -0.3244  0.5071
 3578TIP3    H132149   5.645   4.233  16.620  0.1017  0.2319  0.0471
 3578TIP3    H232150   5.751   4.273  16.720  0.3461  1.6986 -0.7919
 3579TIP3   OH232151   1.672   5.335  13.337  0.0227  0.5050  0.5953
 3579TIP3    H132152   1.686   5.244  13.362  1.0132  0.7898  1.0723
 3579TIP3    H232153   1.759   5.374  13.338 -0.3676  1.3964  0.1315
 3580TIP3   OH232154   4.646   2.732   5.874 -0.0521  0.0775 -0.2875
 3580TIP3    H132155   4.645   2.826   5.859 -1.9934  0.1149 -0.1228
 3580TIP3    H232156   4.659   2.721   5.968 -0.3774  0.1980 -0.2289
 3581TIP3   OH232157   2.104   6.080  16.685  0.9085  0.3487  0.5252
 3581TIP3    H132158   2.137   6.033  16.762 -0.8278  0.7582  1.5556
 3581TIP3    H232159   2.128   6.172  16.701 -0.6528  0.6507  1.2856
 3582TIP3   OH232160   1.413   1.353  13.901 -0.3900 -0.0789  0.4432
 3582TIP3    H132161   1.462   1.361  13.983  0.5560 -0.8010 -0.0395
 3582TIP3    H232162   1.481   1.348  13.834 -1.1641  1.3563 -0.4760
 3583TIP3   OH232163   5.630   4.786  14.200  0.3072  0.1520  0.3601
 3583TIP3    H132164   5.692   4.749  14.137  0.2360 -0.9169  0.9143
 3583TIP3    H232165   5.675   4.864  14.233  0.1266  1.0192 -1.3770
 3584TIP3   OH232166   5.624   4.011  17.017  0.1956  0.3476  0.2668
 3584TIP3    H132167   5.702   4.014  16.963 -0.0496  1.2971 -0.0372
 3584TIP3    H232168   5.582   4.096  17.005 -1.5916 -0.6155 -0.6435
 3585TIP3   OH232169   0.429   6.572   5.826 -0.0481  0.0045 -0.0842
 3585TIP3    H132170   0.447   6.658   5.864  0.5106 -0.7348  1.3538
 3585TIP3    H232171   0.361   6.535   5.882  0.4608 -0.9039 -0.0581
 3586TIP3   OH232172   5.614   1.604   5.222  0.3326 -0.2197 -0.7939
 3586TIP3    H132173   5.565   1.653   5.288  1.2383  0.1276 -0.3610
 3586TIP3    H232174   5.596   1.650   5.140 -0.7313 -0.6024 -0.7817
 3587TIP3   OH232175   5.763   3.549  13.027 -0.8504 -0.4961 -0.3803
 3587TIP3    H132176   5.670   3.560  13.009 -1.2249 -1.2752  1.0378
 3587TIP3    H232177   5.772   3.564  13.121  0.2658 -1.5578 -0.3010
 3588TIP3   OH232178   3.271   2.574  14.802  0.1113 -0.1805 -0.7342
 3588TIP3    H132179   3.247   2.520  14.727  1.5971  1.3539 -2.3600
 3588TIP3    H232180   3.323   2.645  14.765  0.6727  0.7487  1.7269
 3589TIP3   OH232181   1.400   1.132  11.939  0.0934 -0.1092 -0.5275
 3589TIP3    H132182   1.320   1.156  11.985  0.8378 -0.5719  1.0316
 3589TIP3    H232183   1.384   1.157  11.848 -1.5698  0.3842 -0.1079
 3590TIP3   OH232184   0.451   4.159   2.869  0.2991  0.6623  0.0545
 3590TIP3    H132185   0.436   4.230   2.931 -2.1492 -0.8656  1.2819
 3590TIP3    H232186   0.476   4.204   2.788  1.7186  2.7644  1.6106
 3591TIP3   OH232187   6.579   2.118  16.013 -0.3034  0.0171  0.3236
 3591TIP3    H132188   6.490   2.139  15.986  0.2487  0.3933 -1.2128
 3591TIP3    H232189   6.609   2.196  16.060 -0.4413  0.2595  0.0048
 3592TIP3   OH232190   3.394   4.561   0.439 -0.8691 -0.7646 -0.0734
 3592TIP3    H132191   3.467   4.552   0.377  0.5587 -0.2427  1.4818
 3592TIP3    H232192   3.374   4.471   0.466 -0.2762 -0.8482  0.0909
 3593TIP3   OH232193   6.531   2.187  10.938  0.2638 -0.0284 -0.2498
 3593TIP3    H132194   6.462   2.229  10.885 -1.2230 -1.8315  0.1797
 3593TIP3    H232195   6.613   2.222  10.903 -0.8678  2.5348 -0.4745
 3594TIP3   OH232196   4.758   5.038   3.603  0.5728 -0.0335  0.5187
 3594TIP3    H132197   4.739   5.048   3.696  0.3544 -0.0273  0.4733
 3594TIP3    H232198   4.848   5.069   3.593  1.0400 -1.2240  0.9473
 3595TIP3   OH232199   1.950   5.656  10.179  0.4385  0.0092 -0.0261
 3595TIP3    H132200   2.023   5.625  10.232  1.8567 -0.5066 -2.2088
 3595TIP3    H232201   1.979   5.739  10.142 -0.3558  0.1445 -0.3690
 3596TIP3   OH232202   1.592   2.527   2.930 -0.0737 -0.7934 -0.3076
 3596TIP3    H132203   1.603   2.605   2.876 -1.0345 -0.8683 -0.6152
 3596TIP3    H232204   1.606   2.453   2.870 -0.3197 -0.8692 -0.2715
 3597TIP3   OH232205   5.489   1.213   2.400 -0.1860 -0.4106  0.0504
 3597TIP3    H132206   5.394   1.203   2.399 -0.2357 -0.8967  3.5321
 3597TIP3    H232207   5.521   1.132   2.359 -1.2381 -1.9887  2.2343
 3598TIP3   OH232208   3.362   1.218   4.062  0.5853 -0.2012  0.4826
 3598TIP3    H132209   3.418   1.145   4.088  0.7569  0.3900  1.8192
 3598TIP3    H232210   3.343   1.264   4.144 -2.3144 -0.7222  0.1502
 3599TIP3   OH232211   3.256   2.996   5.961  0.1449 -0.5094  0.0417
 3599TIP3    H132212   3.312   3.073   5.971  2.0860 -1.6415 -1.7963
 3599TIP3    H232213   3.174   3.031   5.925  0.9347  0.7305 -0.6195
 3600TIP3   OH232214   2.875   3.782   0.805  0.0069  0.1349 -0.7132
 3600TIP3    H132215   2.962   3.815   0.783 -0.5399  0.4448 -2.4769
 3600TIP3    H232216   2.825   3.859   0.830 -0.3298  0.2282 -1.6555
 3601TIP3   OH232217   6.591   4.701  16.123 -0.4195  0.1787  0.2959
 3601TIP3    H132218   6.511   4.649  16.136 -0.4551  0.5984  1.9582
 3601TIP3    H232219   6.584   4.734  16.034 -2.2177  0.3684  0.4754
 3602TIP3   OH232220   0.701   4.989   4.219  0.1774  0.1075 -0.2623
 3602TIP3    H132221   0.692   5.084   4.233  2.5822  0.3229 -0.0400
 3602TIP3    H232222   0.778   4.981   4.163  0.1278 -1.7542 -0.0733
 3603TIP3   OH232223   2.267   6.199   1.689 -0.4137  0.2072  0.2906
 3603TIP3    H132224   2.337   6.204   1.624  0.1273  0.7844  0.8976
 3603TIP3    H232225   2.313   6.195   1.773 -1.1029  0.3319  0.6812
 3604TIP3   OH232226   2.223   0.407   4.077  0.0915 -0.0131 -0.0982
 3604TIP3    H132227   2.163   0.433   4.147  0.5678  0.9358 -0.0390
 3604TIP3    H232228   2.165   0.382   4.004 -0.3792  0.3771  0.1393
 3605TIP3   OH232229   5.260   2.920  14.543 -0.1318  0.4653  0.2843
 3605TIP3    H132230   5.259   2.971  14.624 -0.6646  1.5812 -0.4158
 3605TIP3    H232231   5.353   2.917  14.518  0.0197  0.2164  0.8685
 3606TIP3   OH232232   0.211   4.429  11.829 -0.1948 -0.1681 -0.0831
 3606TIP3    H132233   0.293   4.406  11.785 -0.6415 -0.8857 -0.5514
 3606TIP3    H232234   0.230   4.416  11.922  1.0604  2.3137  0.0439
 3607TIP3   OH232235   2.758   1.144  15.643  0.0848 -0.2504 -0.1779
 3607TIP3    H132236   2.780   1.159  15.735 -0.2289 -0.6395 -0.0365
 3607TIP3    H232237   2.683   1.085  15.646  0.1878 -0.4076 -0.6897
 3608TIP3   OH232238   1.416   4.571   3.932  0.0140 -0.2569  0.2650
 3608TIP3    H132239   1.408   4.476   3.925  0.4148 -0.3147  0.5963
 3608TIP3    H232240   1.457   4.598   3.849 -0.3970 -0.3357  0.0352
 3609TIP3   OH232241   6.307   4.855  14.196 -0.4787 -0.1715 -0.3666
 3609TIP3    H132242   6.336   4.946  14.189  2.1523 -1.0552 -1.9338
 3609TIP3    H232243   6.306   4.823  14.106 -3.6966 -1.0538 -0.0646
 3610TIP3   OH232244   5.436   5.543  11.527  0.2724 -0.4729  0.5596
 3610TIP3    H132245   5.382   5.577  11.598 -3.1920 -1.6890 -1.3354
 3610TIP3    H232246   5.413   5.450  11.521  2.2131 -0.9089 -0.6536
 3611TIP3   OH232247   4.313   4.921   5.450  0.1840  0.4316  0.0582
 3611TIP3    H132248   4.326   5.000   5.397  2.6946  0.9296  1.3098
 3611TIP3    H232249   4.305   4.850   5.387 -1.2344  1.5693 -1.0720
 3612TIP3   OH232250   6.577   2.349  15.021 -0.0595  0.0252 -0.3033
 3612TIP3    H132251   6.560   2.439  15.049 -1.0494 -0.4506  0.6432
 3612TIP3    H232252   6.526   2.340  14.940  0.8296  0.6222 -0.9335
 3613TIP3   OH232253   6.388   3.303   3.150  0.2531  0.1825 -0.0848
 3613TIP3    H132254   6.323   3.335   3.087 -1.7691  0.9516  2.3238
 3613TIP3    H232255   6.468   3.292   3.098 -0.8496  2.5279 -2.3998
 3614TIP3   OH232256   1.804   2.388   5.161 -0.1799  0.4864 -0.7367
 3614TIP3    H132257   1.798   2.475   5.200  1.3918 -0.3854  1.5943
 3614TIP3    H232258   1.894   2.360   5.178  0.2223 -0.4422 -4.0186
 3615TIP3   OH232259   3.659   0.601   2.560 -0.0991 -0.1629  0.0957
 3615TIP3    H132260   3.699   0.673   2.512 -0.4228  0.0794  0.1887
 3615TIP3    H232261   3.709   0.524   2.534  0.7461  0.2202  0.5985
 3616TIP3   OH232262   2.573   0.782   2.335  0.5335  0.2895  0.0097
 3616TIP3    H132263   2.632   0.831   2.394  1.5364 -0.6854 -0.1651
 3616TIP3    H232264   2.503   0.844   2.314  0.3933  0.7985  1.8890
 3617TIP3   OH232265   2.851   0.520   5.571  0.2838 -0.4533  0.2736
 3617TIP3    H132266   2.919   0.461   5.537 -0.8704 -1.6690  0.0239
 3617TIP3    H232267   2.868   0.604   5.528  1.6955 -0.7121  0.3069
 3618TIP3   OH232268   5.805   3.277  13.607 -0.3230  0.0084 -0.4375
 3618TIP3    H132269   5.893   3.305  13.634 -0.1981  0.9407 -1.7588
 3618TIP3    H232270   5.787   3.200  13.660  0.3209  1.2116  1.5615
 3619TIP3   OH232271   5.426   1.717  14.273  0.2093 -0.5955 -0.1146
 3619TIP3    H132272   5.361   1.672  14.219 -1.2333  0.2555  0.8671
 3619TIP3    H232273   5.374   1.765  14.338  1.8061  0.4770  0.4040
 3620TIP3   OH232274   6.579   1.241   2.465  0.6327  0.2280  0.1876
 3620TIP3    H132275   6.517   1.176   2.498  0.1958 -0.2894 -1.6078
 3620TIP3    H232276   6.660   1.222   2.512  0.1829 -0.8665  0.5487
 3621TIP3   OH232277   3.794   4.514  15.926  0.0191 -0.2373  0.2836
 3621TIP3    H132278   3.792   4.577  15.853  0.0073  0.2583  0.7066
 3621TIP3    H232279   3.719   4.457  15.911  0.2427 -0.3752 -0.3048
 3622TIP3   OH232280   1.482   2.565   2.009  0.2457 -0.6030  0.0403
 3622TIP3    H132281   1.412   2.540   2.070  0.4445 -1.9893 -0.2768
 3622TIP3    H232282   1.513   2.650   2.040 -1.0443 -0.3569  0.6540
 3623TIP3   OH232283   3.238   3.882  12.340  0.0896 -0.3884  0.3627
 3623TIP3    H132284   3.235   3.891  12.245  0.6176  0.7066  0.4458
 3623TIP3    H232285   3.317   3.929  12.366  0.0010 -0.7705  1.3333
 3624TIP3   OH232286   3.707   4.789   2.737 -0.2788 -0.6470 -0.2469
 3624TIP3    H132287   3.716   4.698   2.766 -1.2093 -0.5123  0.4815
 3624TIP3    H232288   3.778   4.835   2.781 -0.9482 -0.6728  0.8798
 3625TIP3   OH232289   4.679   6.710   2.211  0.1668 -0.1694  0.4203
 3625TIP3    H132290   4.685   6.740   2.121 -0.3431 -0.6111  0.2368
 3625TIP3    H232291   4.595   6.745   2.243  1.2313  1.6203  1.3342
 3626TIP3   OH232292   0.345   2.394  11.104  0.1636 -0.5685  0.4014
 3626TIP3    H132293   0.276   2.417  11.166 -0.2760  1.3895 -0.7643
 3626TIP3    H232294   0.298   2.373  11.023  0.7628 -2.4881  0.5436
 3627TIP3   OH232295   1.895   0.032  16.535  0.0766 -0.2453 -0.1671
 3627TIP3    H132296   1.823   0.042  16.598 -0.5216  0.5076 -0.9608
 3627TIP3    H232297   1.929  -0.056  16.551  1.1938  0.6275  2.5320
 3628TIP3   OH232298   2.491   6.308  10.353 -0.2436 -0.0351 -0.3039
 3628TIP3    H132299   2.572   6.354  10.332  0.4510 -0.6287  1.0344
 3628TIP3    H232300   2.516   6.215  10.353 -0.5692 -0.1456  1.5485
 3629TIP3   OH232301   4.446   3.461  13.663 -0.1605  0.4442 -0.0499
 3629TIP3    H132302   4.405   3.445  13.748  3.8289 -1.3843  1.6834
 3629TIP3    H232303   4.423   3.384  13.611 -0.4522  0.2859  0.3082
 3630TIP3   OH232304   1.095   3.373  12.747 -0.2687  0.1541  0.2119
 3630TIP3    H132305   1.136   3.287  12.759 -0.0788 -0.0722 -2.0027
 3630TIP3    H232306   1.036   3.362  12.673 -0.8118  1.7545  0.3804
 3631TIP3   OH232307   0.802   2.982  13.964  0.4459 -0.1207  0.4123
 3631TIP3    H132308   0.784   3.061  14.014  0.4508 -0.2495  0.6187
 3631TIP3    H232309   0.837   2.920  14.028  1.3158  0.0136  0.0864
 3632TIP3   OH232310   3.750   5.236  11.522  0.1648 -0.0479 -0.1571
 3632TIP3    H132311   3.669   5.267  11.564  0.6397  1.1876 -0.1232
 3632TIP3    H232312   3.815   5.238  11.592  0.1401 -1.4605 -0.0762
 3633TIP3   OH232313   3.176   1.126  16.503  0.7831 -0.2190  0.4505
 3633TIP3    H132314   3.271   1.139  16.506  0.7444  0.1415  0.2239
 3633TIP3    H232315   3.164   1.038  16.469  1.0395 -0.3572  0.7183
 3634TIP3   OH232316   5.941   2.601   0.683  0.0441 -0.0955  0.5160
 3634TIP3    H132317   6.026   2.605   0.638 -0.0306 -1.8838  0.1767
 3634TIP3    H232318   5.921   2.692   0.705  3.3406  0.1558  2.9877
 3635TIP3   OH232319   0.229   6.148   2.560  0.0873  0.1915  0.1199
 3635TIP3    H132320   0.217   6.095   2.639 -1.6058  1.2791  0.6186
 3635TIP3    H232321   0.309   6.197   2.576  0.4717 -0.5832  0.5874
 3636TIP3   OH232322   1.282   4.000  13.284 -0.1620  0.4123 -0.0603
 3636TIP3    H132323   1.267   3.908  13.261 -0.6227  0.3125  0.6344
 3636TIP3    H232324   1.298   4.043  13.200 -1.0934 -0.0942 -0.5023
 3637TIP3   OH232325   1.705   0.396   0.909 -0.4836  0.4847 -0.1720
 3637TIP3    H132326   1.652   0.471   0.881  0.1878  1.8628  2.0958
 3637TIP3    H232327   1.664   0.367   0.990  1.4170  0.7236  0.8969
 3638TIP3   OH232328   1.976   6.490  10.858 -0.0192  0.0199  0.2369
 3638TIP3    H132329   1.965   6.585  10.863  1.0596  0.0575  2.1489
 3638TIP3    H232330   1.916   6.455  10.924 -0.8830 -0.6751 -0.8986
 3639TIP3   OH232331   6.301   4.265  10.768 -0.3941 -0.4069  0.0887
 3639TIP3    H132332   6.278   4.336  10.708 -0.6370 -0.4479  0.1292
 3639TIP3    H232333   6.239   4.195  10.747  1.2894 -1.4652 -1.4924
 3640TIP3   OH232334   1.741   4.374  15.177  0.1756  0.4499 -0.6672
 3640TIP3    H132335   1.811   4.334  15.228  1.1612  1.0037 -1.5868
 3640TIP3    H232336   1.678   4.404  15.243  1.6816  1.6274  0.2617
 3641TIP3   OH232337   6.311   4.636   4.935  0.1623 -0.3859 -0.5209
 3641TIP3    H132338   6.296   4.618   5.028  0.6466  0.3272 -0.3051
 3641TIP3    H232339   6.406   4.626   4.923  0.1682  0.0257 -0.8307
 3642TIP3   OH232340   5.147   5.725  13.782 -0.0607 -0.4845  0.3023
 3642TIP3    H132341   5.125   5.784  13.711  2.4374  0.7703  0.5066
 3642TIP3    H232342   5.154   5.639  13.741  1.8445  0.3082 -1.1105
 3643TIP3   OH232343   1.041   0.537  12.402  0.1627  0.4203 -0.4149
 3643TIP3    H132344   1.111   0.472  12.401  0.3285  0.6150 -1.7600
 3643TIP3    H232345   0.969   0.496  12.356 -0.0406  0.8502 -0.4840
 3644TIP3   OH232346   0.597   3.312  11.072 -0.0863  0.0045 -0.2211
 3644TIP3    H132347   0.640   3.285  10.991 -1.1229  0.6942 -1.0165
 3644TIP3    H232348   0.587   3.231  11.122  1.9223 -0.1962 -0.1185
 3645TIP3   OH232349   3.951   0.259   1.112  0.0189  0.1761  0.0549
 3645TIP3    H132350   3.958   0.181   1.166 -1.0809  0.6763  0.9163
 3645TIP3    H232351   3.857   0.275   1.104  0.2475  1.8843  0.5741
 3646TIP3   OH232352   0.301   5.885   0.929 -0.7152  0.6324 -0.1258
 3646TIP3    H132353   0.358   5.824   0.976 -1.8094 -1.0232 -0.8983
 3646TIP3    H232354   0.214   5.846   0.936 -1.2346  1.4622 -1.7077
 3647TIP3   OH232355   5.381   5.125  12.844  0.0525 -0.1407 -0.1934
 3647TIP3    H132356   5.394   5.035  12.814 -1.2865  0.0811 -1.4669
 3647TIP3    H232357   5.438   5.178  12.788  0.7053 -0.1608  0.4386
 3648TIP3   OH232358   4.091   3.878  12.176  0.4168 -0.4641  0.0734
 3648TIP3    H132359   4.035   3.824  12.232  1.4493 -1.4778  0.1463
 3648TIP3    H232360   4.180   3.856  12.203  0.9355 -1.0853 -2.0602
 3649TIP3   OH232361   4.404   4.813  13.694 -0.7264 -0.4954  0.2020
 3649TIP3    H132362   4.392   4.824  13.600  0.8428 -0.5494 -0.0108
 3649TIP3    H232363   4.405   4.718  13.706  2.3204 -0.5485 -0.1783
 3650TIP3   OH232364   5.570   0.024  13.590 -0.4321  0.0193 -0.0013
 3650TIP3    H132365   5.602   0.060  13.673  0.6279  1.5694 -1.0406
 3650TIP3    H232366   5.533   0.100  13.544  0.1388 -0.5701 -1.4550
 3651TIP3   OH232367   6.463   2.054  11.168  0.4211 -0.4566  0.1602
 3651TIP3    H132368   6.437   1.964  11.151 -0.0543 -0.3886  0.5313
 3651TIP3    H232369   6.471   2.093  11.080 -1.1902 -0.3483  0.0365
 3652TIP3   OH232370   3.157   6.414   3.507 -0.5793  0.3445 -0.2853
 3652TIP3    H132371   3.170   6.373   3.593  0.2701  1.1623 -0.0120
 3652TIP3    H232372   3.186   6.504   3.519  0.1735  0.2925 -1.6137
 3653TIP3   OH232373   5.644   2.589  12.872  0.0689 -0.3075 -0.7285
 3653TIP3    H132374   5.695   2.561  12.796 -1.0917  0.0146 -1.6480
 3653TIP3    H232375   5.568   2.634  12.834 -0.8233 -0.6652  0.5971
 3654TIP3   OH232376   1.196   2.777   3.872 -0.4677  0.2197 -0.2876
 3654TIP3    H132377   1.165   2.738   3.954  0.9026  1.5031  0.8756
 3654TIP3    H232378   1.146   2.858   3.864 -0.5632  0.1205 -0.6846
 3655TIP3   OH232379   3.478   1.001   1.916  0.2717 -0.1375  0.1919
 3655TIP3    H132380   3.424   1.079   1.929  2.3826  1.4247 -0.1330
 3655TIP3    H232381   3.428   0.930   1.956 -1.8116  1.3218  0.2682
 3656TIP3   OH232382   5.089   2.572  12.909  0.5993 -0.6269  0.2197
 3656TIP3    H132383   5.136   2.655  12.919 -0.7433 -0.1677  3.4257
 3656TIP3    H232384   5.019   2.592  12.847  0.8044  0.4088  0.3075
 3657TIP3   OH232385   2.102   5.128   2.801  0.2696 -0.0820 -0.6485
 3657TIP3    H132386   2.013   5.163   2.809  0.2822 -0.0997 -0.4221
 3657TIP3    H232387   2.139   5.172   2.724 -0.4663 -1.2234 -1.6577
 3658TIP3   OH232388   5.369   4.753   5.158 -0.0160 -0.5265  0.4851
 3658TIP3    H132389   5.451   4.796   5.178 -0.3880  0.5040 -0.1725
 3658TIP3    H232390   5.357   4.767   5.064 -1.0498 -0.4781  0.6185
 3659TIP3   OH232391   3.189   5.219  12.326 -0.2496  0.3975  0.8470
 3659TIP3    H132392   3.177   5.124  12.327 -0.8163  0.4646  0.4614
 3659TIP3    H232393   3.139   5.250  12.402 -2.0607  0.6107 -0.3838
 3660TIP3   OH232394   0.438   2.858  12.152 -0.0319  0.4230  0.2049
 3660TIP3    H132395   0.382   2.844  12.228 -0.2746  1.0473  0.1450
 3660TIP3    H232396   0.411   2.791  12.089 -0.6151  0.6369  0.2265
 3661TIP3   OH232397   2.833   5.436  14.905  0.0753  0.4641  0.1316
 3661TIP3    H132398   2.741   5.420  14.887  0.5256 -0.9751 -0.9712
 3661TIP3    H232399   2.833   5.496  14.979 -1.7407  0.1271  0.4191
 3662TIP3   OH232400   5.695   1.720  13.207 -0.0993  1.1268 -0.7777
 3662TIP3    H132401   5.623   1.767  13.251 -0.8694 -0.9020  0.1812
 3662TIP3    H232402   5.655   1.640  13.175  1.6158  0.2519 -0.7748
 3663TIP3   OH232403   0.154   1.349  13.067  0.2833  0.4017  0.8990
 3663TIP3    H132404   0.229   1.304  13.108  0.3854  1.4701  1.9049
 3663TIP3    H232405   0.179   1.441  13.068  0.5939  0.4008 -2.2509
 3664TIP3   OH232406   2.037   3.189  12.487 -0.1165 -0.2270  0.2135
 3664TIP3    H132407   1.995   3.146  12.562  1.7835 -0.9139  0.9268
 3664TIP3    H232408   2.098   3.251  12.526 -0.2586  0.5564 -0.7918
 3665TIP3   OH232409   1.263   5.220   4.088  0.0586  0.3108  0.4548
 3665TIP3    H132410   1.240   5.164   4.014  0.9476 -0.2067  0.5623
 3665TIP3    H232411   1.332   5.277   4.055  0.5129  0.0275  0.9019
 3666TIP3   OH232412   4.933   5.380   5.117 -0.0853 -0.1058  0.7006
 3666TIP3    H132413   4.903   5.297   5.081 -0.1569 -0.3456  1.3041
 3666TIP3    H232414   4.888   5.388   5.201 -1.0872  1.1784  0.0556
 3667TIP3   OH232415   0.147   1.007   4.075 -0.1593 -0.0827 -0.5811
 3667TIP3    H132416   0.121   0.918   4.053 -1.3681 -0.0422  0.6134
 3667TIP3    H232417   0.077   1.062   4.041 -0.5626  0.2143  0.6944
 3668TIP3   OH232418   2.901   0.526  12.366  0.2786 -0.0065  0.3825
 3668TIP3    H132419   2.968   0.500  12.303  0.1596  1.6203 -0.4301
 3668TIP3    H232420   2.945   0.590  12.423 -0.1160 -0.1695  0.8778
 3669TIP3   OH232421   1.342   4.092   3.198 -0.0941 -0.1411  0.2522
 3669TIP3    H132422   1.426   4.137   3.190  0.7505 -1.7533 -0.2559
 3669TIP3    H232423   1.346   4.050   3.285 -0.7443  0.5169  0.6012
 3670TIP3   OH232424   0.502   4.944  13.018 -0.2666 -0.2770 -0.6654
 3670TIP3    H132425   0.585   4.898  13.025  0.0870  0.2976 -0.9767
 3670TIP3    H232426   0.458   4.903  12.944 -0.3503 -0.7223 -0.3684
 3671TIP3   OH232427   6.191   1.678   4.000  0.7706  0.3090 -0.5660
 3671TIP3    H132428   6.212   1.747   4.063  0.7735 -1.0068  0.9135
 3671TIP3    H232429   6.276   1.649   3.968  0.7275  1.5936 -1.8627
 3672TIP3   OH232430   0.316   5.545   1.782  0.0363  0.2094  0.7359
 3672TIP3    H132431   0.372   5.518   1.855  2.1310 -0.7723 -1.1577
 3672TIP3    H232432   0.374   5.540   1.706 -2.2674  0.6168 -1.0641
 3673TIP3   OH232433   3.908   4.820   2.176 -0.2409  0.0990 -0.1607
 3673TIP3    H132434   3.837   4.884   2.174 -1.4199 -1.1394  1.2849
 3673TIP3    H232435   3.911   4.790   2.267 -0.8217 -3.1083 -1.1497
 3674TIP3   OH232436   3.433   2.796  14.674  0.2180 -0.5184  0.5027
 3674TIP3    H132437   3.518   2.793  14.718 -0.1278 -0.9386  1.1398
 3674TIP3    H232438   3.401   2.885  14.689  1.1448  0.0832 -0.8909
 3675TIP3   OH232439   5.055   5.071  13.651 -0.1933 -0.4640 -0.2769
 3675TIP3    H132440   5.060   5.070  13.555 -0.7065  0.2725 -0.3234
 3675TIP3    H232441   4.964   5.095  13.670  0.1749  0.4519  0.3797
 3676TIP3   OH232442   5.209   0.138  10.533  0.6960 -0.1822  0.0835
 3676TIP3    H132443   5.190   0.206  10.597  0.5967 -0.0753 -0.0605
 3676TIP3    H232444   5.123   0.112  10.499  0.3466 -3.1034  2.9437
 3677TIP3   OH232445   3.734   1.244  13.126  0.2679  0.5920 -0.8419
 3677TIP3    H132446   3.750   1.151  13.111 -1.2143  0.4494 -1.6783
 3677TIP3    H232447   3.708   1.250  13.218 -1.1988 -0.0579 -1.1976
 3678TIP3   OH232448   2.993   1.445   0.168 -0.4157  0.5379  0.0110
 3678TIP3    H132449   2.915   1.495   0.194 -0.7325 -0.0231  0.1535
 3678TIP3    H232450   2.964   1.395   0.091 -0.9336 -1.5108  1.4683
 3679TIP3   OH232451   3.427   2.620   4.813 -0.3674  0.1817  0.2656
 3679TIP3    H132452   3.384   2.698   4.847  0.7906  0.5318  0.9824
 3679TIP3    H232453   3.486   2.593   4.884 -0.2335 -0.9135 -0.2598
 3680TIP3   OH232454   4.266   2.487   3.296 -0.1028 -0.0371  0.3355
 3680TIP3    H132455   4.344   2.503   3.242  0.9803 -0.2230  1.7966
 3680TIP3    H232456   4.213   2.566   3.286  1.3070  1.0159  1.0132
 3681TIP3   OH232457   3.418   5.670  14.965  0.2309 -0.6040  0.3636
 3681TIP3    H132458   3.379   5.598  15.015  0.9058 -2.2045 -1.3657
 3681TIP3    H232459   3.511   5.651  14.963  0.4226  0.3534 -0.0825
 3682TIP3   OH232460   4.866   1.015  11.484  0.2882  0.3804 -0.6166
 3682TIP3    H132461   4.793   0.959  11.509  0.7855 -0.1371 -0.3024
 3682TIP3    H232462   4.917   0.962  11.423  1.3910  0.0309  0.5765
 3683TIP3   OH232463   4.627   1.968  14.017 -0.1334 -0.7158 -0.0269
 3683TIP3    H132464   4.596   1.998  13.931  0.1379  1.0508  0.4775
 3683TIP3    H232465   4.580   2.022  14.080  1.4602 -0.3190  0.8450
 3684TIP3   OH232466   0.740   6.469   2.942 -0.0833  0.5791 -0.4553
 3684TIP3    H132467   0.758   6.423   3.024 -1.1413  0.7279 -0.1271
 3684TIP3    H232468   0.808   6.440   2.882 -0.4913 -1.1062 -0.1368
 3685TIP3   OH232469   1.030   4.647   4.438 -0.4224 -0.2698 -0.0548
 3685TIP3    H132470   0.966   4.577   4.450 -2.1113  1.1603 -0.4883
 3685TIP3    H232471   1.054   4.642   4.346  1.9836 -2.3443  0.6152
 3686TIP3   OH232472   6.193   2.688  13.843 -0.1155 -0.2437 -0.0414
 3686TIP3    H132473   6.168   2.715  13.931 -0.2538  0.0469 -0.1699
 3686TIP3    H232474   6.276   2.733  13.827 -0.0412 -0.3728 -0.0224
 3687TIP3   OH232475   2.235   4.927  10.928  0.0900  1.0817 -0.0044
 3687TIP3    H132476   2.163   4.870  10.955  0.2833  0.1176 -1.4652
 3687TIP3    H232477   2.201   5.015  10.939 -1.9395  0.6306 -2.1767
 3688TIP3   OH232478   3.113   6.397   4.187 -0.5098  0.1528  0.1067
 3688TIP3    H132479   3.086   6.412   4.097  1.7103  1.1485 -0.4301
 3688TIP3    H232480   3.118   6.484   4.226 -2.1345 -0.3201  1.4261
 3689TIP3   OH232481   3.511   4.229  12.587  0.2476 -0.1305 -0.1382
 3689TIP3    H132482   3.422   4.194  12.592  0.2903 -0.3134 -0.5681
 3689TIP3    H232483   3.544   4.227  12.677 -1.0570  2.2329  0.4424
 3690TIP3   OH232484   3.891   5.437  15.851  0.2435 -0.1217 -0.4063
 3690TIP3    H132485   3.860   5.436  15.941  1.3320  1.1474 -0.0008
 3690TIP3    H232486   3.982   5.406  15.856 -0.0034 -1.0081 -1.1982
 3691TIP3   OH232487   3.599   1.908   0.181  0.6366  0.3848  0.2810
 3691TIP3    H132488   3.504   1.909   0.172  0.5225 -0.8222  1.2717
 3691TIP3    H232489   3.619   1.994   0.219 -0.5770 -1.1266  4.6336
 3692TIP3   OH232490   3.599   0.061   4.947  0.1515  0.2283  0.2230
 3692TIP3    H132491   3.684   0.072   4.989  0.4332 -0.8693 -0.0466
 3692TIP3    H232492   3.581  -0.033   4.954 -0.4810  0.2703 -0.7931
 3693TIP3   OH232493   3.178   1.049  12.912  0.1481 -0.0818 -0.6746
 3693TIP3    H132494   3.271   1.062  12.890  0.2504 -0.3264 -0.3931
 3693TIP3    H232495   3.175   1.059  13.008 -0.2394  0.6758 -0.7608
 3694TIP3   OH232496   5.656   4.511   1.911 -0.4731  0.2503  0.3366
 3694TIP3    H132497   5.694   4.528   1.997 -1.7305  0.7296  0.8147
 3694TIP3    H232498   5.564   4.538   1.920 -0.6550  0.1359 -1.0995
 3695TIP3   OH232499   2.242   3.500  17.067  0.2420 -0.0735 -0.3054
 3695TIP3    H132500   2.278   3.559  17.001 -0.3621  0.2304 -0.3660
 3695TIP3    H232501   2.285   3.525  17.148 -1.4884  1.8277  0.0746
 3696TIP3   OH232502   1.617   1.414  14.087  0.3233 -0.4916 -0.3909
 3696TIP3    H132503   1.619   1.501  14.047  0.1453 -0.5656 -0.5618
 3696TIP3    H232504   1.609   1.431  14.181 -0.2528 -0.3273 -0.4640
 3697TIP3   OH232505   1.724   5.082  13.448  0.6004  0.6004 -0.0604
 3697TIP3    H132506   1.747   5.130  13.527 -1.3928  2.6290 -0.6808
 3697TIP3    H232507   1.671   5.008  13.480  2.5930 -0.5323  0.7598
 3698TIP3   OH232508   1.189   5.414  15.894 -0.3544  0.2717  0.1961
 3698TIP3    H132509   1.193   5.509  15.902 -0.7106  0.2538  0.6153
 3698TIP3    H232510   1.157   5.398  15.805  2.8678  0.4905 -1.0999
 3699TIP3   OH232511   3.414   1.341  15.343  0.6791  0.1842  0.4021
 3699TIP3    H132512   3.505   1.369  15.346  0.5776  0.3343  2.4691
 3699TIP3    H232513   3.412   1.259  15.393  0.1113 -1.1014 -1.6565
 3700TIP3   OH232514   5.287   0.748   2.889  0.3821  0.2127 -0.1078
 3700TIP3    H132515   5.253   0.805   2.820  0.7235 -1.2274 -1.4919
 3700TIP3    H232516   5.283   0.660   2.852  2.4943 -0.3597  0.9276
 3701TIP3   OH232517   3.329   1.969  13.298 -0.2964 -0.2521  0.1255
 3701TIP3    H132518   3.280   1.913  13.358  0.4405 -1.4996 -0.4324
 3701TIP3    H232519   3.275   2.049  13.291 -0.1726  0.1062  2.7648
 3702TIP3   OH232520   5.191   3.878   4.640 -0.2126 -0.4172  0.5916
 3702TIP3    H132521   5.195   3.923   4.556  0.0376 -2.9531 -0.7987
 3702TIP3    H232522   5.109   3.910   4.680  1.1862  3.1412  0.8292
 3703TIP3   OH232523   6.079   2.215  15.306  0.4698  0.0112  0.3205
 3703TIP3    H132524   6.075   2.145  15.371  1.1396 -1.1027 -0.8094
 3703TIP3    H232525   6.002   2.201  15.251  1.9071 -1.3608 -1.3974
 3704TIP3   OH232526   5.133   0.447  13.397  0.2049 -0.3788 -0.6154
 3704TIP3    H132527   5.151   0.378  13.460 -0.0861 -0.7164 -0.8964
 3704TIP3    H232528   5.181   0.523  13.429 -2.2594  0.3171  1.5980
 3705TIP3   OH232529   0.064   5.501   0.372  0.6286 -0.0674  0.0814
 3705TIP3    H132530   0.079   5.490   0.278 -1.0717  1.0283 -0.3369
 3705TIP3    H232531   0.143   5.467   0.413  1.2429 -0.8822 -1.7328
 3706TIP3   OH232532   6.424   1.926   2.052 -0.1063  0.5060 -0.7024
 3706TIP3    H132533   6.384   1.901   1.969 -0.2507  0.3996 -0.6031
 3706TIP3    H232534   6.491   1.860   2.068  0.0410  0.6288 -0.8227
 3707TIP3   OH232535   1.331   5.900   3.330 -0.1459  0.3119  0.0303
 3707TIP3    H132536   1.364   5.988   3.316 -0.2035  0.4471  0.7406
 3707TIP3    H232537   1.294   5.901   3.418  0.1910 -0.5199  0.1945
 3708TIP3   OH232538   1.644   3.202  11.024 -0.1825  0.6722  0.2506
 3708TIP3    H132539   1.722   3.256  11.034  0.3609 -0.4770  2.6628
 3708TIP3    H232540   1.623   3.207  10.931  2.3886  1.5236 -0.3327
 3709TIP3   OH232541   5.865   5.059  13.176  0.2484 -0.5990  0.3750
 3709TIP3    H132542   5.929   5.130  13.166 -0.2126  0.0399  1.7644
 3709TIP3    H232543   5.912   4.992  13.225  0.4011 -0.8721 -0.1452
 3710TIP3   OH232544   5.403   6.289   0.438  0.1973  0.3882  0.1102
 3710TIP3    H132545   5.315   6.274   0.472  0.1742 -0.4246 -0.2888
 3710TIP3    H232546   5.459   6.230   0.489  0.1691 -0.7930 -1.1697
 3711TIP3   OH232547   1.501   4.673  11.436 -0.4356 -0.1019 -0.0005
 3711TIP3    H132548   1.567   4.700  11.373 -0.2398  1.5110  0.8486
 3711TIP3    H232549   1.540   4.601  11.484  0.9002  1.1258  0.7891
 3712TIP3   OH232550   5.133   6.339  12.355 -0.4528 -0.4241 -0.1577
 3712TIP3    H132551   5.151   6.392  12.432 -3.2998 -0.6106  0.6626
 3712TIP3    H232552   5.163   6.392  12.282  1.2152  0.2267  0.9701
 3713TIP3   OH232553   4.018   5.232   5.568 -0.2564  0.5030 -0.3563
 3713TIP3    H132554   3.998   5.301   5.631  0.8442  0.5751 -0.0734
 3713TIP3    H232555   4.080   5.273   5.507 -0.8548  0.2553 -1.1492
 3714TIP3   OH232556   4.336   5.193   4.662  0.0105 -0.0914 -0.1368
 3714TIP3    H132557   4.351   5.275   4.710 -0.3694 -0.1124  0.0196
 3714TIP3    H232558   4.406   5.191   4.597  1.2468 -0.6447  1.1716
 3715TIP3   OH232559   4.823   5.072   4.366 -0.6064  0.3502 -0.1470
 3715TIP3    H132560   4.888   5.141   4.375 -0.8482  0.4833  0.5900
 3715TIP3    H232561   4.848   5.006   4.430 -0.8804  0.1557 -0.2349
 3716TIP3   OH232562   6.306   6.159  11.493  0.3269 -0.3132  0.1647
 3716TIP3    H132563   6.318   6.238  11.545  2.3963 -0.1731 -0.4913
 3716TIP3    H232564   6.394   6.123  11.481 -0.4305 -1.9775 -0.6956
 3717TIP3   OH232565   4.494   1.778   6.602 -0.0408  0.0640  0.5604
 3717TIP3    H132566   4.529   1.775   6.513 -2.6402 -0.4676 -0.4636
 3717TIP3    H232567   4.441   1.858   6.605 -0.9008 -0.5198  1.2814
 3718TIP3   OH232568   2.887   2.790  14.434  0.1880 -0.3440 -0.0335
 3718TIP3    H132569   2.861   2.834  14.354  0.1604  1.4194  0.9151
 3718TIP3    H232570   2.983   2.794  14.434  0.1792 -0.1372  0.1401
 3719TIP3   OH232571   4.721   2.426  14.786 -0.5132  0.3023  0.2475
 3719TIP3    H132572   4.696   2.361  14.852 -0.0988  0.3473  0.4557
 3719TIP3    H232573   4.644   2.435  14.730 -0.5171 -0.4720  0.1312
 3720TIP3   OH232574   2.364   4.500  15.775  0.1814 -0.0306  0.1275
 3720TIP3    H132575   2.298   4.434  15.798 -1.3221  1.2628 -0.4054
 3720TIP3    H232576   2.425   4.454  15.718 -0.8764 -0.9592 -0.2639
 3721TIP3   OH232577   0.973   6.407  11.724  0.6940  0.0112  0.7995
 3721TIP3    H132578   1.025   6.434  11.801 -1.1190  1.7584  1.4481
 3721TIP3    H232579   0.894   6.368  11.761 -0.3610  1.1967 -0.1824
 3722TIP3   OH232580   3.917   6.419   3.908 -0.1555 -0.6884  0.4065
 3722TIP3    H132581   3.844   6.381   3.859  0.0114 -0.7576  0.2096
 3722TIP3    H232582   3.904   6.513   3.901  0.9017 -0.6373 -1.3790
 3723TIP3   OH232583   1.344   2.332  13.032 -0.0099 -0.0459 -0.1718
 3723TIP3    H132584   1.297   2.333  13.116 -1.0051  1.3772 -0.7349
 3723TIP3    H232585   1.288   2.281  12.974  0.3521 -0.4541 -0.1640
 3724TIP3   OH232586   0.913   2.972   1.969 -0.4413  0.2768  0.2375
 3724TIP3    H132587   0.891   2.977   1.876 -0.5984 -1.3426  0.1665
 3724TIP3    H232588   1.007   2.988   1.972 -0.7089  1.9308 -0.0256
 3725TIP3   OH232589   1.568   1.448  15.780  0.1177  0.4621  0.1273
 3725TIP3    H132590   1.519   1.529  15.798  0.2191  0.0698  2.3325
 3725TIP3    H232591   1.528   1.383  15.838 -0.2382 -1.2068 -1.9245
 3726TIP3   OH232592   6.705   4.728  10.501 -0.4005 -0.4342  0.2531
 3726TIP3    H132593   6.793   4.725  10.537  0.8513  0.6030 -2.5613
 3726TIP3    H232594   6.699   4.650  10.446 -1.3691 -0.6854  0.7094
 3727TIP3   OH232595   3.562   5.488  15.452 -0.2948 -0.3074 -0.0447
 3727TIP3    H132596   3.565   5.393  15.439  0.9853 -0.3918  0.8266
 3727TIP3    H232597   3.582   5.500  15.545  1.2591  0.9037 -0.5157
 3728TIP3   OH232598   2.265   5.797  15.334  0.0313 -0.3365 -0.3648
 3728TIP3    H132599   2.360   5.797  15.336  0.1235 -1.0846 -2.8629
 3728TIP3    H232600   2.242   5.861  15.267 -1.2683  0.7895  1.1235
 3729TIP3   OH232601   0.423   3.175   4.982  0.2687  0.2317 -0.1944
 3729TIP3    H132602   0.433   3.114   5.056 -1.3143  0.1178 -0.0562
 3729TIP3    H232603   0.422   3.118   4.905 -1.2384  0.0605 -0.0635
 3730TIP3   OH232604   1.043   1.368   0.137 -0.0281 -0.3278  0.0534
 3730TIP3    H132605   1.100   1.445   0.137  0.3418 -0.5937 -1.6047
 3730TIP3    H232606   0.997   1.372   0.053 -0.1671 -1.7985  0.0464
 3731TIP3   OH232607   2.534   3.017  14.241  0.2393 -0.3754 -0.1134
 3731TIP3    H132608   2.619   2.984  14.210  0.0710 -0.6672 -0.2729
 3731TIP3    H232609   2.541   3.112  14.232  0.0305 -0.4779 -1.5114
 3732TIP3   OH232610   4.732   5.994  16.595  0.8609 -0.8074 -0.1072
 3732TIP3    H132611   4.823   6.020  16.584  0.3602  1.0182 -0.0445
 3732TIP3    H232612   4.705   5.963  16.508  0.9802  0.4800 -0.6076
 3733TIP3   OH232613   1.782   1.582   4.371 -0.2593 -0.1103  0.0316
 3733TIP3    H132614   1.721   1.585   4.445 -0.9456 -0.5280 -0.5200
 3733TIP3    H232615   1.736   1.533   4.304 -0.1450  1.3841 -1.1571
 3734TIP3   OH232616   2.899   3.236  16.800  0.0015  0.2097  0.2293
 3734TIP3    H132617   2.990   3.232  16.771 -0.0450  2.1094 -0.2278
 3734TIP3    H232618   2.882   3.329  16.814 -2.1580 -0.0236 -0.6482
 3735TIP3   OH232619   6.235   1.332  17.043  0.0009  0.0642 -0.3309
 3735TIP3    H132620   6.247   1.244  17.079 -0.8155 -0.1327 -0.5213
 3735TIP3    H232621   6.169   1.321  16.975 -0.7250  0.9701  0.2100
 3736TIP3   OH232622   6.541   4.558   2.289 -0.3863 -0.8807  0.4817
 3736TIP3    H132623   6.587   4.543   2.372 -2.1231  0.0681  1.6582
 3736TIP3    H232624   6.476   4.625   2.310  0.5487  0.9448 -2.1961
 3737TIP3   OH232625   6.062   3.209   1.457  0.0671 -0.2391 -0.3967
 3737TIP3    H132626   6.051   3.166   1.542  0.3834 -0.8843 -0.6846
 3737TIP3    H232627   6.035   3.300   1.473 -1.7183 -0.8153 -0.0877
 3738TIP3   OH232628   0.110   6.368  16.064  0.3118 -0.0546  0.2978
 3738TIP3    H132629   0.048   6.336  15.999  0.7997  0.3504 -0.3648
 3738TIP3    H232630   0.137   6.290  16.112 -0.3193 -0.3021  0.2468
 3739TIP3   OH232631   6.651   6.386  12.212  0.4921  0.3396  0.1281
 3739TIP3    H132632   6.693   6.430  12.286 -0.5728  0.5231  0.6284
 3739TIP3    H232633   6.558   6.394  12.229  0.1843  1.5671 -1.9240
 3740TIP3   OH232634   1.807   5.862   1.078  0.0387  0.2750  0.6908
 3740TIP3    H132635   1.836   5.824   1.160  0.9547  1.6293  1.0027
 3740TIP3    H232636   1.737   5.922   1.102 -1.5953 -1.3469  0.1689
 3741TIP3   OH232637   1.845   3.522  13.423  0.1002 -0.1997 -0.4129
 3741TIP3    H132638   1.781   3.486  13.363  0.8505 -0.6879 -0.9267
 3741TIP3    H232639   1.903   3.449  13.445  0.5893  0.2691 -0.0933
 3742TIP3   OH232640   3.519   6.744  11.458  0.1151  0.2958 -0.6835
 3742TIP3    H132641   3.471   6.817  11.498  1.3490  0.8089 -0.1071
 3742TIP3    H232642   3.454   6.674  11.451 -0.2628  0.3412  1.8008
 3743TIP3   OH232643   0.679   4.951   5.471 -0.5571 -0.4720  0.5035
 3743TIP3    H132644   0.674   4.974   5.564  0.4688  0.8310  0.2380
 3743TIP3    H232645   0.700   5.033   5.426 -0.2769 -1.2420 -0.8014
 3744TIP3   OH232646   5.722   5.158  14.579  0.0961  0.3209 -0.2092
 3744TIP3    H132647   5.730   5.092  14.648  1.0354  1.9697  1.2873
 3744TIP3    H232648   5.650   5.214  14.607  2.3203  2.6997  0.9338
 3745TIP3   OH232649   5.721   5.473  11.585 -0.6186  0.2366  0.0638
 3745TIP3    H132650   5.640   5.476  11.637 -1.0809  0.4110 -0.6654
 3745TIP3    H232651   5.694   5.499  11.497  0.0050 -0.9288 -0.4809
 3746TIP3   OH232652   5.846   5.279   3.733  0.5769  0.3977 -0.1365
 3746TIP3    H132653   5.813   5.219   3.801  1.9525  0.4742  0.6303
 3746TIP3    H232654   5.902   5.340   3.781  2.2120 -0.0270 -1.4467
 3747TIP3   OH232655   5.750   2.685   1.906 -0.2550 -0.2453  0.2417
 3747TIP3    H132656   5.746   2.671   1.811  2.3679  2.8238 -0.3825
 3747TIP3    H232657   5.832   2.645   1.933 -0.6232 -0.4257  1.1157
 3748TIP3   OH232658   2.723   3.472   5.838  0.8656  0.1337  0.9877
 3748TIP3    H132659   2.812   3.495   5.813  0.5288 -0.0390 -0.4289
 3748TIP3    H232660   2.719   3.377   5.828  0.5571  0.1247  1.1658
 3749TIP3   OH232661   4.491   1.533  15.326 -0.1114 -0.0530  0.2414
 3749TIP3    H132662   4.437   1.489  15.260  0.4899 -0.0390 -0.2724
 3749TIP3    H232663   4.439   1.607  15.356 -2.0137 -2.2677  2.6215
 3750TIP3   OH232664   2.444   6.401   0.956 -0.1666 -0.5323 -0.1670
 3750TIP3    H132665   2.474   6.464   1.022 -0.3729 -1.4909  0.8578
 3750TIP3    H232666   2.351   6.421   0.945 -0.2277 -0.6300  0.1436
 3751TIP3   OH232667   4.170   0.346   1.383  0.8070 -0.2676 -0.2418
 3751TIP3    H132668   4.247   0.388   1.422  0.6920  0.7856 -1.1264
 3751TIP3    H232669   4.101   0.412   1.390  0.6669 -0.2262 -1.8261
 3752TIP3   OH232670   6.552   3.870   0.057 -0.0263  0.0991 -0.3093
 3752TIP3    H132671   6.605   3.948   0.076 -0.5668  1.3747 -3.6836
 3752TIP3    H232672   6.545   3.825   0.141  1.5827  2.8978  1.4099
 3753TIP3   OH232673   6.406   4.701  13.986 -0.3569  0.4483  0.2318
 3753TIP3    H132674   6.472   4.701  14.055 -0.1703  0.0771  0.0581
 3753TIP3    H232675   6.421   4.618  13.939 -1.1956  0.1842  0.4284
 3754TIP3   OH232676   5.261   3.129   6.021 -0.0368  0.1978 -0.2213
 3754TIP3    H132677   5.236   3.080   5.943 -0.9207 -1.6676  1.1793
 3754TIP3    H232678   5.180   3.136   6.071  1.0085 -0.8683  1.6939
 3755TIP3   OH232679   3.931   3.936   4.293 -0.2530 -0.2274  0.2654
 3755TIP3    H132680   3.867   3.870   4.321 -1.0304 -0.6643 -2.3479
 3755TIP3    H232681   3.902   4.017   4.333 -1.0305 -0.8990  1.0843
 3756TIP3   OH232682   0.304   4.284   2.581  0.1527  0.0817 -0.3416
 3756TIP3    H132683   0.384   4.248   2.543  0.8225 -0.0910  1.1992
 3756TIP3    H232684   0.265   4.211   2.628 -2.2115 -0.5094 -3.0386
 3757TIP3   OH232685   1.709   5.075  11.528  0.1437  0.6734 -0.0461
 3757TIP3    H132686   1.725   5.063  11.435  0.6279 -1.8597  0.3251
 3757TIP3    H232687   1.620   5.041  11.542  1.1828 -1.8230  0.8723
 3758TIP3   OH232688   5.994   2.135   4.490 -0.0785  0.4811 -0.2652
 3758TIP3    H132689   6.019   2.090   4.409  0.3638 -0.2660  0.2800
 3758TIP3    H232690   6.045   2.215   4.490 -0.0457  0.4622 -0.7092
 3759TIP3   OH232691   2.441   6.461   2.049  0.0108  0.5020  0.3735
 3759TIP3    H132692   2.408   6.519   1.981  0.7986 -1.0026 -1.3453
 3759TIP3    H232693   2.491   6.518   2.107 -0.1169  1.7052 -0.6727
 3760TIP3   OH232694   3.458   2.306  14.722  0.1454 -0.4275  0.0853
 3760TIP3    H132695   3.515   2.256  14.781 -0.4612  0.0580  1.0900
 3760TIP3    H232696   3.514   2.377  14.690  0.0514  0.1724  1.2369
 3761TIP3   OH232697   0.628   2.607  12.758  0.0078 -0.7008 -0.2664
 3761TIP3    H132698   0.560   2.674  12.760  0.4791 -0.2143 -0.5623
 3761TIP3    H232699   0.674   2.618  12.841  2.5448  1.9020 -1.9333
 3762TIP3   OH232700   5.089   2.060  13.132 -0.5025  0.1667  0.3791
 3762TIP3    H132701   5.028   2.126  13.100 -0.6698 -0.2399 -0.1513
 3762TIP3    H232702   5.049   1.977  13.108 -0.0995 -0.1216  0.6909
 3763TIP3   OH232703   4.039   2.347   5.068 -0.3205  0.0680 -0.6770
 3763TIP3    H132704   3.958   2.386   5.036 -0.6756 -2.0917 -2.5520
 3763TIP3    H232705   4.108   2.397   5.024 -0.6079  1.7999  0.7898
 3764TIP3   OH232706   2.187   6.293   4.593  0.7905  0.9252 -0.5446
 3764TIP3    H132707   2.098   6.262   4.605  1.0796 -0.4364 -1.7419
 3764TIP3    H232708   2.181   6.389   4.600 -0.7619  0.8401 -0.6446
 3765TIP3   OH232709   5.696   0.579   5.356  0.3003 -0.0072  0.4317
 3765TIP3    H132710   5.678   0.513   5.423 -0.0776  0.6941  1.0143
 3765TIP3    H232711   5.759   0.639   5.397 -0.9724  1.1960  0.6386
 3766TIP3   OH232712   1.213   2.674  10.990 -0.1714 -0.0998  0.6330
 3766TIP3    H132713   1.172   2.661  10.904  0.2701  3.0203 -0.1147
 3766TIP3    H232714   1.278   2.604  10.996 -0.4125 -0.5484 -1.4385
 3767TIP3   OH232715   5.224   1.493  16.096 -0.0573  0.1100 -0.0495
 3767TIP3    H132716   5.163   1.532  16.159  0.7640 -1.6654  1.9028
 3767TIP3    H232717   5.300   1.551  16.098  0.6948 -0.9022  1.9839
 3768TIP3   OH232718   4.336   4.821  11.092  0.1436 -0.1239 -0.7128
 3768TIP3    H132719   4.240   4.821  11.087  0.1476 -0.2802 -0.7735
 3768TIP3    H232720   4.365   4.807  11.002  0.2186 -0.6257 -0.6111
 3769TIP3   OH232721   4.905   4.732   1.603  0.6798  0.2115  0.2254
 3769TIP3    H132722   4.934   4.644   1.583  0.7234  0.2394  0.1660
 3769TIP3    H232723   4.816   4.737   1.568  1.4303  0.8615 -1.6673
 3770TIP3   OH232724   1.470   1.229   0.154 -0.4527 -0.4547 -0.2110
 3770TIP3    H132725   1.438   1.273   0.075  0.9678  0.1853 -0.4380
 3770TIP3    H232726   1.415   1.264   0.224 -2.1674 -1.5064 -0.9744
 3771TIP3   OH232727   1.948   2.140  14.314  0.4354  0.3736  0.4489
 3771TIP3    H132728   1.957   2.069  14.250  2.6279  0.9785  0.0335
 3771TIP3    H232729   1.976   2.218  14.267 -0.7248  1.3076  1.2947
 3772TIP3   OH232730   3.942   4.710  16.617  0.0860 -0.6874  0.0196
 3772TIP3    H132731   4.025   4.751  16.641 -0.4042 -0.3636  1.1835
 3772TIP3    H232732   3.968   4.630  16.571  1.0427  0.1590 -0.9650
 3773TIP3   OH232733   3.381   0.586   1.255  0.3133 -0.0859  0.6794
 3773TIP3    H132734   3.412   0.618   1.340  0.8323 -1.2954  0.9674
 3773TIP3    H232735   3.427   0.502   1.244  0.5341  0.2411 -0.9667
 3774TIP3   OH232736   3.537   3.970  11.374 -0.0406  0.0394 -0.1197
 3774TIP3    H132737   3.551   3.946  11.283 -1.6478  1.0728 -0.6701
 3774TIP3    H232738   3.472   3.908  11.406  0.2808 -0.1190  0.2360
 3775TIP3   OH232739   6.219   2.461   0.077 -0.0801 -0.3307 -0.3940
 3775TIP3    H132740   6.162   2.527   0.037 -0.4430  0.7828  1.8784
 3775TIP3    H232741   6.307   2.488   0.052 -0.3693 -0.4441 -1.5734
 3776TIP3   OH232742   0.709   6.559  12.000 -0.0448 -0.4844  0.3014
 3776TIP3    H132743   0.753   6.486  11.957  1.1851  0.6746 -0.4149
 3776TIP3    H232744   0.752   6.638  11.966 -0.9590  0.5634  1.5027
 3777TIP3   OH232745   0.380   2.365  15.560 -0.2750 -0.1895  1.0686
 3777TIP3    H132746   0.475   2.367  15.546 -0.2186 -0.5047  1.4066
 3777TIP3    H232747   0.346   2.320  15.483 -0.0515 -1.0494  1.4685
 3778TIP3   OH232748   5.625   0.847  13.098 -0.3088 -0.2371 -0.6205
 3778TIP3    H132749   5.590   0.846  13.187 -0.8044 -1.6501 -0.8308
 3778TIP3    H232750   5.582   0.775  13.054  1.0355 -0.4650 -1.5961
 3779TIP3   OH232751   5.163   3.525   4.151  0.4072 -0.0448 -0.7190
 3779TIP3    H132752   5.219   3.450   4.167 -0.3552 -0.3149  0.8094
 3779TIP3    H232753   5.086   3.489   4.106  0.0412 -0.1869  0.0151
 3780TIP3   OH232754   5.312   2.609   4.208  0.1564  0.0011 -0.1600
 3780TIP3    H132755   5.248   2.662   4.160  0.5884  0.6814  0.0041
 3780TIP3    H232756   5.349   2.669   4.273  1.5030 -0.1586 -0.7603
 3781TIP3   OH232757   0.137   0.511   4.591 -0.4303  0.3267  0.1507
 3781TIP3    H132758   0.211   0.479   4.642  0.8023  1.2937 -0.9923
 3781TIP3    H232759   0.091   0.432   4.563  0.7422 -0.3233  0.0428
 3782TIP3   OH232760   0.624   2.237   6.241 -0.1710  0.0659 -0.2452
 3782TIP3    H132761   0.646   2.311   6.299 -2.2773 -0.7140  1.6360
 3782TIP3    H232762   0.663   2.161   6.285 -1.2363 -0.4464 -0.1791
 3783TIP3   OH232763   4.191   3.865   5.638  0.2221 -0.5243  0.3030
 3783TIP3    H132764   4.130   3.874   5.712  0.3634  0.3144  0.3177
 3783TIP3    H232765   4.209   3.955   5.610  1.9019 -0.7273  0.6616
 3784TIP3   OH232766   6.732   6.487   3.952 -0.3445 -0.1906  0.0126
 3784TIP3    H132767   6.758   6.396   3.959 -1.5340 -0.3526  2.8490
 3784TIP3    H232768   6.667   6.488   3.881 -3.3705 -2.3021  2.6245
 3785TIP3   OH232769   5.100   0.417   3.442 -0.6613 -0.1599  0.1614
 3785TIP3    H132770   5.081   0.473   3.368  1.3322 -1.3024 -1.2672
 3785TIP3    H232771   5.014   0.394   3.479 -1.6020  1.2449 -1.1539
 3786TIP3   OH232772   5.594   6.094  13.225 -0.5476 -0.2455 -0.7722
 3786TIP3    H132773   5.661   6.061  13.284 -0.5574  1.3863  0.1547
 3786TIP3    H232774   5.611   6.048  13.142  0.0797 -1.7875  0.1790
 3787TIP3   OH232775   6.667   5.109  11.422 -0.3260  0.5845 -0.2202
 3787TIP3    H132776   6.758   5.085  11.438 -0.4925 -0.3959 -0.6847
 3787TIP3    H232777   6.643   5.062  11.342 -0.7688  2.0956 -0.9992
 3788TIP3   OH232778   1.426   1.945  14.671 -0.0107  0.0607 -0.4698
 3788TIP3    H132779   1.463   2.033  14.679 -0.5253  0.2231  0.1331
 3788TIP3    H232780   1.489   1.897  14.617  0.0088  0.9482 -1.2382
 3789TIP3   OH232781   1.316   1.791  12.733 -0.5610  0.0268 -0.0396
 3789TIP3    H132782   1.374   1.851  12.686 -0.7371  0.9787  0.9335
 3789TIP3    H232783   1.365   1.709  12.739 -0.3291  0.0540 -1.4171
 3790TIP3   OH232784   2.458   4.837  14.165 -0.1844  0.3196  0.8428
 3790TIP3    H132785   2.372   4.862  14.132 -1.1468 -0.8734  2.3390
 3790TIP3    H232786   2.462   4.742  14.152  0.9215  0.3705  0.7676
 3791TIP3   OH232787   0.662   2.024  14.027 -0.1054  0.3507  0.7425
 3791TIP3    H132788   0.585   2.036  14.083  0.9347 -2.6323  2.9034
 3791TIP3    H232789   0.720   1.966  14.077  2.6573  0.8850 -1.7164
 3792TIP3   OH232790   5.243   3.779  16.852  0.0237  0.1993  0.0830
 3792TIP3    H132791   5.317   3.763  16.793  0.0641  0.4849  0.0602
 3792TIP3    H232792   5.167   3.781  16.794 -0.2710 -2.1084  0.3092
 3793TIP3   OH232793   3.118   2.134  11.202 -0.5239  0.2931 -0.9479
 3793TIP3    H132794   3.095   2.082  11.125  1.5633 -0.3290 -1.1651
 3793TIP3    H232795   3.133   2.222  11.167 -0.2614  0.1688 -1.1477
 3794TIP3   OH232796   2.602   5.264  15.693  0.5256  0.3598  0.2514
 3794TIP3    H132797   2.537   5.318  15.648 -2.8229 -2.7323  1.0884
 3794TIP3    H232798   2.636   5.205  15.626  0.1852 -0.0526  0.4369
 3795TIP3   OH232799   1.214   0.131   2.027 -0.2187 -0.2677 -0.7068
 3795TIP3    H132800   1.141   0.073   2.006 -1.2874  0.9118 -0.3459
 3795TIP3    H232801   1.187   0.174   2.109 -0.4980  2.3969 -2.1207
 3796TIP3   OH232802   6.246   5.669  12.813  0.9205  0.4676  0.0127
 3796TIP3    H132803   6.334   5.664  12.775  0.9800  0.0425  0.2099
 3796TIP3    H232804   6.224   5.762  12.808  0.3925  0.2525 -2.2736
 3797TIP3   OH232805   5.328   0.744   6.215  0.0656  0.3247 -0.2214
 3797TIP3    H132806   5.247   0.792   6.195 -0.5061  0.0213  1.2669
 3797TIP3    H232807   5.381   0.806   6.266  0.1299  0.0243  0.0810
 3798TIP3   OH232808   4.855   3.848   3.933  0.2817 -0.2361  0.4524
 3798TIP3    H132809   4.874   3.759   3.963  0.2090 -0.2276  0.5233
 3798TIP3    H232810   4.868   3.902   4.011 -0.4145 -0.2781  0.5937
 3799TIP3   OH232811   4.016   2.980   2.456 -0.3567  0.0615 -0.2971
 3799TIP3    H132812   4.042   3.011   2.369 -0.4085 -0.5678 -0.5404
 3799TIP3    H232813   4.085   2.920   2.482 -1.2398 -1.1543 -0.6952
 3800TIP3   OH232814   0.955   5.850   2.504 -0.3301 -0.2437 -0.9844
 3800TIP3    H132815   0.990   5.870   2.590 -3.4453 -2.6311  0.9592
 3800TIP3    H232816   0.986   5.760   2.486  0.8307  0.4645 -2.6868
 3801TIP3   OH232817   1.011   4.206   5.142  0.1703 -0.1661  0.0942
 3801TIP3    H132818   0.946   4.215   5.211 -0.8142 -0.4080 -0.7927
 3801TIP3    H232819   1.094   4.197   5.189 -0.6981 -2.1847  1.3055
 3802TIP3   OH232820   5.834   2.537  16.218 -0.2823 -0.1310 -0.3349
 3802TIP3    H132821   5.852   2.465  16.157 -1.0001 -0.4311 -0.1940
 3802TIP3    H232822   5.740   2.534  16.232 -0.2256  0.4253  0.1916
 3803TIP3   OH232823   4.547   0.129  14.081  0.4825 -0.1953  0.0926
 3803TIP3    H132824   4.497   0.134  14.000  0.5566 -0.6513  0.0190
 3803TIP3    H232825   4.584   0.216  14.092  0.4891 -0.1400 -0.3741
 3804TIP3   OH232826   5.151   1.109  11.405  0.0925  1.0036 -0.3203
 3804TIP3    H132827   5.114   1.182  11.355 -1.4332  0.2937 -0.2663
 3804TIP3    H232828   5.152   1.140  11.495 -3.3125 -0.0576  0.1420
 3805TIP3   OH232829   3.345   3.836   6.164 -0.4228  0.1239 -0.9343
 3805TIP3    H132830   3.377   3.886   6.240  2.8489 -1.0537 -1.4410
 3805TIP3    H232831   3.414   3.846   6.098 -0.8173 -3.0390 -1.9253
 3806TIP3   OH232832   2.993   5.640  12.314 -0.3385  0.3975  0.7903
 3806TIP3    H132833   2.977   5.734  12.326  0.8021  0.7325 -0.2327
 3806TIP3    H232834   2.976   5.625  12.222  0.0007 -0.3065  0.8459
 3807TIP3   OH232835   6.485   4.626  15.090  0.4128 -0.5260 -0.2264
 3807TIP3    H132836   6.506   4.655  15.179  0.3165  0.1873 -0.4349
 3807TIP3    H232837   6.462   4.534  15.100 -1.2397 -0.0327  0.7340
 3808TIP3   OH232838   0.173   2.318  12.049  0.2040  0.0758 -0.3945
 3808TIP3    H132839   0.135   2.404  12.068  0.3922  0.3537 -1.2713
 3808TIP3    H232840   0.209   2.327  11.961  1.0760 -0.6100 -0.1123
 3809TIP3   OH232841   3.544   1.854   1.905 -1.0576  0.1420  0.3777
 3809TIP3    H132842   3.589   1.842   1.821  1.4602 -2.0115  1.9772
 3809TIP3    H232843   3.454   1.824   1.888 -0.6770  0.0645 -1.6135
 3810TIP3   OH232844   3.610   6.124   4.844  0.0945  0.0961 -0.6357
 3810TIP3    H132845   3.615   6.046   4.788 -0.0681  0.0080 -0.5296
 3810TIP3    H232846   3.661   6.101   4.922  0.9366  0.4925 -1.0667
 3811TIP3   OH232847   4.102   5.299   4.068 -0.4806 -0.6412  0.2809
 3811TIP3    H132848   4.171   5.235   4.086  1.3413  1.3201  0.4004
 3811TIP3    H232849   4.073   5.329   4.154 -1.9459 -1.9005  0.2515
 3812TIP3   OH232850   4.009   5.524   4.185  0.3141  0.4094  0.0829
 3812TIP3    H132851   4.076   5.588   4.211  0.5261  0.4349 -0.5152
 3812TIP3    H232852   4.006   5.530   4.090 -0.3948  0.2551  0.0945
 3813TIP3   OH232853   3.009   3.818   4.131 -0.1737 -0.6532  0.3934
 3813TIP3    H132854   3.075   3.870   4.177 -0.3417 -0.1024  0.0266
 3813TIP3    H232855   3.053   3.788   4.051 -0.7667  0.8696 -0.5334
 3814TIP3   OH232856   4.534   6.088   2.686 -0.3056  0.0094  0.3857
 3814TIP3    H132857   4.513   6.048   2.770  0.6881 -1.9140 -0.2554
 3814TIP3    H232858   4.457   6.140   2.664 -1.4709 -1.2495  1.4199
 3815TIP3   OH232859   5.829   0.952  15.953 -0.2938 -0.1184  0.0350
 3815TIP3    H132860   5.798   0.915  15.870  0.2659  0.4919 -0.4544
 3815TIP3    H232861   5.896   1.015  15.927 -1.3531  1.3808  0.8328
 3816TIP3   OH232862   3.575   5.124  14.383  0.8247  0.6414 -0.0081
 3816TIP3    H132863   3.643   5.076  14.430  0.0686  0.3288  0.8006
 3816TIP3    H232864   3.546   5.064  14.315 -0.0819 -0.0496  0.9666
 3817TIP3   OH232865   5.922   5.113   2.497  0.7810 -0.4752 -0.0505
 3817TIP3    H132866   5.870   5.147   2.424  0.0004  1.2070  1.2481
 3817TIP3    H232867   6.001   5.168   2.496  0.9076 -0.6564  0.1803
 3818TIP3   OH232868   6.703   0.903   4.371 -0.0707 -0.2688 -0.1004
 3818TIP3    H132869   6.738   0.977   4.320 -0.5069 -0.1232 -0.1969
 3818TIP3    H232870   6.779   0.849   4.390  0.2172  0.0815 -0.2413
 3819TIP3   OH232871   1.760   0.557  13.713  0.0691 -0.7191 -0.2507
 3819TIP3    H132872   1.708   0.580  13.790 -1.4621 -2.9437 -0.5378
 3819TIP3    H232873   1.844   0.600  13.726 -1.4224  1.9819  0.8459
 3820TIP3   OH232874   4.051   4.518   0.274  0.0297  0.4270 -0.0431
 3820TIP3    H132875   3.999   4.456   0.222  2.2825 -0.9412 -0.7432
 3820TIP3    H232876   4.009   4.518   0.360 -0.3428 -1.6644 -0.1934
 3821TIP3   OH232877   3.646   0.203  11.430  0.0037 -0.4711  0.0497
 3821TIP3    H132878   3.608   0.124  11.392 -0.4836 -0.2438  0.0614
 3821TIP3    H232879   3.623   0.198  11.523  0.9215 -0.8672  0.2639
 3822TIP3   OH232880   0.012   2.570   3.826 -0.5690 -0.0708 -0.0814
 3822TIP3    H132881  -0.071   2.565   3.874  0.3077 -2.2251  1.3073
 3822TIP3    H232882  -0.013   2.578   3.734 -2.3825 -2.5064  0.1362
 3823TIP3   OH232883   6.389   2.914   0.293  0.1937  0.5015 -0.2820
 3823TIP3    H132884   6.334   2.894   0.369 -0.2074 -0.6012 -0.8593
 3823TIP3    H232885   6.346   2.988   0.251 -0.8060 -0.3069 -0.6851
 3824TIP3   OH232886   6.556   1.120  16.653 -0.4405 -0.1112  0.8535
 3824TIP3    H132887   6.637   1.163  16.626 -1.1759  0.0416 -1.1770
 3824TIP3    H232888   6.534   1.162  16.737  1.5112 -0.1025  1.3854
 3825TIP3   OH232889   0.340   4.145  16.393  0.1802  0.1843  0.1063
 3825TIP3    H132890   0.330   4.237  16.369  0.0362  0.5538  1.4880
 3825TIP3    H232891   0.406   4.146  16.463  0.6632 -0.8378 -0.3238
 3826TIP3   OH232892   2.149   6.452   1.130 -0.4056  0.3023 -0.5160
 3826TIP3    H132893   2.082   6.423   1.192  1.9501 -0.0870  1.9237
 3826TIP3    H232894   2.160   6.545   1.149 -0.7850  0.5474 -1.4558
 3827TIP3   OH232895   2.372   5.838  15.999  0.3259  0.2576  0.3012
 3827TIP3    H132896   2.406   5.750  16.019 -0.2693  0.2840  1.4598
 3827TIP3    H232897   2.296   5.822  15.943  0.5700  0.0628  0.0240
 3828TIP3   OH232898   5.264   3.068   5.071  0.5199  0.9031 -0.3835
 3828TIP3    H132899   5.327   3.095   5.004  0.9598 -1.3667 -0.9467
 3828TIP3    H232900   5.227   2.987   5.037  0.6063 -0.1894  2.0304
 3829TIP3   OH232901   5.364   5.119  13.134 -0.4857 -0.1310 -0.1429
 3829TIP3    H132902   5.403   5.124  13.047 -0.4280  0.8159 -0.0704
 3829TIP3    H232903   5.434   5.147  13.193 -0.7491 -0.0576  0.1379
 3830TIP3   OH232904   5.840   5.078  16.999  0.2201  0.6604 -0.4585
 3830TIP3    H132905   5.931   5.077  16.969  0.4566 -0.6688  0.2534
 3830TIP3    H232906   5.845   5.055  17.092 -0.8060  1.0898 -0.2904
 3831TIP3   OH232907   5.004   2.835  15.104 -0.0328  0.3093 -0.2602
 3831TIP3    H132908   5.060   2.761  15.129  0.1252  0.1175 -1.1511
 3831TIP3    H232909   5.030   2.906  15.162 -0.7410 -0.5654  1.1581
 3832TIP3   OH232910   6.179   0.523  15.453 -0.0103  0.3394  0.2246
 3832TIP3    H132911   6.222   0.451  15.407  0.0663  0.9608 -0.7051
 3832TIP3    H232912   6.193   0.506  15.546 -0.0189 -0.8560  0.0047
 3833TIP3   OH232913   0.835   2.408   2.783 -0.4575 -0.3374  0.4772
 3833TIP3    H132914   0.773   2.336   2.774 -1.1633  0.2703  0.4623
 3833TIP3    H232915   0.877   2.393   2.868 -1.7156  0.1026  1.1839
 3834TIP3   OH232916   3.905   1.631  13.175 -0.1008 -0.1941  0.3009
 3834TIP3    H132917   3.905   1.557  13.235 -1.2253  0.3417  0.9799
 3834TIP3    H232918   3.891   1.592  13.089  2.8052 -1.0957  0.1681
 3835TIP3   OH232919   6.027   0.160   0.075  0.0573  0.5191 -0.5311
 3835TIP3    H132920   6.097   0.210   0.034  0.1178  0.9640  0.1016
 3835TIP3    H232921   6.071   0.104   0.139 -0.0576 -0.0143 -0.9138
 3836TIP3   OH232922   2.420   6.349  13.159  0.4833  0.5712  0.1733
 3836TIP3    H132923   2.368   6.336  13.080 -0.7145  2.0278  0.6989
 3836TIP3    H232924   2.507   6.315  13.137  0.0947  0.7396 -1.6706
 3837TIP3   OH232925   0.334   6.598   5.064  0.3156  0.1241 -0.0788
 3837TIP3    H132926   0.389   6.565   5.135  0.8553 -1.7457 -1.3448
 3837TIP3    H232927   0.257   6.635   5.108  0.6680 -0.9863  1.4829
 3838TIP3   OH232928   4.128   6.419  15.885 -0.0739 -0.0767  0.0127
 3838TIP3    H132929   4.143   6.362  15.960  0.8588 -1.1152 -0.9359
 3838TIP3    H232930   4.032   6.428  15.880 -0.2190 -1.3407  0.3420
 3839TIP3   OH232931   6.722   5.632   5.534 -0.3578  0.6434 -0.1388
 3839TIP3    H132932   6.672   5.627   5.453  0.4277 -1.5695 -0.5215
 3839TIP3    H232933   6.659   5.662   5.599 -2.5441 -3.1076 -0.3829
 3840TIP3   OH232934   0.777   5.422   4.518  0.1021 -0.4605  0.0878
 3840TIP3    H132935   0.858   5.397   4.564 -2.0656 -1.4268  3.6276
 3840TIP3    H232936   0.753   5.506   4.556 -0.0208  0.3376 -1.7232
 3841TIP3   OH232937   2.533   0.250  15.587 -0.0632  0.1370  0.0679
 3841TIP3    H132938   2.581   0.201  15.520  0.7837  0.3478  0.5105
 3841TIP3    H232939   2.450   0.203  15.596  0.9375 -1.5282  0.8500
 3842TIP3   OH232940   5.158   3.040  12.980  0.8335 -0.0653 -0.2869
 3842TIP3    H132941   5.147   3.091  12.900  1.0792  2.2829  1.1499
 3842TIP3    H232942   5.070   3.033  13.017  0.8068 -0.6587 -0.4556
 3843TIP3   OH232943   1.444   0.419  10.406 -0.7123 -0.6721 -0.2105
 3843TIP3    H132944   1.437   0.514  10.402 -1.3215 -0.7969 -2.3436
 3843TIP3    H232945   1.538   0.401  10.399 -0.6570 -0.2635 -0.4896
 3844TIP3   OH232946   6.774   2.467   5.832 -0.3446  0.6349  0.2938
 3844TIP3    H132947   6.764   2.398   5.898 -1.2159  1.9119  1.5267
 3844TIP3    H232948   6.695   2.520   5.840  0.2234  1.6728 -0.7650
 3845TIP3   OH232949   4.582   5.278   6.518 -0.3131 -0.3287  0.3750
 3845TIP3    H132950   4.499   5.262   6.563 -0.7803  0.0619 -0.3500
 3845TIP3    H232951   4.593   5.202   6.460 -0.0152 -0.5264  0.6869
 3846TIP3   OH232952   4.891   1.523  11.827  0.1371  0.1436 -0.2355
 3846TIP3    H132953   4.940   1.581  11.768 -0.9402  1.3694  0.0354
 3846TIP3    H232954   4.877   1.577  11.905 -1.4906 -0.2509 -0.2572
 3847TIP3   OH232955   0.442   6.398  12.761  0.0569  0.4807 -0.0953
 3847TIP3    H132956   0.478   6.319  12.719 -2.4142 -0.0635 -1.3219
 3847TIP3    H232957   0.420   6.455  12.687 -1.7555  0.6911  0.5923
 3848TIP3   OH232958   3.793   3.450  10.686  0.2807  0.2264  0.3468
 3848TIP3    H132959   3.806   3.375  10.628 -0.4908  0.0802  0.3511
 3848TIP3    H232960   3.864   3.510  10.665 -2.1250  1.9639 -3.5865
 3849TIP3   OH232961   3.128   4.342   2.227 -0.3264  0.5510 -0.6867
 3849TIP3    H132962   3.092   4.257   2.251  0.7492  0.4366  0.6119
 3849TIP3    H232963   3.199   4.321   2.166 -0.5379  0.5614 -0.9337
 3850TIP3   OH232964   4.195   6.088  11.597  0.4427  0.2755 -0.6496
 3850TIP3    H132965   4.252   6.161  11.573 -0.0450  1.4702  1.6955
 3850TIP3    H232966   4.132   6.126  11.658  1.2359 -2.4799  1.9887
 3851TIP3   OH232967   6.125   5.696   3.491  0.5233  0.2663  0.2733
 3851TIP3    H132968   6.087   5.639   3.424 -0.3702  0.0373  0.9612
 3851TIP3    H232969   6.167   5.766   3.441 -1.0063  0.6546 -0.5308
 3852TIP3   OH232970   0.338   1.205  16.584  0.9598 -0.4195 -0.3044
 3852TIP3    H132971   0.248   1.232  16.563  0.6141  0.7003  2.4855
 3852TIP3    H232972   0.380   1.195  16.498 -1.2483  0.9944 -1.6132
 3853TIP3   OH232973   5.844   2.340  15.452 -0.4756 -0.1320  0.6119
 3853TIP3    H132974   5.850   2.348  15.357 -0.6331 -1.7035  0.4587
 3853TIP3    H232975   5.931   2.365  15.484 -0.4250  0.3961  0.0661
 3854TIP3   OH232976   6.487   6.349   2.921  0.0380 -0.3447  0.0156
 3854TIP3    H132977   6.432   6.271   2.910  1.2326 -1.2013  0.0505
 3854TIP3    H232978   6.551   6.344   2.851 -1.1944  1.7701 -1.3029
 3855TIP3   OH232979   0.198   5.189   3.490  0.1918  0.3514 -0.2133
 3855TIP3    H132980   0.176   5.099   3.465 -0.4512  0.9902 -1.9948
 3855TIP3    H232981   0.149   5.244   3.430  0.1267  1.9268  1.2419
 3856TIP3   OH232982   4.715   1.084  16.670  0.5330 -0.1375 -0.0127
 3856TIP3    H132983   4.794   1.065  16.720  1.3914  0.3865 -1.1611
 3856TIP3    H232984   4.743   1.086  16.579 -0.8216 -0.0457 -0.4461
 3857TIP3   OH232985   5.561   2.136  11.673 -0.0130 -0.0916  0.4753
 3857TIP3    H132986   5.593   2.167  11.588  3.5513 -2.5172  0.8527
 3857TIP3    H232987   5.590   2.202  11.735 -0.4253  0.4069  0.1433
 3858TIP3   OH232988   3.491   3.796   5.730 -0.7744  0.2899  0.4002
 3858TIP3    H132989   3.409   3.773   5.774 -0.6508 -0.7174  0.1224
 3858TIP3    H232990   3.541   3.715   5.730 -1.6816 -0.3705 -3.6550
 3859TIP3   OH232991   0.819   2.831   0.598  0.6617 -0.2932  0.1305
 3859TIP3    H132992   0.799   2.839   0.505 -3.0644 -0.3975  0.8547
 3859TIP3    H232993   0.826   2.737   0.613 -1.0124 -0.3997  0.3533
 3860TIP3   OH232994   5.847   0.691   2.427 -0.2604 -0.0380 -0.6897
 3860TIP3    H132995   5.867   0.631   2.355 -0.1947 -0.2277 -0.5147
 3860TIP3    H232996   5.756   0.717   2.412 -0.0188  0.4993 -1.2525
 3861TIP3   OH232997   0.528   4.728   0.128 -0.4111  0.2709 -0.2502
 3861TIP3    H132998   0.436   4.699   0.132 -0.0587 -0.7474  0.7833
 3861TIP3    H232999   0.532   4.782   0.049 -1.8654  0.1860 -0.4086
 3862TIP3   OH233000   5.467   0.663  12.298 -0.4614  0.0439 -0.0279
 3862TIP3    H133001   5.504   0.748  12.277 -1.4670  0.4092 -0.3629
 3862TIP3    H233002   5.441   0.626  12.214  0.0509 -0.6405  0.1034
 3863TIP3   OH233003   3.944   0.635   0.851  0.1296  0.3011 -0.2146
 3863TIP3    H133004   3.965   0.566   0.914 -0.1471 -0.2984 -0.7745
 3863TIP3    H233005   3.851   0.653   0.867  0.0137  0.0273 -0.5567
 3864TIP3   OH233006   3.580   6.691  15.173  0.3750  0.4121  0.2290
 3864TIP3    H133007   3.632   6.735  15.240 -0.6301 -0.4346  1.5880
 3864TIP3    H233008   3.626   6.609  15.156 -0.1020  0.0163  0.8608
 3865TIP3   OH233009   2.582   3.075  13.932  0.5847  0.5404  0.1004
 3865TIP3    H133010   2.551   3.112  14.014  0.9926 -1.3716  1.1596
 3865TIP3    H233011   2.538   2.990  13.926 -0.3167  1.1412 -2.2374
 3866TIP3   OH233012   4.019   2.918  12.400 -0.3026 -0.0034 -0.1639
 3866TIP3    H133013   4.070   2.989  12.440  0.2659 -0.3792 -0.2131
 3866TIP3    H233014   3.962   2.962  12.337 -0.9967  0.5670  0.8468
 3867TIP3   OH233015   5.986   5.811  16.595 -0.2687 -0.2825 -0.1490
 3867TIP3    H133016   6.045   5.736  16.601 -1.1087 -0.8442  1.1497
 3867TIP3    H233017   5.997   5.843  16.505 -0.3782 -2.3399 -0.9118
 3868TIP3   OH233018   6.465   5.328  16.949  0.9147 -0.0670  0.2597
 3868TIP3    H133019   6.489   5.316  17.040  0.2213  2.2329  0.7768
 3868TIP3    H233020   6.528   5.275  16.900  1.9170 -0.5162  1.9929
 3869TIP3   OH233021   2.728   5.899   3.382 -0.0753  0.2481 -0.3346
 3869TIP3    H133022   2.684   5.814   3.392  1.8491 -0.5964  1.2348
 3869TIP3    H233023   2.737   5.910   3.287  0.0255 -1.5033 -0.5443
 3870TIP3   OH233024   5.786   0.042   6.662 -0.4251 -0.0511 -1.0522
 3870TIP3    H133025   5.730   0.112   6.630 -0.8424  0.0976 -0.0253
 3870TIP3    H233026   5.728  -0.014   6.714  0.5957  0.7205  0.9642
 3871TIP3   OH233027   3.890   4.410   3.041 -0.3966  0.3328 -0.5081
 3871TIP3    H133028   3.873   4.325   3.083 -0.0734  0.7601  0.5002
 3871TIP3    H233029   3.847   4.474   3.098  0.0665  0.9257 -0.8150
 3872TIP3   OH233030   2.062   4.773  16.203 -0.6298 -0.0966  0.3103
 3872TIP3    H133031   2.062   4.865  16.176  0.3854  0.3614  1.8161
 3872TIP3    H233032   2.014   4.772  16.285 -0.3890 -0.8610  0.4465
 3873TIP3   OH233033   0.732   6.573   0.802 -0.1716  0.3259 -0.3940
 3873TIP3    H133034   0.797   6.553   0.734  0.4662  0.1951  0.2542
 3873TIP3    H233035   0.772   6.644   0.852 -1.2359  1.3662 -0.9904
 3874TIP3   OH233036   1.243   4.869  13.207  0.2987  0.0388  0.6135
 3874TIP3    H133037   1.201   4.821  13.279 -0.0730 -0.0236  0.3590
 3874TIP3    H233038   1.322   4.819  13.189  0.6024  0.2844  1.2496
 3875TIP3   OH233039   1.570   5.453   5.661 -0.0557  0.0164 -0.0971
 3875TIP3    H133040   1.594   5.369   5.700  0.0467  0.6202  1.1630
 3875TIP3    H233041   1.490   5.436   5.613 -1.6828 -0.1746  2.5865
 3876TIP3   OH233042   3.979   4.826  13.030 -1.0717  0.3113  0.1349
 3876TIP3    H133043   3.966   4.738  13.064 -1.8045 -0.4668 -2.0437
 3876TIP3    H233044   3.925   4.829  12.951  0.3832  2.0900 -0.8292
 3877TIP3   OH233045   0.817   4.577  16.424  0.2447  0.2732 -1.1751
 3877TIP3    H133046   0.889   4.607  16.369  1.8197  0.5636  0.9711
 3877TIP3    H233047   0.837   4.484  16.440 -1.2158 -0.2947 -2.6424
 3878TIP3   OH233048   0.161   1.821   3.757  0.4860  0.0589  0.1146
 3878TIP3    H133049   0.099   1.830   3.829  2.7761 -0.7663  2.2497
 3878TIP3    H233050   0.157   1.728   3.733  0.1298  0.2207 -0.4618
 3879TIP3   OH233051   1.662   4.154   4.765 -0.7529 -0.1201 -0.1380
 3879TIP3    H133052   1.663   4.232   4.709  0.9036 -0.5005 -0.6586
 3879TIP3    H233053   1.669   4.188   4.854  0.5270  0.3031 -0.3950
 3880TIP3   OH233054   4.885   2.576  13.882 -0.2136 -0.3896  0.1603
 3880TIP3    H133055   4.794   2.589  13.857 -0.3105  0.6438  0.9944
 3880TIP3    H233056   4.930   2.654  13.851  0.4637 -1.0584 -0.5640
 3881TIP3   OH233057   2.927   3.544  13.248  0.5610 -0.3732 -0.3152
 3881TIP3    H133058   2.991   3.480  13.279  0.7771  0.1494  0.3258
 3881TIP3    H233059   2.848   3.492  13.230  0.8887 -0.8886 -0.2776
 3882TIP3   OH233060   5.597   0.998   2.284  0.5033  0.8678  0.7143
 3882TIP3    H133061   5.528   0.995   2.218  1.1156  1.2245  0.0506
 3882TIP3    H233062   5.602   0.909   2.317 -0.2152  0.8197  0.7069
 3883TIP3   OH233063   6.389   2.610   6.210  0.4381 -0.2371  0.0536
 3883TIP3    H133064   6.369   2.517   6.200 -0.7111 -0.1904  1.7993
 3883TIP3    H233065   6.310   2.648   6.249  1.3410  1.2592  0.4674
 3884TIP3   OH233066   2.991   1.696   2.825  0.3974 -0.1824  0.6633
 3884TIP3    H133067   3.028   1.618   2.786  1.2330  0.1945  0.6975
 3884TIP3    H233068   3.005   1.765   2.760  1.7130  0.4300  1.5688
 3885TIP3   OH233069   2.781   1.041  14.591  0.1750 -0.1832 -0.2335
 3885TIP3    H133070   2.859   1.094  14.575  0.0494  0.2897  0.6642
 3885TIP3    H233071   2.716   1.104  14.624 -0.2129 -0.7716  0.1290
 3886TIP3   OH233072   6.445   4.426   5.619  0.4862 -1.0247 -0.2304
 3886TIP3    H133073   6.439   4.340   5.660 -2.4454 -0.0542  1.5732
 3886TIP3    H233074   6.445   4.488   5.692 -0.0948  0.5840 -1.5420
 3887TIP3   OH233075   5.772   1.910  10.840  0.1292  0.7495  0.5829
 3887TIP3    H133076   5.725   1.976  10.788  0.2686  0.9788  0.7460
 3887TIP3    H233077   5.743   1.826  10.804  0.9408  0.9170 -0.4886
 3888TIP3   OH233078   6.489   5.485  10.761  0.4146  0.0035 -0.5757
 3888TIP3    H133079   6.555   5.421  10.788 -0.2103 -0.1962  0.5052
 3888TIP3    H233080   6.536   5.568  10.759  0.6272 -0.0777  0.5500
 3889TIP3   OH233081   6.127   5.160  14.674 -0.8307 -0.5643  0.1668
 3889TIP3    H133082   6.091   5.212  14.603  0.7606  1.4114  0.7404
 3889TIP3    H233083   6.134   5.071  14.639 -0.1576  0.3688 -2.1156
 3890TIP3   OH233084   2.928   0.977   5.238 -0.2347  0.0870 -0.0241
 3890TIP3    H133085   3.008   1.026   5.257  0.0193 -0.2477 -0.2252
 3890TIP3    H233086   2.868   1.000   5.310  0.4525 -0.5815  0.7777
 3891TIP3   OH233087   0.425   1.955   1.064 -0.3871  0.3612  0.0058
 3891TIP3    H133088   0.367   1.925   1.134 -1.2107 -0.4716 -1.0158
 3891TIP3    H233089   0.440   2.047   1.083  1.8290 -0.5619  2.9638
 3892TIP3   OH233090   2.205   5.660  12.841  0.6175  0.3614  0.0684
 3892TIP3    H133091   2.189   5.576  12.799  1.4868 -1.0774  2.4701
 3892TIP3    H233092   2.123   5.708  12.832  0.1315 -0.7084 -1.3948
 3893TIP3   OH233093   4.478   0.393   4.479  0.4689 -0.1242 -0.4807
 3893TIP3    H133094   4.489   0.339   4.557  0.5782  3.1706  1.9179
 3893TIP3    H233095   4.566   0.422   4.456  0.2466  0.4108 -0.6883
 3894TIP3   OH233096   0.094   0.144   3.851  0.1736  0.5182  0.3675
 3894TIP3    H133097   0.016   0.146   3.795  1.2277 -1.1250 -1.2339
 3894TIP3    H233098   0.060   0.150   3.940 -1.7083  0.8876 -0.3578
 3895TIP3   OH233099   5.300   0.725  14.116  0.4529 -0.2231  0.0106
 3895TIP3    H133100   5.272   0.757  14.030 -0.1265 -1.8759 -0.4454
 3895TIP3    H233101   5.219   0.713  14.165  0.6477 -0.9798  0.1604
 3896TIP3   OH233102   2.667   3.103  14.550  0.0129 -0.1373  0.3570
 3896TIP3    H133103   2.758   3.075  14.556  0.4199  1.4421  2.0057
 3896TIP3    H233104   2.658   3.140  14.463  0.1971 -2.7833 -0.8309
 3897TIP3   OH233105   3.195   0.402  12.531  0.0789  0.1692 -0.0621
 3897TIP3    H133106   3.168   0.310  12.537  2.6468 -0.5617  1.2811
 3897TIP3    H233107   3.198   0.420  12.437 -2.0222 -0.6105 -0.2995
 3898TIP3   OH233108   2.723   4.404  13.180 -0.2089 -0.5398  0.3430
 3898TIP3    H133109   2.800   4.358  13.213 -0.6447 -2.0870 -0.7598
 3898TIP3    H233110   2.650   4.345  13.198 -0.9906  0.4238  0.3553
 3899TIP3   OH233111   3.245   0.980  12.215 -0.1509  0.1582 -0.2807
 3899TIP3    H133112   3.297   1.017  12.144  0.5609 -1.2679 -0.5182
 3899TIP3    H233113   3.232   1.053  12.275  1.5906  0.7032 -0.5270
 3900TIP3   OH233114   4.262   5.199   1.505  0.4599 -0.4180  0.2760
 3900TIP3    H133115   4.261   5.105   1.518  0.5193 -0.3586  0.7284
 3900TIP3    H233116   4.352   5.219   1.479  0.1341 -0.6405 -1.0447
 3901TIP3   OH233117   2.590   0.967   3.610  0.6520 -0.3758 -0.0903
 3901TIP3    H133118   2.657   0.960   3.678  1.2716  1.8006 -0.4468
 3901TIP3    H233119   2.569   1.060   3.607  1.2594 -0.2839 -3.4475
 3902TIP3   OH233120   2.203   6.494   4.279  0.1453  0.3508 -0.4465
 3902TIP3    H133121   2.184   6.561   4.345  0.2279  0.2178 -0.2865
 3902TIP3    H233122   2.134   6.428   4.291 -2.5662  2.5010 -3.5175
 3903TIP3   OH233123   3.190   5.479  12.241 -0.1172  0.2574 -0.0343
 3903TIP3    H133124   3.120   5.531  12.282  0.2313 -0.2122  1.1630
 3903TIP3    H233125   3.168   5.388  12.261  1.2910  0.1512  1.0896
 3904TIP3   OH233126   3.038   1.701  11.252  0.0424 -0.0169  0.0404
 3904TIP3    H133127   3.034   1.724  11.159 -2.4038  1.2526  0.4257
 3904TIP3    H233128   3.075   1.613  11.253  0.4361  0.0896 -2.1098
 3905TIP3   OH233129   4.038   4.618  15.655  0.0064 -0.4777  0.4516
 3905TIP3    H133130   4.111   4.622  15.593  0.5459 -1.0140  1.0517
 3905TIP3    H233131   4.070   4.564  15.727 -0.6097  0.1728  1.2252
 3906TIP3   OH233132   5.001   4.036  12.779 -0.2869 -0.2793  0.5878
 3906TIP3    H133133   5.045   3.991  12.851  1.1465 -0.7565 -0.5670
 3906TIP3    H233134   5.066   4.100  12.748 -1.0228  0.1623 -0.0530
 3907TIP3   OH233135   2.220   2.400  16.898 -0.2608 -0.0329 -0.3645
 3907TIP3    H133136   2.142   2.445  16.933 -0.3826  0.1738 -0.9060
 3907TIP3    H233137   2.284   2.405  16.969 -0.8581 -0.5092  0.2172
 3908TIP3   OH233138   4.635   6.252  16.395  0.0313  0.3600  0.1545
 3908TIP3    H133139   4.564   6.204  16.438  0.5077 -0.9440 -0.4816
 3908TIP3    H233140   4.697   6.184  16.369  1.7365  1.5202  1.1037
 3909TIP3   OH233141   4.716   1.575  16.696  0.6179  0.3666  0.4962
 3909TIP3    H133142   4.664   1.496  16.712 -0.1822  0.9083  0.5693
 3909TIP3    H233143   4.800   1.542  16.663 -0.0225 -0.4791 -0.3149
 3910TIP3   OH233144   3.544   4.201   4.201 -0.1727  0.4223  0.6880
 3910TIP3    H133145   3.522   4.232   4.289  1.1271  1.1286  0.7757
 3910TIP3    H233146   3.562   4.107   4.213 -0.9589  0.3064  0.9958
 3911TIP3   OH233147   4.592   1.477   0.559  0.2657  0.4350 -0.1781
 3911TIP3    H133148   4.615   1.390   0.593  0.6558  0.2731 -0.8652
 3911TIP3    H233149   4.665   1.502   0.504 -0.5235  0.5506 -1.1853
 3912TIP3   OH233150   4.247   1.439  15.613  0.2183 -0.4240  0.0773
 3912TIP3    H133151   4.180   1.393  15.664 -0.5903  0.5423 -0.1090
 3912TIP3    H233152   4.231   1.532  15.629  1.4766 -0.1787 -0.0296
 3913TIP3   OH233153   1.439   5.508  15.705  0.0562 -0.6635  0.5330
 3913TIP3    H133154   1.478   5.531  15.789  2.3593 -0.6556 -0.5187
 3913TIP3    H233155   1.351   5.477  15.728  0.6966 -0.8346  2.9506
 3914TIP3   OH233156   3.014   6.277  12.533  0.0365 -0.5432 -0.0234
 3914TIP3    H133157   2.990   6.213  12.600  0.3377 -0.8382 -0.1947
 3914TIP3    H233158   2.968   6.357  12.558 -2.5250 -1.5636 -1.2774
 3915TIP3   OH233159   6.642   3.904   5.122 -0.0471 -0.2530  0.0619
 3915TIP3    H133160   6.653   3.981   5.067 -1.8382  0.2332  0.3597
 3915TIP3    H233161   6.673   3.831   5.068  3.7733  0.8761  0.5751
 3916TIP3   OH233162   6.333   4.881  15.668 -0.0620  0.0508 -0.6324
 3916TIP3    H133163   6.404   4.829  15.705 -2.0479 -2.5376 -0.3307
 3916TIP3    H233164   6.337   4.864  15.574  0.2022  0.5299 -0.7077
 3917TIP3   OH233165   1.455   6.381  16.072  0.0776  0.9354  0.3195
 3917TIP3    H133166   1.503   6.302  16.044  0.4782  1.1595  0.3664
 3917TIP3    H233167   1.363   6.358  16.062  0.1973  0.5332  0.1251
 3918TIP3   OH233168   1.038   2.505   2.189  0.0128  0.3150 -0.5021
 3918TIP3    H133169   1.041   2.571   2.258 -0.9811  0.4535 -0.5866
 3918TIP3    H233170   1.024   2.555   2.109  0.7433  0.1203 -0.7546
 3919TIP3   OH233171   0.909   4.539   5.665  0.3358 -0.6422 -0.0806
 3919TIP3    H133172   0.850   4.511   5.734 -0.1638 -0.1561 -0.3070
 3919TIP3    H233173   0.894   4.634   5.657  0.0143 -0.7712 -1.1911
 3920TIP3   OH233174   5.888   4.200  16.388  0.0247 -0.0819 -0.5514
 3920TIP3    H133175   5.818   4.182  16.451 -1.3835  0.6046 -1.8668
 3920TIP3    H233176   5.860   4.156  16.308  1.4850 -0.4337 -0.8717
 3921TIP3   OH233177   0.070   3.906   5.358 -0.1325 -0.0369 -0.0482
 3921TIP3    H133178  -0.004   3.857   5.323 -0.2751 -1.5398  2.2833
 3921TIP3    H233179   0.125   3.923   5.281 -1.5662 -1.2268 -1.3780
 3922TIP3   OH233180   3.374   4.525  15.422 -0.9391 -0.8047  0.1846
 3922TIP3    H133181   3.279   4.536  15.433 -0.7826 -0.5899  1.3887
 3922TIP3    H233182   3.398   4.461  15.489 -0.4310 -1.8435 -0.9736
 3923TIP3   OH233183   2.728   1.251   5.243  0.1394 -0.2878 -0.4865
 3923TIP3    H133184   2.730   1.181   5.309 -1.9446  0.7471  0.7118
 3923TIP3    H233185   2.716   1.205   5.160  2.1456 -1.5624 -0.1113
 3924TIP3   OH233186   2.526   2.983   3.198  0.4769  0.0416  0.0050
 3924TIP3    H133187   2.555   3.063   3.243 -0.0347 -0.0226  0.4532
 3924TIP3    H233188   2.581   2.979   3.120  0.8233  0.5880  0.2133
 3925TIP3   OH233189   0.026   6.325  11.537  0.3866 -0.2767  0.0310
 3925TIP3    H133190  -0.033   6.387  11.579  0.0866 -1.2049  1.0187
 3925TIP3    H233191   0.086   6.379  11.486 -0.1952  0.7839  0.4551
 3926TIP3   OH233192   2.208   2.456  13.394  0.3383 -0.2849 -0.1440
 3926TIP3    H133193   2.157   2.421  13.321 -0.4557  2.1810 -0.8174
 3926TIP3    H233194   2.298   2.457  13.363  0.4471 -2.0830  0.0455
 3927TIP3   OH233195   4.603   1.946   0.462 -0.3170 -0.3314  0.6861
 3927TIP3    H133196   4.671   1.900   0.413 -0.6641  0.8160 -0.9169
 3927TIP3    H233197   4.581   1.887   0.533  1.0819 -1.5027  0.1844
 3928TIP3   OH233198   3.993   5.931  11.507 -0.4127  0.0535  0.7928
 3928TIP3    H133199   4.068   5.979  11.543  0.6098 -1.0074  0.1048
 3928TIP3    H233200   3.954   5.991  11.444  0.1459  0.4255  0.7953
 3929TIP3   OH233201   4.944   1.125   1.048  0.1513 -0.6290  0.0282
 3929TIP3    H133202   4.887   1.118   1.124 -0.0606 -0.0115 -0.0665
 3929TIP3    H233203   5.032   1.107   1.082 -0.0930 -1.5340  0.1817
 3930TIP3   OH233204   6.497   4.130  11.857  0.1424  0.6829 -0.2259
 3930TIP3    H133205   6.446   4.203  11.894 -1.2331  0.3942 -1.5076
 3930TIP3    H233206   6.488   4.141  11.763 -0.7484 -1.6299 -0.4213
 3931TIP3   OH233207   1.484   4.154   6.622  0.0284 -0.1727  0.7144
 3931TIP3    H133208   1.413   4.217   6.632 -0.4365 -0.6587  0.5245
 3931TIP3    H233209   1.563   4.207   6.610 -0.5308  0.3652 -0.6361
 3932TIP3   OH233210   2.516   1.075  11.122 -0.0643  0.3013 -0.2227
 3932TIP3    H133211   2.599   1.123  11.123 -0.3184  0.7351  0.5808
 3932TIP3    H233212   2.474   1.100  11.040  1.2723 -1.0813 -1.3529
 3933TIP3   OH233213   2.260   1.134   0.952  0.2618  0.4456  0.3761
 3933TIP3    H133214   2.172   1.098   0.958  1.0008 -1.4736  0.0654
 3933TIP3    H233215   2.304   1.105   1.031  1.4922 -1.1293 -0.8492
 3934TIP3   OH233216   4.445   4.438   3.425  0.6497 -0.6766  1.2686
 3934TIP3    H133217   4.391   4.478   3.493  1.2911 -0.2443  1.5161
 3934TIP3    H233218   4.511   4.503   3.404 -0.0962 -0.4167 -0.4408
 3935TIP3   OH233219   0.484   3.527  11.602  0.4872 -0.3776  0.5022
 3935TIP3    H133220   0.411   3.513  11.662  0.1674  0.0195  0.2136
 3935TIP3    H233221   0.554   3.471  11.635 -0.3550 -1.7227  0.0586
 3936TIP3   OH233222   1.530   4.722  15.420  0.1583 -0.1964 -0.0199
 3936TIP3    H133223   1.520   4.802  15.368  1.5688 -1.1608 -1.8573
 3936TIP3    H233224   1.579   4.749  15.497 -0.6446  0.9896  0.0741
 3937TIP3   OH233225   2.507   4.400   0.505 -0.0047  0.0441  0.3950
 3937TIP3    H133226   2.429   4.406   0.560  0.7271  0.2727  1.4132
 3937TIP3    H233227   2.494   4.466   0.437  0.6808  2.2011  2.2980
 3938TIP3   OH233228   3.844   0.596   3.430 -0.4888 -0.4541 -0.4777
 3938TIP3    H133229   3.859   0.664   3.496 -0.8044 -0.5700 -0.2897
 3938TIP3    H233230   3.913   0.531   3.446 -0.3281 -0.2935 -0.5122
 3939TIP3   OH233231   5.672   5.985  17.224 -0.0653  0.6450 -0.3541
 3939TIP3    H133232   5.735   5.962  17.156  1.5873  0.0519  1.3173
 3939TIP3    H233233   5.634   5.901  17.250 -0.4507  0.8321 -0.3142
 3940TIP3   OH233234   6.684   6.768   1.238 -0.7899 -0.0838  0.0563
 3940TIP3    H133235   6.692   6.674   1.223 -0.9435 -0.1656  0.4935
 3940TIP3    H233236   6.757   6.789   1.296  0.5965  0.4632 -1.8156
 3941TIP3   OH233237   2.576   0.261  12.909 -0.0722 -0.2935  0.0691
 3941TIP3    H133238   2.643   0.311  12.955 -0.0688  2.3686 -2.6656
 3941TIP3    H233239   2.626   0.206  12.848 -0.2742  0.8470 -1.1576
 3942TIP3   OH233240   3.000   0.609   4.162 -0.4149 -0.9394 -0.0837
 3942TIP3    H133241   2.981   0.565   4.080 -1.6467 -0.8148  0.1174
 3942TIP3    H233242   3.095   0.605   4.171 -0.3254 -1.4411 -1.2334
 3943TIP3   OH233243   1.103   0.858  15.893  0.5941 -0.4188  0.2464
 3943TIP3    H133244   1.182   0.818  15.858  0.4697  0.6395 -1.3003
 3943TIP3    H233245   1.088   0.813  15.976  2.3369 -1.2041  0.1572
 3944TIP3   OH233246   0.088   6.174  17.032 -0.0795  0.0530 -0.4926
 3944TIP3    H133247   0.032   6.175  16.955  0.3545 -0.7697 -0.8275
 3944TIP3    H233248   0.157   6.237  17.013  0.0918 -0.2348 -0.8279
 3945TIP3   OH233249   0.408   3.390  15.653 -0.3631  0.2979  1.0883
 3945TIP3    H133250   0.459   3.402  15.573 -0.1451 -0.8283  1.0528
 3945TIP3    H233251   0.334   3.336  15.626 -1.4548  1.7241  1.1976
 3946TIP3   OH233252   4.950   1.557   5.202 -0.6521  0.5310  0.4903
 3946TIP3    H133253   4.974   1.560   5.109  1.2091 -1.2878  0.8653
 3946TIP3    H233254   5.013   1.615   5.245 -0.2574 -0.1621  0.8494
 3947TIP3   OH233255   0.831   2.152  12.175  0.3379  0.5431 -0.2847
 3947TIP3    H133256   0.786   2.117  12.098  3.1516 -0.6712 -1.4300
 3947TIP3    H233257   0.840   2.246  12.156 -0.0731  0.4703 -0.8715
 3948TIP3   OH233258   3.871   0.307  11.807  0.2405  0.0306 -0.3193
 3948TIP3    H133259   3.892   0.298  11.714  0.9591  0.2189 -0.1768
 3948TIP3    H233260   3.950   0.280  11.852 -0.1035 -0.0461  0.2415
 3949TIP3   OH233261   0.275   2.355  11.795  0.0477  0.7078  0.2114
 3949TIP3    H133262   0.228   2.410  11.732  0.0317 -0.4428 -0.7954
 3949TIP3    H233263   0.316   2.287  11.742 -1.5596 -1.4218  1.5937
 3950TIP3   OH233264   1.762   2.550   6.299 -0.4185 -0.1295  0.3679
 3950TIP3    H133265   1.688   2.607   6.317  1.1580  1.3332  2.5829
 3950TIP3    H233266   1.839   2.604   6.317  1.1862 -1.9184 -0.8327
 3951TIP3   OH233267   3.161   6.103   5.245 -0.2061  0.1054 -0.2871
 3951TIP3    H133268   3.245   6.118   5.203 -0.0179 -0.1650 -0.0090
 3951TIP3    H233269   3.176   6.123   5.337 -0.0152 -1.4886  0.0483
 3952TIP3   OH233270   0.265   3.289  15.011  0.0984  0.5547 -0.0283
 3952TIP3    H133271   0.176   3.284  15.046  0.5007  0.4493  1.0043
 3952TIP3    H233272   0.265   3.226  14.939 -0.8059  0.9265 -0.3621
 3953TIP3   OH233273   2.696   3.494   1.047  0.0728  0.1842 -0.4412
 3953TIP3    H133274   2.636   3.543   1.103 -0.6509  1.1537 -2.0300
 3953TIP3    H233275   2.644   3.419   1.017  1.5178 -2.2771  2.8836
 3954TIP3   OH233276   4.775   1.990   1.311 -0.3016  0.2607 -0.4365
 3954TIP3    H133277   4.767   2.063   1.372  0.4414 -0.4522  0.5194
 3954TIP3    H233278   4.707   2.006   1.245 -1.4967  0.7209  0.8955
 3955TIP3   OH233279   0.673   3.896   4.496 -0.2841  0.3114  0.7513
 3955TIP3    H133280   0.754   3.902   4.445 -1.6978  1.5744 -1.3925
 3955TIP3    H233281   0.694   3.941   4.578  1.8894 -1.4108  1.1956
 3956TIP3   OH233282   5.547   3.826  17.195 -0.0519 -0.0545 -0.1275
 3956TIP3    H133283   5.589   3.871  17.269 -0.6864  1.0600 -0.4290
 3956TIP3    H233284   5.554   3.888  17.123 -0.0824 -0.8471 -0.8129
 3957TIP3   OH233285   0.589   3.895  13.407  0.0732 -1.0733 -0.1520
 3957TIP3    H133286   0.556   3.982  13.388 -0.6968 -1.3193  0.0160
 3957TIP3    H233287   0.603   3.895  13.502  2.1714 -0.4296 -0.4542
 3958TIP3   OH233288   2.222   1.946  11.544  0.1524  0.2756  1.0588
 3958TIP3    H133289   2.146   2.000  11.568 -0.7588 -1.4287  2.1338
 3958TIP3    H233290   2.266   1.996  11.476 -2.8974  0.5470 -0.8271
 3959TIP3   OH233291   5.400   6.638   4.424  0.0379  0.0622 -0.2784
 3959TIP3    H133292   5.488   6.655   4.458 -0.5918 -1.6002  2.2955
 3959TIP3    H233293   5.414   6.582   4.348  1.2310  0.2633 -0.2103
 3960TIP3   OH233294   6.785   1.596   3.176  0.5608 -0.1050  0.1580
 3960TIP3    H133295   6.751   1.654   3.108 -0.2582  0.4119  1.0046
 3960TIP3    H233296   6.787   1.650   3.255 -1.1745 -1.5050  1.1952
 3961TIP3   OH233297   6.514   2.559   4.661  0.0238 -0.1295  0.1408
 3961TIP3    H133298   6.558   2.486   4.617 -0.7476 -1.1807  1.0988
 3961TIP3    H233299   6.559   2.637   4.628  1.5049 -1.0880 -0.1519
 3962TIP3   OH233300   0.215   5.881   5.231 -0.3230 -0.3565  0.0413
 3962TIP3    H133301   0.286   5.938   5.258  0.6199 -1.3979 -0.1789
 3962TIP3    H233302   0.142   5.904   5.289 -0.0060  1.1343 -0.1385
 3963TIP3   OH233303   4.855   3.028   3.878 -0.4309  0.0647  0.3048
 3963TIP3    H133304   4.913   3.097   3.910  0.6507 -0.7914  0.2468
 3963TIP3    H233305   4.831   2.979   3.957 -0.6404  0.0978  0.2611
 3964TIP3   OH233306   0.992   4.557   5.211  0.3929 -0.1461  0.3629
 3964TIP3    H133307   0.947   4.473   5.211  1.5858 -0.9461 -3.8606
 3964TIP3    H233308   0.941   4.611   5.150  1.9886  0.7411 -0.2192
 3965TIP3   OH233309   2.432   5.893   2.442  0.1473  0.0406  0.5489
 3965TIP3    H133310   2.393   5.868   2.358  0.0307 -0.0756  0.6370
 3965TIP3    H233311   2.375   5.964   2.474  1.3014  1.4127 -0.3753
 3966TIP3   OH233312   4.833   0.256   3.165  0.2716 -0.4362 -0.5009
 3966TIP3    H133313   4.869   0.199   3.233 -2.2491 -1.8547 -0.2892
 3966TIP3    H233314   4.910   0.294   3.123  1.9317 -1.2912  1.6468
 3967TIP3   OH233315   3.689   1.346   2.980  0.4486 -0.0649  0.1897
 3967TIP3    H133316   3.629   1.415   3.008  1.9378  0.5957  1.8185
 3967TIP3    H233317   3.671   1.273   3.041  1.1283  0.0613  0.5494
 3968TIP3   OH233318   5.676   1.470   5.629 -0.8682 -0.4552  0.1229
 3968TIP3    H133319   5.618   1.442   5.559 -2.2116 -0.3604  1.1821
 3968TIP3    H233320   5.621   1.524   5.686  0.5494  0.6342  0.5090
 3969TIP3   OH233321   5.479   0.128  10.579  0.5482  0.2200  0.1243
 3969TIP3    H133322   5.505   0.040  10.604  0.1697 -0.1214 -0.6624
 3969TIP3    H233323   5.395   0.117  10.535  0.6587  0.9314 -0.2811
 3970TIP3   OH233324   1.231   2.052  11.509 -0.3292  0.0195 -0.1955
 3970TIP3    H133325   1.269   2.119  11.566  1.8332 -1.9642  0.8223
 3970TIP3    H233326   1.200   1.985  11.570 -1.6427 -0.2999 -1.2180
 3971TIP3   OH233327   0.879   2.572   0.694  0.5078 -0.1689 -0.3569
 3971TIP3    H133328   0.879   2.488   0.648 -0.8843  0.5717 -1.7662
 3971TIP3    H233329   0.887   2.549   0.786  0.1684 -1.8394 -0.7230
 3972TIP3   OH233330   1.822   3.743   3.289 -0.2098 -0.4429 -0.3146
 3972TIP3    H133331   1.864   3.826   3.315 -1.6888  0.2456 -0.1091
 3972TIP3    H233332   1.796   3.702   3.372  2.1700 -2.0274 -0.2907
 3973TIP3   OH233333   2.288   3.740  15.309  0.6576 -0.7773 -0.4960
 3973TIP3    H133334   2.376   3.779  15.315  1.0740 -1.8373  0.4216
 3973TIP3    H233335   2.274   3.726  15.215  1.2536 -0.1261 -0.6852
 3974TIP3   OH233336   2.357   0.540   0.520  0.6171 -0.0927  0.4395
 3974TIP3    H133337   2.374   0.446   0.532  0.1638 -0.2728 -0.3283
 3974TIP3    H233338   2.277   0.556   0.570  1.1544  0.0679  1.2701
 3975TIP3   OH233339   0.491   6.216  11.191  0.1594  0.0734 -0.2453
 3975TIP3    H133340   0.557   6.208  11.122 -2.3316  2.0845 -2.9489
 3975TIP3    H233341   0.423   6.153  11.167 -0.7906  0.8641  0.3280
 3976TIP3   OH233342   2.065   4.200   0.124  0.4134 -0.4512 -0.0001
 3976TIP3    H133343   2.052   4.287   0.162 -2.1453 -0.7447 -0.0901
 3976TIP3    H233344   2.033   4.208   0.034 -0.5924 -1.6726  0.2329
 3977TIP3   OH233345   0.324   6.005  14.202  0.3184  0.1545 -0.2322
 3977TIP3    H133346   0.247   5.985  14.254  0.4622  0.3729  0.0665
 3977TIP3    H233347   0.384   5.932  14.217  0.2806  0.1199 -0.2502
 3978TIP3   OH233348   5.119   5.052  15.354  0.4638 -0.1789 -0.5834
 3978TIP3    H133349   5.112   4.967  15.395  0.4108 -0.0504 -0.3262
 3978TIP3    H233350   5.211   5.077  15.365  0.0397  0.7131  1.1705
 3979TIP3   OH233351   5.099   6.467  11.446  0.1585 -0.0777  0.0864
 3979TIP3    H133352   5.175   6.513  11.413  0.6046 -0.8702 -0.0020
 3979TIP3    H233353   5.051   6.532  11.497  0.4944  0.6215 -0.4911
 3980TIP3   OH233354   1.438   4.108   0.037 -0.4540 -0.1555  0.0750
 3980TIP3    H133355   1.446   4.030   0.092  1.7354  0.1772  0.2490
 3980TIP3    H233356   1.505   4.098  -0.030 -1.6354  0.5277 -1.2411
 3981TIP3   OH233357   4.381   6.413  11.155  0.0068 -0.1473 -0.6981
 3981TIP3    H133358   4.466   6.444  11.125 -0.2061  2.8075  1.4707
 3981TIP3    H233359   4.398   6.328  11.195  1.7968  0.0744 -0.9697
 3982TIP3   OH233360   4.216   0.591  10.876 -0.1162 -0.3804  0.2240
 3982TIP3    H133361   4.201   0.681  10.845  1.3520 -0.4779 -0.8376
 3982TIP3    H233362   4.152   0.538  10.828  1.3914 -0.3708 -1.8573
 3983TIP3   OH233363   1.813   5.644  12.271  0.7485 -0.0033  0.6839
 3983TIP3    H133364   1.783   5.732  12.294 -0.9299  0.3218 -2.4317
 3983TIP3    H233365   1.735   5.590  12.279  1.1158 -0.6621 -0.1810
 3984TIP3   OH233366   2.127   4.076  11.678 -0.4948  0.4971 -0.3517
 3984TIP3    H133367   2.052   4.129  11.707 -1.6135 -1.1290 -0.1782
 3984TIP3    H233368   2.119   4.074  11.582  0.3044  1.6994 -0.4554
 3985TIP3   OH233369   1.696   3.980  14.240  0.5904  0.0963 -0.0481
 3985TIP3    H133370   1.731   3.908  14.187  0.9154  0.7801 -0.7842
 3985TIP3    H233371   1.755   4.054  14.222  1.5802 -0.0431  2.4108
 3986TIP3   OH233372   3.151   1.616  14.847 -0.0508 -0.3695 -0.2574
 3986TIP3    H133373   3.108   1.701  14.864 -1.2776 -0.7750 -1.3037
 3986TIP3    H233374   3.242   1.639  14.826 -0.1063  0.6014  0.4997
 3987TIP3   OH233375   6.710   5.172   1.590  0.4318 -0.3974  0.9791
 3987TIP3    H133376   6.770   5.231   1.636 -0.7273  0.6364  1.1876
 3987TIP3    H233377   6.750   5.159   1.504 -0.0374  1.8902  0.3912
 3988TIP3   OH233378   4.016   4.421   2.340  0.5039 -0.1765  0.2325
 3988TIP3    H133379   3.998   4.336   2.300  1.3359  0.2059 -0.9706
 3988TIP3    H233380   3.944   4.433   2.403 -0.1290 -1.3415 -0.2475
 3989TIP3   OH233381   4.082   4.025   1.523  0.0949 -0.2319 -0.2728
 3989TIP3    H133382   4.033   3.953   1.563  0.4091 -0.1258  0.3003
 3989TIP3    H233383   4.171   4.015   1.556  0.0826  0.5621 -0.0020
 3990TIP3   OH233384   5.056   6.214  13.840  0.0609 -0.3618  0.4234
 3990TIP3    H133385   5.090   6.126  13.824 -2.7676 -1.3378 -0.6311
 3990TIP3    H233386   5.100   6.243  13.919  4.2895 -0.9411 -1.5705
 3991TIP3   OH233387   5.225   3.329   3.580 -0.7700  0.5299 -0.1615
 3991TIP3    H133388   5.254   3.240   3.597 -0.3875  0.6579 -0.1432
 3991TIP3    H233389   5.136   3.332   3.615 -0.4670  0.4096  0.6245
 3992TIP3   OH233390   6.503   1.490  14.273 -0.4680  0.2717  0.2997
 3992TIP3    H133391   6.559   1.556  14.315 -0.9421  0.0046  1.3780
 3992TIP3    H233392   6.424   1.538  14.248  0.1868  0.6271 -1.1296
 3993TIP3   OH233393   6.345   4.220   4.585  0.0165 -0.5629  0.1814
 3993TIP3    H133394   6.269   4.162   4.594 -1.2965  0.9470 -0.7456
 3993TIP3    H233395   6.346   4.271   4.665 -1.3528  0.9797 -0.7354
 3994TIP3   OH233396   6.400   2.160   4.704  0.0467  0.1341  0.5211
 3994TIP3    H133397   6.412   2.174   4.611 -0.5854  0.0611  0.4289
 3994TIP3    H233398   6.308   2.136   4.714  0.0066  0.5497  1.2141
 3995TIP3   OH233399   3.756   6.130   3.409  0.1436 -0.4511 -0.0170
 3995TIP3    H133400   3.765   6.086   3.493 -1.6316 -1.3227 -0.2654
 3995TIP3    H233401   3.799   6.215   3.422 -0.0395 -0.6097  1.7280
 3996TIP3   OH233402   6.753   3.936   2.150  0.2747 -0.0070  0.2139
 3996TIP3    H133403   6.815   3.984   2.096  1.5231  1.3467  2.7815
 3996TIP3    H233404   6.671   3.987   2.145  0.6641  0.6359  0.3273
 3997TIP3   OH233405   5.616   2.950   1.612  0.0294 -0.3701 -0.7200
 3997TIP3    H133406   5.543   2.889   1.622  1.7605 -2.3042  0.7949
 3997TIP3    H233407   5.576   3.037   1.610 -2.3377 -1.4390 -0.6114
 3998TIP3   OH233408   2.030   0.093   2.470  1.0415 -0.3969 -0.1447
 3998TIP3    H133409   1.962   0.049   2.419  1.1545  0.3651 -0.9695
 3998TIP3    H233410   2.026   0.185   2.442  0.7910  0.1315  1.5745
 3999TIP3   OH233411   1.584   0.259   3.785 -0.4276  0.3254  0.5214
 3999TIP3    H133412   1.568   0.187   3.724 -1.1754 -0.7872  1.9978
 3999TIP3    H233413   1.643   0.318   3.738  0.2480 -1.2849 -0.6808
 4000TIP3   OH233414   0.300   0.443   5.926 -0.5855  0.2876  0.6045
 4000TIP3    H133415   0.338   0.407   6.006 -0.3502 -0.3640  0.2021
 4000TIP3    H233416   0.371   0.496   5.888 -0.7172  0.6446  0.8618
 4001TIP3   OH233417   0.256   1.430   4.242 -0.2543  0.4250 -0.3409
 4001TIP3    H133418   0.168   1.400   4.264 -0.2482  0.8368  0.2556
 4001TIP3    H233419   0.309   1.350   4.243 -0.1843  0.4733  1.5364
 4002TIP3   OH233420   0.526   4.773   3.045 -0.1720  0.4775 -0.3715
 4002TIP3    H133421   0.504   4.710   3.113  2.2264 -0.2958 -0.2516
 4002TIP3    H233422   0.481   4.853   3.070 -1.1977 -0.4737  0.8625
 4003TIP3   OH233423   2.179   3.199   5.031  0.1746  0.1912  1.1278
 4003TIP3    H133424   2.182   3.231   5.121  0.2654 -0.2185  1.2708
 4003TIP3    H233425   2.255   3.239   4.989  1.2622 -1.1645  1.7496
 4004TIP3   OH233426   6.534   4.944   3.135  0.3111  0.1862 -0.3349
 4004TIP3    H133427   6.493   4.995   3.065  0.6140  0.7349 -0.1151
 4004TIP3    H233428   6.474   4.870   3.149 -0.4166  0.7801 -0.2677
 4005TIP3   OH233429   0.841   3.303  11.340 -0.1326 -0.0272  0.5651
 4005TIP3    H133430   0.781   3.341  11.275  0.2132 -2.5992 -1.3748
 4005TIP3    H233431   0.783   3.274  11.411 -0.9563 -0.3715 -0.2274
 4006TIP3   OH233432   2.821   6.268   1.259  0.8246  0.0609 -0.4134
 4006TIP3    H133433   2.867   6.222   1.329 -0.4368 -0.4883  0.0586
 4006TIP3    H233434   2.849   6.224   1.178  0.2876 -0.9758 -0.0376
 4007TIP3   OH233435   3.498   5.964  11.967 -0.5907 -0.3046  0.1724
 4007TIP3    H133436   3.426   5.906  11.942 -2.0264  1.6216 -0.2970
 4007TIP3    H233437   3.469   6.051  11.941  1.2413  0.7319  1.4535
 4008TIP3   OH233438   3.901   0.246  13.795  0.4902 -0.0287  0.7294
 4008TIP3    H133439   3.871   0.313  13.856 -1.1222 -0.0946  0.0340
 4008TIP3    H233440   3.852   0.167  13.820  1.6960 -0.7232  0.9533
 4009TIP3   OH233441   5.187   5.467   5.116  0.0553  0.1868 -0.4865
 4009TIP3    H133442   5.141   5.538   5.161  1.1233  0.8536 -0.4307
 4009TIP3    H233443   5.118   5.406   5.090 -0.6772  0.2803  1.1912
 4010TIP3   OH233444   5.713   5.536  14.887  0.3673 -0.4623  0.0043
 4010TIP3    H133445   5.711   5.590  14.808  1.6613 -0.3263  0.0549
 4010TIP3    H233446   5.802   5.500  14.889 -0.5986 -2.9499 -0.2727
 4011TIP3   OH233447   5.628   1.368   3.006  0.1956 -0.3435  0.0055
 4011TIP3    H133448   5.645   1.461   3.019 -1.7303 -0.0130  0.2981
 4011TIP3    H233449   5.681   1.344   2.930 -0.4586  1.3316 -0.9905
 4012TIP3   OH233450   4.267   0.651   1.175 -0.0036 -0.1675  0.3556
 4012TIP3    H133451   4.321   0.604   1.111 -1.2277 -0.2960 -0.6142
 4012TIP3    H233452   4.288   0.743   1.161  0.7655 -0.2864  0.7312
 4013TIP3   OH233453   5.314   4.184  14.253 -0.3165  0.3621 -0.0471
 4013TIP3    H133454   5.316   4.127  14.176  0.9708  0.7363 -0.2960
 4013TIP3    H233455   5.221   4.193  14.273 -0.5619 -1.6767 -0.1123
 4014TIP3   OH233456   0.532   5.933   2.211 -0.2126  0.2279 -0.6695
 4014TIP3    H133457   0.439   5.909   2.211  0.1276 -1.1019 -0.0622
 4014TIP3    H233458   0.546   5.978   2.294 -0.2427  0.1273 -0.6094
 4015TIP3   OH233459   5.366   2.307   5.323 -0.1812 -0.0693 -0.1714
 4015TIP3    H133460   5.378   2.400   5.342  2.0631 -0.0715 -1.4311
 4015TIP3    H233461   5.271   2.294   5.324 -0.5313  2.3466 -0.4770
 4016TIP3   OH233462   2.238   4.941   5.951  0.5165  0.0739  0.4672
 4016TIP3    H133463   2.300   4.916   5.882  0.7658 -0.2198  0.8016
 4016TIP3    H233464   2.277   5.018   5.992  0.3310  0.2948  0.2334
 4017TIP3   OH233465   6.238   5.352  15.678 -0.4267 -0.0809  0.1751
 4017TIP3    H133466   6.319   5.401  15.667  0.4200 -1.6435 -0.6683
 4017TIP3    H233467   6.169   5.418  15.669  0.6699  0.8597 -1.6118
 4018TIP3   OH233468   4.594   3.436  11.969 -0.0089 -0.3225  0.0900
 4018TIP3    H133469   4.645   3.516  11.981 -1.8304  0.7426  0.7446
 4018TIP3    H233470   4.643   3.369  12.017  0.3915  0.8425  1.3136
 4019TIP3   OH233471   2.868   0.956  12.637 -0.1662 -0.1001  0.0420
 4019TIP3    H133472   2.905   0.921  12.718  0.0330  0.8277  0.3498
 4019TIP3    H233473   2.943   0.990  12.589 -0.4400  0.4478  0.0026
 4020TIP3   OH233474   3.460   4.969   6.235  0.3387 -0.4194 -0.3183
 4020TIP3    H133475   3.521   5.021   6.289 -2.7562  2.8841  0.1766
 4020TIP3    H233476   3.412   4.916   6.298 -1.6876  1.7388 -0.0095
 4021TIP3   OH233477   0.991   0.083   5.467 -0.4893 -0.3768  0.1320
 4021TIP3    H133478   1.034   0.161   5.432  1.3109 -0.3196  2.3820
 4021TIP3    H233479   0.969   0.031   5.390 -2.1148  2.5274 -1.4558
 4022TIP3   OH233480   5.967   3.591   4.276  0.0823 -0.7635  0.5885
 4022TIP3    H133481   5.971   3.523   4.208  1.2876 -0.0137 -0.1061
 4022TIP3    H233482   6.053   3.587   4.319  0.1769  0.3425  0.5150
 4023TIP3   OH233483   3.946   1.608   0.853 -0.0117  1.1015 -0.1553
 4023TIP3    H133484   3.864   1.652   0.831 -0.5986  0.0086 -0.1866
 4023TIP3    H233485   4.011   1.646   0.794 -0.9837  0.2320 -1.8097
 4024TIP3   OH233486   6.625   0.399   0.953  0.5805 -0.2029  0.1642
 4024TIP3    H133487   6.607   0.382   0.861  0.3796 -0.0988  0.1847
 4024TIP3    H233488   6.539   0.412   0.993  0.7115  0.5192  0.2116
 4025TIP3   OH233489   1.855   4.314  15.432 -0.7012  0.2411  0.7994
 4025TIP3    H133490   1.890   4.383  15.489 -1.2418  1.4229 -0.2776
 4025TIP3    H233491   1.923   4.247  15.432 -0.3764  0.5538  2.2543
 4026TIP3   OH233492   2.038   5.591   5.465 -0.0470 -0.5197 -0.0531
 4026TIP3    H133493   2.103   5.570   5.399 -0.2390 -1.0526 -0.0719
 4026TIP3    H233494   2.021   5.508   5.510 -0.2268 -0.2499  0.3867
 4027TIP3   OH233495   0.959   0.890   1.243  0.0213 -0.3999 -0.6413
 4027TIP3    H133496   1.050   0.866   1.261  0.3603  0.2390 -1.4936
 4027TIP3    H233497   0.951   0.979   1.277 -0.2521 -0.4081 -0.6889
 4028TIP3   OH233498   0.924   6.033  13.360  0.1447 -0.8423 -0.7592
 4028TIP3    H133499   0.851   5.979  13.391 -0.3820 -0.3840 -1.2124
 4028TIP3    H233500   0.902   6.122  13.387  1.6162 -1.0143  1.0986
 4029TIP3   OH233501   0.945   5.514   1.779  0.0947  0.3054 -0.1549
 4029TIP3    H133502   0.970   5.555   1.862 -1.6380  2.8242 -0.8151
 4029TIP3    H233503   0.929   5.588   1.720 -5.6912 -1.1481 -0.6999
 4030TIP3   OH233504   5.617   4.291  14.935 -0.2086  0.1094 -0.2421
 4030TIP3    H133505   5.706   4.294  14.900 -0.1899 -0.4760 -0.2562
 4030TIP3    H233506   5.562   4.327  14.865  0.2112  2.1799  0.4676
 4031TIP3   OH233507   5.203   3.577  14.092  0.1823 -0.8543 -0.4158
 4031TIP3    H133508   5.188   3.656  14.039  0.9896 -0.7394 -0.4819
 4031TIP3    H233509   5.138   3.514  14.060 -0.8571 -0.0271  0.0420
 4032TIP3   OH233510   0.014   3.816   4.741 -0.0531 -0.1675 -0.1513
 4032TIP3    H133511   0.019   3.720   4.741 -0.1524 -0.1770  0.5259
 4032TIP3    H233512   0.094   3.845   4.699  1.1725 -0.4953  1.9024
 4033TIP3   OH233513   6.778   4.257  13.784 -0.1918  0.6563 -1.1228
 4033TIP3    H133514   6.847   4.315  13.817  0.5628 -0.1155 -1.2976
 4033TIP3    H233515   6.740   4.304  13.710  0.6977  0.7430 -1.5287
 4034TIP3   OH233516   2.273   4.320   1.924 -0.1635  0.2512 -0.3289
 4034TIP3    H133517   2.217   4.276   1.861 -0.7005 -0.6924  0.7942
 4034TIP3    H233518   2.311   4.393   1.875 -2.4540  0.9836 -1.0724
 4035TIP3   OH233519   4.299   6.563  12.702  0.3201  0.3218  0.4103
 4035TIP3    H133520   4.296   6.636  12.641  2.4427 -1.1428 -1.5243
 4035TIP3    H233521   4.227   6.506  12.676  1.4151 -0.4571 -0.9945
 4036TIP3   OH233522   0.566   5.680   5.243  0.2256  0.0410  0.3990
 4036TIP3    H133523   0.563   5.768   5.207  0.0157 -0.1871 -0.1482
 4036TIP3    H233524   0.540   5.690   5.334  0.8973  0.6437  0.5285
 4037TIP3   OH233525   5.263   4.345   2.690  0.3991 -0.3019  0.0835
 4037TIP3    H133526   5.273   4.382   2.777  1.3544 -0.1972 -0.0742
 4037TIP3    H233527   5.351   4.346   2.652 -0.1132  0.2196 -1.1109
 4038TIP3   OH233528   4.846   4.152   1.924 -0.6417 -0.1224 -0.1724
 4038TIP3    H133529   4.855   4.103   1.842  0.0186 -0.1825 -0.0657
 4038TIP3    H233530   4.809   4.088   1.985 -1.4650  0.0251 -0.5173
 4039TIP3   OH233531   2.463   1.526  14.060  0.3647  0.3103  0.4109
 4039TIP3    H133532   2.424   1.581  13.992  0.5948  1.6397  1.3326
 4039TIP3    H233533   2.389   1.502  14.117  0.6054  1.4912  1.2415
 4040TIP3   OH233534   4.378   6.711   4.619  1.0508  0.0869 -0.7077
 4040TIP3    H133535   4.473   6.715   4.607  0.9276  0.9306 -1.5007
 4040TIP3    H233536   4.346   6.792   4.580  0.0045 -0.1897 -0.4362
 4041TIP3   OH233537   3.469   1.556  16.911 -0.0498  0.2115  0.3764
 4041TIP3    H133538   3.560   1.549  16.940 -0.7531 -0.5937  2.4398
 4041TIP3    H233539   3.454   1.650  16.906  0.7786  0.3552  0.3974
 4042TIP3   OH233540   3.622   4.354  11.556 -0.3942  0.1932 -0.6197
 4042TIP3    H133541   3.564   4.373  11.482 -0.8375  1.9653  0.1622
 4042TIP3    H233542   3.571   4.377  11.633  0.3579 -0.8975  0.2067
 4043TIP3   OH233543   4.914   0.580  14.059 -0.4396  0.3413 -0.0768
 4043TIP3    H133544   4.869   0.663  14.074 -3.6441 -1.5990  1.6240
 4043TIP3    H233545   4.964   0.565  14.140 -0.2901  0.3158 -0.1720
 4044TIP3   OH233546   2.035   2.268   5.242 -0.1673 -0.1700 -0.0442
 4044TIP3    H133547   1.980   2.190   5.230 -1.1774  0.5831 -0.3236
 4044TIP3    H233548   2.106   2.257   5.178  0.3315 -1.4186  0.7077
 4045TIP3   OH233549   1.086   5.307   4.327 -0.2210 -0.3009  0.1348
 4045TIP3    H133550   1.129   5.256   4.259 -0.3044 -0.7259  0.4047
 4045TIP3    H233551   1.147   5.379   4.345 -0.4769  0.1654 -0.8296
 4046TIP3   OH233552   2.080   2.391  12.390 -0.0945 -0.0675 -0.3231
 4046TIP3    H133553   2.078   2.362  12.482 -0.0579  0.0854 -0.2746
 4046TIP3    H233554   2.057   2.483  12.393 -0.6280 -0.1923 -0.5227
 4047TIP3   OH233555   1.749   5.174  10.556  0.1848 -0.2926 -0.2166
 4047TIP3    H133556   1.656   5.154  10.545  0.0104  0.1185  0.4762
 4047TIP3    H233557   1.760   5.261  10.516  0.3850 -0.5863 -0.8005
 4048TIP3   OH233558   5.314   1.783  16.499 -0.7882  0.1705 -0.2601
 4048TIP3    H133559   5.303   1.871  16.464 -1.3710  0.8895  1.6535
 4048TIP3    H233560   5.245   1.775  16.566 -1.8988 -2.3791 -1.6451
 4049TIP3   OH233561   2.169   5.270   3.483  0.6010  0.5968  0.0374
 4049TIP3    H133562   2.226   5.338   3.447  0.6942  0.8333  0.6146
 4049TIP3    H233563   2.097   5.262   3.420  1.8136 -0.4531 -1.2378
 4050TIP3   OH233564   5.169   4.261  16.818 -0.6505 -0.0647 -0.6846
 4050TIP3    H133565   5.252   4.251  16.771 -1.0158  1.2464 -1.6577
 4050TIP3    H233566   5.183   4.216  16.901  1.3599  0.9625 -0.4337
 4051TIP3   OH233567   6.504   5.632  13.684 -0.3481  0.3793 -0.2055
 4051TIP3    H133568   6.485   5.717  13.646 -1.6763  0.1072 -0.1755
 4051TIP3    H233569   6.421   5.585  13.681  0.4588 -1.0629 -0.5722
 4052TIP3   OH233570   4.540   3.814  14.419  0.3308  0.5215 -0.6944
 4052TIP3    H133571   4.518   3.733  14.464 -0.0909  0.4839 -0.9657
 4052TIP3    H233572   4.626   3.798  14.380 -0.5103 -0.4066 -2.2041
 4053TIP3   OH233573   2.843   5.474  16.798  0.7277  0.4013  0.3114
 4053TIP3    H133574   2.847   5.514  16.711 -0.9170  0.7835  0.3865
 4053TIP3    H233575   2.750   5.454  16.811  1.2594 -1.6521  1.0920
 4054TIP3   OH233576   3.619   0.219   6.125  0.2670  0.0060  0.5599
 4054TIP3    H133577   3.683   0.169   6.176  2.2155  0.3996 -1.3791
 4054TIP3    H233578   3.625   0.308   6.160  1.0035  0.0981  0.2213
 4055TIP3   OH233579   3.883   1.056  13.362 -0.2727 -0.2157 -0.1819
 4055TIP3    H133580   3.795   1.022  13.348  0.0597 -0.5540 -1.5223
 4055TIP3    H233581   3.914   1.009  13.440 -2.6551  2.7038  2.6543
 4056TIP3   OH233582   4.917   4.658  12.355 -0.1336 -0.2026  0.7643
 4056TIP3    H133583   4.869   4.669  12.437 -0.0084 -0.0040  0.8129
 4056TIP3    H233584   4.940   4.747  12.329 -1.4485 -0.1495 -0.2629
 4057TIP3   OH233585   6.460   1.817  15.109  0.0496 -0.0637 -0.1709
 4057TIP3    H133586   6.404   1.740  15.099 -0.8761  0.6554 -0.6330
 4057TIP3    H233587   6.436   1.854  15.194 -0.3470  0.3879 -0.4820
 4058TIP3   OH233588   3.522   5.135  11.306 -0.0759 -0.6516 -0.4990
 4058TIP3    H133589   3.609   5.129  11.344  0.0436 -1.1374 -0.8397
 4058TIP3    H233590   3.476   5.199  11.360  0.9836  0.8104 -1.2910
 4059TIP3   OH233591   2.828   1.451  17.144 -0.1284  0.0396  0.4410
 4059TIP3    H133592   2.751   1.448  17.201 -0.1802 -1.4713  0.2949
 4059TIP3    H233593   2.823   1.371  17.092  0.9141  0.5077 -0.4055
 4060TIP3   OH233594   3.541   1.079  12.414  0.3967  0.5678 -0.2202
 4060TIP3    H133595   3.601   1.141  12.374 -0.4927  1.5853 -0.0017
 4060TIP3    H233596   3.574   0.993  12.388  1.1462  1.1541 -1.2287
 4061TIP3   OH233597   0.807   5.772  11.642  0.1202 -0.1730  0.2371
 4061TIP3    H133598   0.855   5.694  11.615  2.2838 -0.0639  3.4176
 4061TIP3    H233599   0.779   5.753  11.732 -0.0814  2.3365  0.7544
 4062TIP3   OH233600   6.455   3.962   3.403  0.0092 -0.2922  0.3391
 4062TIP3    H133601   6.427   3.940   3.492  0.5006  2.1463  1.1271
 4062TIP3    H233602   6.373   3.980   3.356 -0.1751 -0.3285  0.6453
 4063TIP3   OH233603   5.049   5.287   3.920 -0.4205  0.2368  0.1998
 4063TIP3    H133604   5.025   5.232   3.995 -0.4928 -0.3856 -0.2764
 4063TIP3    H233605   4.974   5.345   3.909 -1.6065 -1.4906 -1.0849
 4064TIP3   OH233606   4.038   1.136  12.389  0.3922 -0.4388 -0.6094
 4064TIP3    H133607   4.072   1.165  12.304 -0.0304  0.9968 -0.3079
 4064TIP3    H233608   4.022   1.217  12.437  1.1675 -1.2467  1.0612
 4065TIP3   OH233609   2.188   3.364  15.124 -0.1897 -0.0112 -0.4741
 4065TIP3    H133610   2.174   3.457  15.104 -1.8207  0.3982  2.3293
 4065TIP3    H233611   2.135   3.348  15.202  2.3752 -2.5976  0.8106
 4066TIP3   OH233612   2.882   2.838  16.331  0.2041  0.5970 -0.2987
 4066TIP3    H133613   2.793   2.810  16.309 -0.7046  1.1076  2.4975
 4066TIP3    H233614   2.921   2.763  16.375 -0.2924  1.7151  2.1314
 4067TIP3   OH233615   0.550   1.280   1.534 -0.4937 -0.1577  0.0146
 4067TIP3    H133616   0.628   1.334   1.540 -0.5468  0.0121 -0.8568
 4067TIP3    H233617   0.546   1.235   1.619 -0.7250  1.5712  0.9558
 4068TIP3   OH233618   4.375   3.051  13.328 -0.1159 -0.4883 -0.2616
 4068TIP3    H133619   4.439   3.003  13.380 -1.2123  0.4913  2.0468
 4068TIP3    H233620   4.297   2.997  13.329 -0.6157  0.2336  0.3866
 4069TIP3   OH233621   2.314   5.418  10.652  0.2456  0.2783  0.4056
 4069TIP3    H133622   2.349   5.505  10.629  0.3463  0.3638  0.8820
 4069TIP3    H233623   2.392   5.364  10.667  0.1982  0.9517  3.3072
 4070TIP3   OH233624   0.992   1.610  11.722  0.2037  0.7119  0.2645
 4070TIP3    H133625   0.911   1.563  11.737 -0.8638  2.6054  0.6545
 4070TIP3    H233626   1.044   1.595  11.801 -0.7379  1.3777  1.0236
 4071TIP3   OH233627   3.955   1.986  16.488 -0.0230  0.0808 -0.8023
 4071TIP3    H133628   3.955   2.053  16.420  0.5169  0.3095 -0.5774
 4071TIP3    H233629   4.020   1.922  16.459  0.1785  0.1572 -0.5164
 4072TIP3   OH233630   3.830   2.740  12.531 -0.0764  0.0030  0.3148
 4072TIP3    H133631   3.816   2.693  12.448  0.5736 -1.5493  1.0642
 4072TIP3    H233632   3.898   2.804  12.511  2.1418 -2.2871  0.3415
 4073TIP3   OH233633   2.926   2.178   1.318 -0.0022  0.1950 -0.6010
 4073TIP3    H133634   2.984   2.184   1.393 -0.2971  2.3808 -0.5164
 4073TIP3    H233635   2.957   2.101   1.270  2.4104  0.7819 -0.0801
 4074TIP3   OH233636   2.956   0.670  16.803 -0.8909 -0.3271 -0.3242
 4074TIP3    H133637   2.989   0.747  16.850 -0.8552  0.0557 -0.9605
 4074TIP3    H233638   2.861   0.682  16.801 -1.1000 -1.4894  1.6193
 4075TIP3   OH233639   4.799   6.079  11.686  0.0752 -0.1083  0.3941
 4075TIP3    H133640   4.721   6.120  11.725 -0.9542 -2.0018  0.3826
 4075TIP3    H233641   4.860   6.070  11.760 -0.2376  0.1180  0.6862
 4076TIP3   OH233642   3.085   2.093   2.248 -0.0759  0.4362  0.0228
 4076TIP3    H133643   3.077   2.182   2.283  1.4041  0.0886  1.3111
 4076TIP3    H233644   3.053   2.036   2.319 -0.9626 -0.0678 -0.7709
 4077TIP3   OH233645   2.710   0.520   4.590 -0.3129 -0.0916  0.1500
 4077TIP3    H133646   2.636   0.482   4.543 -0.1896  0.4792 -0.5105
 4077TIP3    H233647   2.757   0.572   4.524  0.3221  0.0530  0.7074
 4078TIP3   OH233648   3.676   6.188   6.300 -0.8923 -0.4382  0.0552
 4078TIP3    H133649   3.680   6.120   6.367  2.4505 -0.3603  0.0177
 4078TIP3    H233650   3.589   6.226   6.310 -1.1186 -1.5964  3.1955
 4079TIP3   OH233651   2.669   2.177   0.465  0.2232  0.0552 -0.0611
 4079TIP3    H133652   2.654   2.149   0.555  1.9640  1.3100  0.6434
 4079TIP3    H233653   2.607   2.249   0.452 -0.6755 -0.7249 -0.1965
 4080TIP3   OH233654   2.475   3.529  11.505  0.4096 -0.5063 -0.2251
 4080TIP3    H133655   2.523   3.559  11.428  0.7884 -1.3406 -0.3118
 4080TIP3    H233656   2.399   3.483  11.469 -0.2566  0.4775 -0.0918
 4081TIP3   OH233657   3.849   0.158  11.222  0.7327 -0.0086  0.1000
 4081TIP3    H133658   3.808   0.212  11.154 -0.2266  0.0206  0.6865
 4081TIP3    H233659   3.809   0.189  11.304  1.6561 -0.2447  0.6431
 4082TIP3   OH233660   6.355   3.206  13.516 -0.3412  0.0653 -0.0828
 4082TIP3    H133661   6.418   3.255  13.463 -1.9655  0.4347 -1.7451
 4082TIP3    H233662   6.338   3.127  13.465 -2.4771  0.7638 -0.5089
 4083TIP3   OH233663   3.338   1.758   5.807  0.3386  0.1779  0.1951
 4083TIP3    H133664   3.339   1.814   5.729  0.0884  1.9191  1.4216
 4083TIP3    H233665   3.430   1.745   5.828  0.4086 -0.3790 -0.4456
 4084TIP3   OH233666   1.725   3.556   1.441  0.1246 -0.8964  0.0686
 4084TIP3    H133667   1.795   3.515   1.493  0.1458  0.1241  0.8496
 4084TIP3    H233668   1.663   3.589   1.506 -0.3892 -0.5599 -0.5873
 4085TIP3   OH233669   4.529   6.754  11.143 -0.1637 -0.1817 -0.3516
 4085TIP3    H133670   4.610   6.798  11.170  0.2854  0.2123 -2.2521
 4085TIP3    H233671   4.556   6.664  11.124 -0.6402 -0.6848  1.2824
 4086TIP3   OH233672   1.173   6.470  11.100 -0.5842 -0.3085  0.1664
 4086TIP3    H133673   1.198   6.405  11.034  0.5492 -0.1738  0.4504
 4086TIP3    H233674   1.085   6.444  11.127 -0.1258 -1.7684  0.3180
 4087TIP3   OH233675   4.188   3.293  12.598  0.3969  0.1948  0.0826
 4087TIP3    H133676   4.216   3.298  12.689 -1.8286 -0.9130  0.8625
 4087TIP3    H233677   4.213   3.204  12.570  0.7504  0.4057 -0.2892
 4088TIP3   OH233678   0.365   4.945  15.819  0.7778 -0.1867  0.2861
 4088TIP3    H133679   0.298   4.900  15.767  1.3195 -1.7678  0.9186
 4088TIP3    H233680   0.322   4.961  15.903 -0.5198  3.4953 -1.0012
 4089TIP3   OH233681   4.405   0.561  14.427  0.3657 -0.1369 -0.0904
 4089TIP3    H133682   4.389   0.472  14.456 -1.3607 -0.4859 -2.0293
 4089TIP3    H233683   4.423   0.553  14.333  0.7171  1.5022 -0.1770
 4090TIP3   OH233684   0.588   3.167   1.549  0.4447  0.2016 -0.1822
 4090TIP3    H133685   0.572   3.091   1.605  1.1759 -0.4206 -0.8057
 4090TIP3    H233686   0.513   3.225   1.565  0.0946 -0.4626  0.6103
 4091TIP3   OH233687   0.138   2.747  13.802 -0.0017 -0.1433 -0.4635
 4091TIP3    H133688   0.191   2.771  13.726  1.9810  0.2785  1.0018
 4091TIP3    H233689   0.181   2.669  13.837  0.0481  0.5645  1.1084
 4092TIP3   OH233690   1.948   2.072   0.613  0.2887  0.6522 -0.2076
 4092TIP3    H133691   1.930   2.163   0.591 -1.6579  0.6144  1.1382
 4092TIP3    H233692   1.955   2.028   0.529  0.8415  1.9557 -0.8659
 4093TIP3   OH233693   5.644   3.719   3.088 -0.2677 -0.5456 -0.0041
 4093TIP3    H133694   5.615   3.646   3.143 -0.7540 -0.4122 -0.0743
 4093TIP3    H233695   5.696   3.774   3.146 -1.7078  0.1812  0.6482
 4094TIP3   OH233696   1.606   2.761   2.774  0.3658 -0.0575 -0.6475
 4094TIP3    H133697   1.634   2.850   2.752  1.1200  0.1707  1.2186
 4094TIP3    H233698   1.511   2.768   2.785  0.7662  1.1166  2.2872
 4095TIP3   OH233699   3.729   1.524  14.716  0.1732  0.5075  0.3444
 4095TIP3    H133700   3.719   1.596  14.654  0.2215 -0.3917 -0.7248
 4095TIP3    H233701   3.807   1.546  14.766 -0.7252  1.9939  1.1246
 4096TIP3   OH233702   1.034   4.660   4.861  0.2978 -0.0706  0.0015
 4096TIP3    H133703   1.005   4.682   4.772  0.1934  0.0343  0.0600
 4096TIP3    H233704   0.974   4.710   4.918 -0.5275 -1.2144  0.1516
 4097TIP3   OH233705   1.990   6.780  14.764 -0.2058 -0.1706 -0.1730
 4097TIP3    H133706   2.022   6.825  14.842  0.9499 -1.4384  0.1120
 4097TIP3    H233707   2.015   6.837  14.691  1.5301 -0.4849  0.1557
 4098TIP3   OH233708   5.858   1.151   0.456 -0.7417  0.3015 -0.1257
 4098TIP3    H133709   5.815   1.108   0.530 -0.1107 -1.0458 -0.5098
 4098TIP3    H233710   5.931   1.200   0.495  0.3823 -1.4473  0.0486
 4099TIP3   OH233711   5.849   0.140   0.513  0.1278 -0.4256 -0.3996
 4099TIP3    H133712   5.936   0.137   0.554  0.0304  0.4418 -0.1214
 4099TIP3    H233713   5.811   0.223   0.543 -0.5855 -0.5467 -0.9505
 4100TIP3   OH233714   1.144   1.845  12.955 -0.1072  0.1912 -0.3128
 4100TIP3    H133715   1.190   1.846  12.871 -0.0251  1.1664 -0.2607
 4100TIP3    H233716   1.072   1.783  12.942  0.0825  0.1117 -1.0095
 4101TIP3   OH233717   3.524   4.620   1.001 -0.1648 -0.3198  0.6093
 4101TIP3    H133718   3.616   4.623   1.024  0.3078 -0.1199 -1.2321
 4101TIP3    H233719   3.494   4.534   1.031  0.0425  0.4917  3.2486
 4102TIP3   OH233720   6.120   1.772   3.641 -0.2620 -0.0587  0.1987
 4102TIP3    H133721   6.210   1.742   3.653  0.2261  1.2246 -0.1814
 4102TIP3    H233722   6.107   1.837   3.710 -0.3221  1.0056 -0.8008
 4103TIP3   OH233723   4.057   5.201  17.060  0.6454 -0.2823 -0.1088
 4103TIP3    H133724   4.097   5.126  17.104  1.7452  0.2431 -0.1776
 4103TIP3    H233725   4.106   5.210  16.978 -1.3933 -1.2691 -1.4748
 4104TIP3   OH233726   3.501   5.711  13.534  0.1331 -0.5071 -0.3349
 4104TIP3    H133727   3.499   5.699  13.439  1.7275 -0.9853 -0.3348
 4104TIP3    H233728   3.410   5.700  13.562  0.0182 -2.9435 -1.5137
 4105TIP3   OH233729   1.728   1.824   0.028 -0.1181 -0.2560 -0.1489
 4105TIP3    H133730   1.680   1.906   0.029  1.1580  0.4988  0.2199
 4105TIP3    H233731   1.816   1.848   0.001  0.2939 -1.4835  0.0780
 4106TIP3   OH233732   3.498   3.363   3.334  0.1397  0.3237  0.1134
 4106TIP3    H133733   3.518   3.387   3.244  2.4482 -2.2594 -0.1203
 4106TIP3    H233734   3.413   3.319   3.329 -0.3863  1.4026 -0.5721
 4107TIP3   OH233735   0.511   4.577   4.922  0.7168  0.1452  0.1913
 4107TIP3    H133736   0.508   4.670   4.946 -0.7592  0.3586 -0.7441
 4107TIP3    H233737   0.568   4.574   4.845 -0.1460  0.4398 -0.4624
 4108TIP3   OH233738   0.159   1.946   5.092  0.5389  0.1880  1.2714
 4108TIP3    H133739   0.212   2.010   5.139  2.8246  0.6784 -1.7819
 4108TIP3    H233740   0.131   1.992   5.013 -2.3702 -0.9145  1.5905
 4109TIP3   OH233741   1.938   2.863  13.100 -0.5610 -0.1029  0.1492
 4109TIP3    H133742   1.875   2.857  13.172  2.3652 -1.8005  2.6829
 4109TIP3    H233743   1.933   2.779  13.056 -1.6819  0.5966 -1.0727
 4110TIP3   OH233744   2.662   0.654  15.897  0.1217 -0.1345 -0.2137
 4110TIP3    H133745   2.576   0.667  15.938  0.0254  1.7740 -0.9553
 4110TIP3    H233746   2.682   0.562  15.912 -1.7998 -0.4687  0.4780
 4111TIP3   OH233747   5.998   6.241   0.078 -0.5851  0.7435 -0.0956
 4111TIP3    H133748   6.059   6.262   0.148 -1.3706  0.7606  0.5955
 4111TIP3    H233749   5.951   6.323   0.061 -1.3294  0.4068  0.2995
 4112TIP3   OH233750   0.482   5.816   5.458  0.4366 -0.0756  0.0587
 4112TIP3    H133751   0.411   5.848   5.513 -0.2743 -0.7575 -0.4450
 4112TIP3    H233752   0.495   5.884   5.392  1.1116  0.6206  0.9009
 4113TIP3   OH233753   3.736   2.882   1.995  0.2423 -0.7483 -0.6130
 4113TIP3    H133754   3.728   2.958   2.052 -0.3338 -1.5366  0.3774
 4113TIP3    H233755   3.826   2.852   2.005  0.5619 -0.0105 -1.2536
 4114TIP3   OH233756   4.456   0.516   6.172 -0.2011 -0.3996 -0.3033
 4114TIP3    H133757   4.403   0.475   6.241 -0.4494 -0.4668 -0.5331
 4114TIP3    H233758   4.546   0.505   6.202 -0.4035  1.4565  1.0593
 4115TIP3   OH233759   6.442   4.151   2.891  0.0828  0.8818 -0.0982
 4115TIP3    H133760   6.492   4.129   2.969 -1.9205  1.7127  1.4666
 4115TIP3    H233761   6.500   4.131   2.818  2.4851  1.3662  1.6474
 4116TIP3   OH233762   6.643   0.875  15.489  0.6740 -0.2705 -0.5145
 4116TIP3    H133763   6.715   0.926  15.525  0.8236 -1.2549  0.5980
 4116TIP3    H233764   6.685   0.798  15.450  0.2253 -0.8421  0.1305
 4117TIP3   OH233765   3.477   1.544  15.537  0.1690 -0.2116 -0.0532
 4117TIP3    H133766   3.419   1.473  15.509 -0.8847  0.4545  0.3974
 4117TIP3    H233767   3.457   1.616  15.478 -0.8419  0.6407  1.2966
 4118TIP3   OH233768   2.975   2.540  16.187  0.1100  0.1297  0.2205
 4118TIP3    H133769   2.972   2.498  16.100 -1.4870 -0.0570  0.3536
 4118TIP3    H233770   2.903   2.603  16.186 -0.5750 -0.6002  1.7764
 4119TIP3   OH233771   5.789   3.752   4.104 -0.0907 -0.8111 -0.8320
 4119TIP3    H133772   5.858   3.742   4.170 -1.4047 -0.8393  0.5630
 4119TIP3    H233773   5.710   3.717   4.146 -0.8665 -1.2172 -2.5792
 4120TIP3   OH233774   5.862   4.228  11.999  0.2149 -0.5090  0.7622
 4120TIP3    H133775   5.865   4.145  11.951 -1.7796 -0.5654  0.6880
 4120TIP3    H233776   5.844   4.203  12.090 -0.8519 -0.1395  0.6568
 4121TIP3   OH233777   1.402   3.747   2.150  0.4091  0.1242 -0.8276
 4121TIP3    H133778   1.317   3.786   2.127  0.8011  1.2220 -0.4370
 4121TIP3    H233779   1.443   3.811   2.207  0.5665 -1.4103  0.8192
 4122TIP3   OH233780   4.093   0.253  12.798 -0.1170  0.0431  0.2653
 4122TIP3    H133781   4.130   0.225  12.714 -1.4068 -0.5698 -0.1124
 4122TIP3    H233782   4.023   0.313  12.775  0.0425  0.5091  0.9512
 4123TIP3   OH233783   3.319   2.442   5.889  0.0027  0.3653 -0.2226
 4123TIP3    H133784   3.365   2.510   5.937  0.9743 -0.8421  0.5966
 4123TIP3    H233785   3.234   2.435   5.932  0.7525 -0.4973  1.1619
 4124TIP3   OH233786   5.844   5.641   4.884  0.0036 -0.3029  0.1508
 4124TIP3    H133787   5.877   5.653   4.795 -2.3997  0.4077 -0.6812
 4124TIP3    H233788   5.837   5.730   4.919  2.5368 -0.6751  1.6730
 4125TIP3   OH233789   1.404   2.020  16.772 -0.0839  0.4095 -0.4272
 4125TIP3    H133790   1.367   1.994  16.857 -2.4179 -3.2751 -2.4086
 4125TIP3    H233791   1.492   1.983  16.771  0.3033  1.2611  0.6997
 4126TIP3   OH233792   5.898   1.199   3.478 -0.0949 -0.0020  0.2557
 4126TIP3    H133793   5.841   1.196   3.555  0.9401  1.6330  1.1106
 4126TIP3    H233794   5.987   1.192   3.513  0.3824  0.6309 -0.8023
 4127TIP3   OH233795   2.807   0.304   0.739 -0.1611 -0.4132  0.4211
 4127TIP3    H133796   2.749   0.303   0.663 -1.3356 -1.3300  1.3098
 4127TIP3    H233797   2.779   0.230   0.793  3.2509 -2.1872 -0.1299
 4128TIP3   OH233798   0.707   5.741   6.955 -0.1565 -0.3192  0.1225
 4128TIP3    H133799   0.703   5.785   6.870 -1.5543 -1.9461 -0.6876
 4128TIP3    H233800   0.616   5.722   6.977  0.0330  1.7899  2.9339
 4129TIP3   OH233801   5.538   3.351   0.090  0.0829  0.0320 -0.0260
 4129TIP3    H133802   5.501   3.318   0.172 -0.3668  0.9301  0.1336
 4129TIP3    H233803   5.617   3.399   0.117  0.7367 -0.8907 -0.2579
 4130TIP3   OH233804   6.715   1.735  12.227 -0.1967 -0.3485 -0.1263
 4130TIP3    H133805   6.774   1.690  12.287  1.0464 -0.0409 -1.0920
 4130TIP3    H233806   6.727   1.828  12.246 -0.4846 -0.2862 -0.2361
 4131TIP3   OH233807   3.760   3.240  11.863  0.1463  0.1679 -0.1319
 4131TIP3    H133808   3.834   3.275  11.913  2.1334 -2.7813 -0.8503
 4131TIP3    H233809   3.691   3.226  11.928  0.2631  2.7077  0.5918
 4132TIP3   OH233810   5.019   4.987   3.172  0.5539  0.6098 -0.2692
 4132TIP3    H133811   5.087   5.004   3.236  1.6562  0.4703 -1.3944
 4132TIP3    H233812   5.021   4.892   3.158 -0.9430  0.3923  0.8589
 4133TIP3   OH233813   1.191   3.909  12.692  0.0941  0.1470 -0.4446
 4133TIP3    H133814   1.263   3.967  12.670  0.8382  0.5533  2.7820
 4133TIP3    H233815   1.221   3.822  12.667  1.2102  0.4670 -0.2077
 4134TIP3   OH233816   0.282   1.804  12.079 -0.2148 -0.1657  0.1613
 4134TIP3    H133817   0.249   1.744  12.013  1.5942  0.0785 -1.0005
 4134TIP3    H233818   0.226   1.881  12.072 -1.4013 -0.9970  0.4275
 4135TIP3   OH233819   3.195   0.121  15.419 -0.0779 -0.0789  0.4266
 4135TIP3    H133820   3.154   0.208  15.413 -2.1936 -1.1452 -1.1100
 4135TIP3    H233821   3.138   0.071  15.476 -0.1253 -1.1408 -0.5292
 4136TIP3   OH233822   3.993   4.270  14.307 -0.9395 -0.1931  0.3182
 4136TIP3    H133823   3.940   4.349  14.321 -0.1011  0.2869  0.8463
 4136TIP3    H233824   4.056   4.270  14.379 -0.4481 -0.9456 -0.1037
 4137TIP3   OH233825   3.639   5.763   3.496  0.5967 -0.2157  0.4835
 4137TIP3    H133826   3.626   5.710   3.417  0.1273  0.6134 -0.0068
 4137TIP3    H233827   3.704   5.715   3.547  1.2275 -0.5473 -0.6202
 4138TIP3   OH233828   4.355   1.774  14.121  0.4543 -0.6754  0.0919
 4138TIP3    H133829   4.321   1.725  14.047 -0.7406 -0.0518  0.2220
 4138TIP3    H233830   4.296   1.848  14.130  1.8087  0.3888  0.3648
 4139TIP3   OH233831   0.918   0.725  16.359  0.1371 -0.4254  0.2974
 4139TIP3    H133832   0.917   0.637  16.396  0.7537  0.4797  2.5992
 4139TIP3    H233833   0.826   0.746  16.342  0.0407 -1.7186 -0.8286
 4140TIP3   OH233834   1.986   6.085  13.756  0.8361 -0.2095 -0.2310
 4140TIP3    H133835   2.042   6.162  13.757 -0.3989  0.6940 -0.8329
 4140TIP3    H233836   2.048   6.011  13.752  1.9830  0.7713 -0.8694
 4141TIP3   OH233837   2.039   3.466   3.720  1.0784 -0.4781 -0.1413
 4141TIP3    H133838   2.082   3.547   3.692  2.9284 -0.5395  2.3259
 4141TIP3    H233839   1.964   3.496   3.771  0.8291 -0.3375 -0.5858
 4142TIP3   OH233840   5.199   3.165   2.127 -0.1491  0.1479 -0.1841
 4142TIP3    H133841   5.213   3.217   2.047 -3.3141 -1.5941 -1.9558
 4142TIP3    H233842   5.172   3.229   2.193  2.0820  1.5519 -0.5797
 4143TIP3   OH233843   5.651   4.719  13.708  0.2913 -0.0304  0.3486
 4143TIP3    H133844   5.675   4.631  13.738  0.6633 -0.3645 -0.8754
 4143TIP3    H233845   5.556   4.716  13.697  0.3342 -0.3810  0.0340
 4144TIP3   OH233846   5.981   1.651  16.736 -0.5444 -0.0094 -0.4097
 4144TIP3    H133847   5.945   1.686  16.654  2.9540  0.3328 -1.9210
 4144TIP3    H233848   5.979   1.725  16.797  1.3518  1.2183 -1.7670
 4145TIP3   OH233849   2.272   5.911   2.761 -0.6132  0.1005 -0.2217
 4145TIP3    H133850   2.237   5.822   2.763 -0.9048  0.2009 -1.0042
 4145TIP3    H233851   2.291   5.930   2.853 -0.8655 -0.6416 -0.0069
 4146TIP3   OH233852   5.205   4.118   5.669 -0.2939 -0.1199  0.2217
 4146TIP3    H133853   5.163   4.054   5.727 -2.2143  1.9101  1.1543
 4146TIP3    H233854   5.297   4.093   5.668 -0.6743 -1.7093  2.1605
 4147TIP3   OH233855   0.397   4.044  12.199  0.2435 -0.7792 -0.0879
 4147TIP3    H133856   0.325   4.060  12.138  0.0512 -0.9864  0.0811
 4147TIP3    H233857   0.451   3.977  12.157  0.6057 -0.2683 -0.4352
 4148TIP3   OH233858   2.938   2.834   5.047 -0.4725 -0.5196 -0.7519
 4148TIP3    H133859   2.878   2.908   5.044 -0.8353 -0.7096  1.1392
 4148TIP3    H233860   3.003   2.853   4.979 -1.4605  0.7320 -1.3710
 4149TIP3   OH233861   6.531   5.355   6.715 -0.2114  0.0003 -0.0688
 4149TIP3    H133862   6.567   5.349   6.627  0.0087  0.1322  0.0120
 4149TIP3    H233863   6.514   5.449   6.727  1.5017  0.2293  0.7248
 4150TIP3   OH233864   1.462   0.735   3.025  0.4061 -0.2227 -0.6857
 4150TIP3    H133865   1.396   0.800   3.047  0.8892  0.1736 -0.3999
 4150TIP3    H233866   1.499   0.708   3.109  0.3066 -0.7619 -0.8125
 4151TIP3   OH233867   3.029   2.512  14.244  0.3431  0.1543  0.0276
 4151TIP3    H133868   3.074   2.595  14.230 -0.1171  0.3698 -0.1879
 4151TIP3    H233869   2.936   2.534  14.240  0.1934 -0.0179  1.9303
 4152TIP3   OH233870   1.795   4.451   1.398  0.0646 -0.3313  0.3174
 4152TIP3    H133871   1.737   4.464   1.473  1.7854  1.7011  1.3439
 4152TIP3    H233872   1.868   4.400   1.434  0.9218  0.6979  0.0429
 4153TIP3   OH233873   5.815   4.326  11.724 -0.3427  0.5629 -0.3074
 4153TIP3    H133874   5.855   4.252  11.678 -0.7107 -1.1822  2.0773
 4153TIP3    H233875   5.864   4.332  11.806 -2.1819  1.0965  0.7865
 4154TIP3   OH233876   0.813   1.386  15.409  0.5292 -0.2969 -0.4762
 4154TIP3    H133877   0.853   1.470  15.429 -0.5822 -0.0929  0.9626
 4154TIP3    H233878   0.758   1.366  15.485  0.4454 -2.1181 -0.9749
 4155TIP3   OH233879   1.234   6.264  10.886  0.0133  0.4297  0.0014
 4155TIP3    H133880   1.166   6.282  10.821  0.0284 -0.5224 -0.2902
 4155TIP3    H233881   1.228   6.170  10.901  2.1605  0.0964 -1.0599
 4156TIP3   OH233882   6.445   1.564   1.282 -0.3872  0.2831 -0.1899
 4156TIP3    H133883   6.419   1.653   1.256  0.2847  1.0153  1.5811
 4156TIP3    H233884   6.362   1.521   1.305 -0.5883  0.8327  0.1086
 4157TIP3   OH233885   5.686   1.425  12.328 -0.0897 -0.9240 -0.6127
 4157TIP3    H133886   5.628   1.414  12.403  0.6544 -0.2664  0.0775
 4157TIP3    H233887   5.687   1.520  12.312 -0.2041 -1.0557 -1.4167
 4158TIP3   OH233888   1.291   3.428   1.672  0.8167  0.1669 -0.4405
 4158TIP3    H133889   1.367   3.411   1.727  0.3225 -0.9409 -0.0780
 4158TIP3    H233890   1.290   3.356   1.608  0.4710  0.5460 -0.8667
 4159TIP3   OH233891   3.148   5.788  16.520  0.4066  0.0066  0.3437
 4159TIP3    H133892   3.185   5.704  16.546  0.2711 -0.5326 -1.1624
 4159TIP3    H233893   3.086   5.767  16.450  1.4757  1.4938 -1.0898
 4160TIP3   OH233894   3.917   6.433   5.478  0.1865  0.3565  0.0656
 4160TIP3    H133895   3.989   6.445   5.541 -0.8635 -0.1535  1.3877
 4160TIP3    H233896   3.960   6.432   5.393  1.4728  2.8977  0.6062
 4161TIP3   OH233897   1.361   3.748  17.106 -0.8219 -0.1890  0.2458
 4161TIP3    H133898   1.450   3.778  17.125 -0.8299  0.1664 -0.2700
 4161TIP3    H233899   1.352   3.666  17.154 -0.8005  0.6476  1.7109
 4162TIP3   OH233900   6.617   1.698  11.490  0.2086  0.2495 -0.4586
 4162TIP3    H133901   6.649   1.626  11.436  0.8217 -0.3397  0.6525
 4162TIP3    H233902   6.637   1.671  11.580 -2.0952  0.5355  0.1812
 4163TIP3   OH233903   5.002   6.524   2.447  0.2719  0.2813 -0.0638
 4163TIP3    H133904   5.062   6.449   2.444 -1.7307 -1.4129  1.1744
 4163TIP3    H233905   5.014   6.560   2.535 -1.3433 -0.7791  0.6097
 4164TIP3   OH233906   6.295   6.379  16.577  0.3143 -0.2707 -0.2173
 4164TIP3    H133907   6.282   6.457  16.524  0.0359  0.6137  1.1385
 4164TIP3    H233908   6.209   6.360  16.615  0.7682 -0.1876  0.8819
 4165TIP3   OH233909   4.366   1.440  11.235 -0.8202 -0.3873  1.1014
 4165TIP3    H133910   4.429   1.456  11.164 -2.9202 -1.7106 -1.1228
 4165TIP3    H233911   4.390   1.354  11.269 -0.0944  0.0521  1.7246
 4166TIP3   OH233912   1.397   2.185   3.692  0.4531 -0.4455  0.4392
 4166TIP3    H133913   1.424   2.104   3.735  0.1344 -1.7209 -1.7184
 4166TIP3    H233914   1.451   2.189   3.613  0.3116  1.3420  0.4186
 4167TIP3   OH233915   2.285   0.073  13.369 -0.1713 -0.3232  0.4821
 4167TIP3    H133916   2.268   0.144  13.307  0.2163 -0.1990  0.5204
 4167TIP3    H233917   2.225   0.090  13.442 -1.8574 -1.4110 -0.6073
 4168TIP3   OH233918   0.406   5.684   5.859  0.4527  0.1155 -0.2002
 4168TIP3    H133919   0.332   5.642   5.816 -0.8236  2.9803 -0.9491
 4168TIP3    H233920   0.477   5.621   5.853 -1.1471 -1.5619 -2.0009
 4169TIP3   OH233921   2.765   4.604   2.012  0.0663  0.0096 -0.2340
 4169TIP3    H133922   2.836   4.545   1.989  0.6328  0.0455  1.3134
 4169TIP3    H233923   2.764   4.669   1.942 -1.5082 -2.5942 -2.7430
 4170TIP3   OH233924   0.599   0.446   3.541 -0.0444  0.2501 -0.1626
 4170TIP3    H133925   0.656   0.394   3.484 -0.3492  0.3225 -0.5382
 4170TIP3    H233926   0.653   0.468   3.616  1.6098  3.4686 -2.1819
 4171TIP3   OH233927   1.618   6.262   2.151  0.0303 -0.3160 -0.6916
 4171TIP3    H133928   1.687   6.203   2.123 -0.9331 -1.8794  0.1018
 4171TIP3    H233929   1.658   6.317   2.218  0.7351 -0.6438 -0.8475
 4172TIP3   OH233930   5.317   1.008   3.051  0.1995  0.2447  0.0884
 4172TIP3    H133931   5.327   1.103   3.046  2.6010  0.1548  2.1900
 4172TIP3    H233932   5.399   0.973   3.015  0.8112 -0.9318  2.5370
 4173TIP3   OH233933   3.264   2.284   1.243 -0.3938 -0.1469 -0.0159
 4173TIP3    H133934   3.320   2.225   1.191 -0.8901  0.1336 -0.8868
 4173TIP3    H233935   3.175   2.263   1.214 -0.5646  1.1667 -0.4917
 4174TIP3   OH233936   5.045   6.725  13.840 -0.0951  0.1473 -0.2920
 4174TIP3    H133937   5.004   6.811  13.846  2.3456  1.1847  2.8792
 4174TIP3    H233938   4.995   6.670  13.900  0.0692  0.0958 -0.2026
 4175TIP3   OH233939   3.174   5.060  16.430 -1.1568  0.2923 -0.8576
 4175TIP3    H133940   3.243   5.072  16.365  0.0580 -0.5165  0.2354
 4175TIP3    H233941   3.184   5.133  16.490  1.1495 -1.7178  1.3472
 4176TIP3   OH233942   1.140   2.367  11.404 -0.3259  0.4064 -0.0005
 4176TIP3    H133943   1.104   2.399  11.321 -0.4976  1.1951  0.3706
 4176TIP3    H233944   1.233   2.358  11.387 -0.6074 -1.1332 -0.8077
 4177TIP3   OH233945   0.037   3.512   3.494 -0.3283  0.0704 -0.3186
 4177TIP3    H133946  -0.040   3.526   3.440  0.8440 -1.2538 -2.3905
 4177TIP3    H233947   0.096   3.583   3.472 -0.2822  0.1400  0.0250
 4178TIP3   OH233948   2.416   5.204  11.025 -0.1314 -0.0793 -0.9349
 4178TIP3    H133949   2.451   5.220  11.112  0.8247 -1.9043 -0.9577
 4178TIP3    H233950   2.466   5.262  10.968  0.8898 -0.5944 -0.5725
 4179TIP3   OH233951   1.177   2.940  16.321  0.4541  0.2743  0.1723
 4179TIP3    H133952   1.256   2.954  16.268  0.4461  2.4426  0.7158
 4179TIP3    H233953   1.207   2.952  16.411 -0.5734  1.4606  0.3616
 4180TIP3   OH233954   5.328   2.233   1.989 -0.1784  0.5512  0.6682
 4180TIP3    H133955   5.374   2.185   2.057  1.3925 -1.2601 -1.5764
 4180TIP3    H233956   5.264   2.170   1.955 -0.4013  1.1662 -0.0586
 4181TIP3   OH233957   6.006   4.051  13.735  0.1089  0.0105  0.1231
 4181TIP3    H133958   5.915   4.024  13.729 -0.1781  0.8182  0.7349
 4181TIP3    H233959   6.050   3.979  13.780 -0.2125 -0.4196 -0.2546
 4182TIP3   OH233960   6.027   2.976   5.075 -0.1034  0.4575 -0.0900
 4182TIP3    H133961   6.095   3.029   5.117  0.3527 -1.0037  1.0699
 4182TIP3    H233962   5.949   2.991   5.128 -0.2759  0.8817 -0.4640
 4183TIP3   OH233963   3.689   2.196   2.207  0.0610  0.2776  0.8631
 4183TIP3    H133964   3.613   2.153   2.171  0.0444  0.8172  0.2364
 4183TIP3    H233965   3.684   2.286   2.174  0.5712  0.5148  1.4072
 4184TIP3   OH233966   2.980   1.484  13.647  0.0047 -0.6696 -0.0976
 4184TIP3    H133967   2.993   1.443  13.732  0.1744  0.9061  0.6581
 4184TIP3    H233968   2.888   1.508  13.645 -0.0300 -0.8191 -0.4164
 4185TIP3   OH233969   1.995   3.629  13.618  0.3988  0.0078  0.1073
 4185TIP3    H133970   1.931   3.606  13.551 -1.1164  0.4715  1.3807
 4185TIP3    H233971   1.951   3.693  13.673  1.8849  0.1840  1.1376
 4186TIP3   OH233972   4.078   2.012  12.453 -0.2809 -0.0258  0.0465
 4186TIP3    H133973   4.148   2.047  12.509 -0.5848  1.3164 -0.4111
 4186TIP3    H233974   4.030   2.089  12.424 -0.5360 -0.7741 -1.5187
 4187TIP3   OH233975   0.222   1.092   0.212  0.1309 -0.1155 -0.0943
 4187TIP3    H133976   0.133   1.126   0.219 -0.8828 -2.0856 -2.3916
 4187TIP3    H233977   0.236   1.043   0.293 -0.2306  1.6177  1.0265
 4188TIP3   OH233978   3.366   0.129  12.694  0.4756 -0.0505  0.0705
 4188TIP3    H133979   3.413   0.046  12.685 -0.3189 -0.4218 -0.7735
 4188TIP3    H233980   3.407   0.186  12.629  0.3299 -0.1144 -0.0789
 4189TIP3   OH233981   6.638   4.435   3.004  0.0977 -0.7388 -0.3522
 4189TIP3    H133982   6.639   4.377   3.080 -0.6261 -0.9550 -0.5085
 4189TIP3    H233983   6.546   4.457   2.991  0.3561  0.4124 -0.3213
 4190TIP3   OH233984   6.176   6.340   3.627 -0.0828  0.0526  0.4696
 4190TIP3    H133985   6.190   6.399   3.701 -2.0128  0.2986  0.6806
 4190TIP3    H233986   6.243   6.273   3.637 -0.0160  0.3512  2.1895
 4191TIP3   OH233987   0.672   1.036  14.151 -0.3360  0.8158 -0.2383
 4191TIP3    H133988   0.624   0.984  14.087  0.3940 -0.7418  0.4720
 4191TIP3    H233989   0.605   1.073  14.208 -0.7202 -1.0314  0.5183
 4192TIP3   OH233990   4.194   1.132  11.874  0.1110  0.2872 -0.0467
 4192TIP3    H133991   4.187   1.194  11.946  1.5416  1.1999 -0.6662
 4192TIP3    H233992   4.197   1.187  11.796  1.5349 -0.5386 -0.5967
 4193TIP3   OH233993   0.275   2.302  14.382  0.1615  0.1482 -0.3678
 4193TIP3    H133994   0.256   2.388  14.419  0.9841  0.8298 -1.4846
 4193TIP3    H233995   0.368   2.306  14.360  0.2335 -1.0733 -0.3209
 4194TIP3   OH233996   0.687   5.160  13.436 -0.0079 -0.1297  0.3150
 4194TIP3    H133997   0.716   5.251  13.445 -0.6632  0.1102  0.0057
 4194TIP3    H233998   0.691   5.125  13.525  0.1601  0.2258  0.4487
 4195TIP3   OH233999   5.567   4.403   4.606  0.1166 -0.1032 -0.1038
 4195TIP3    H134000   5.509   4.332   4.579 -0.6955 -0.9102  3.5014
 4195TIP3    H234001   5.647   4.358   4.634 -0.3972  0.3608  2.1851
 4196TIP3   OH234002   0.683   3.281  13.798  0.0860 -0.0286 -0.3620
 4196TIP3    H134003   0.697   3.363  13.750  0.5334  0.2313  0.1988
 4196TIP3    H234004   0.689   3.213  13.732 -1.2581  0.4539 -1.0008
 4197TIP3   OH234005   6.089   4.662   3.756 -0.2615  0.3916  0.0947
 4197TIP3    H134006   6.051   4.739   3.714 -0.5004  0.6476  0.7751
 4197TIP3    H234007   6.013   4.615   3.792 -0.0154  0.4119  0.6369
 4198TIP3   OH234008   3.375   3.114   1.875  0.5649 -0.6753 -0.4844
 4198TIP3    H134009   3.332   3.168   1.942  1.4808 -0.1771 -0.2834
 4198TIP3    H234010   3.317   3.118   1.799  0.9729  1.2043 -0.7195
 4199TIP3   OH234011   3.151   1.050   0.812 -0.2485 -0.2092 -0.0884
 4199TIP3    H134012   3.112   1.137   0.798  0.1296 -0.1554 -0.8133
 4199TIP3    H234013   3.083   0.989   0.784  0.1505 -0.1151 -1.3179
 4200TIP3   OH234014   0.013   5.654  13.222  0.1857 -0.3127 -0.1524
 4200TIP3    H134015  -0.076   5.657  13.187  0.2107 -0.2985 -0.2148
 4200TIP3    H234016   0.052   5.576  13.183  0.3716 -0.0253 -0.5452
 4201TIP3   OH234017   3.618   4.297   3.605  0.3369  0.1122  0.3868
 4201TIP3    H134018   3.670   4.305   3.524  0.5214  0.6317  0.5530
 4201TIP3    H234019   3.676   4.251   3.666  0.8702  1.2956  0.7932
 4202TIP3   OH234020   2.058   4.575   2.201  0.5899 -0.3606  0.4115
 4202TIP3    H134021   2.115   4.516   2.250  0.6873 -1.6150 -1.1484
 4202TIP3    H234022   2.019   4.631   2.267  1.2891 -1.5036  1.8320
 4203TIP3   OH234023   5.486   1.228  13.607 -0.2464  0.2498  0.9992
 4203TIP3    H134024   5.455   1.267  13.688  0.5352  1.3983  0.7621
 4203TIP3    H234025   5.441   1.277  13.538  1.4587  1.3975  0.6763
 4204TIP3   OH234026   4.335   4.687  14.972  0.2836  0.0259 -0.3167
 4204TIP3    H134027   4.328   4.612  15.031 -0.7495  1.1075  0.9849
 4204TIP3    H234028   4.387   4.751  15.021 -1.5852  1.3922 -0.0513
 4205TIP3   OH234029   3.192   0.535  14.999 -0.3649 -0.1184 -0.5333
 4205TIP3    H134030   3.273   0.573  14.967 -1.2061  2.5283  0.3906
 4205TIP3    H234031   3.215   0.496  15.083 -0.2518  1.5446  0.2241
 4206TIP3   OH234032   5.994   3.344   3.221 -0.1261 -0.2732 -0.0149
 4206TIP3    H134033   6.078   3.297   3.219 -0.3260 -0.6564  0.5359
 4206TIP3    H234034   6.010   3.419   3.278  0.1093  0.1747 -0.6622
 4207TIP3   OH234035   2.067   0.942  15.036 -0.2336  0.1141  0.1485
 4207TIP3    H134036   2.102   0.991  14.962 -1.0360 -0.8478 -0.8654
 4207TIP3    H234037   1.985   0.987  15.057  0.0722  0.4854  0.5740
 4208TIP3   OH234038   3.808   3.611  17.227 -0.2466  0.5013 -0.1952
 4208TIP3    H134039   3.844   3.686  17.275  2.5321  0.1961 -1.7010
 4208TIP3    H234040   3.844   3.620  17.138 -0.0602 -2.4704 -0.4642
 4209TIP3   OH234041   5.408   6.619   1.779  0.0549  0.1583 -0.3344
 4209TIP3    H134042   5.467   6.599   1.706 -0.5983 -0.6029 -0.6607
 4209TIP3    H234043   5.339   6.673   1.740 -1.0208 -1.3720 -0.5766
 4210TIP3   OH234044   5.441   1.704  12.535 -0.1885  0.6232 -0.2746
 4210TIP3    H134045   5.405   1.785  12.572  0.5344  1.0252 -0.4357
 4210TIP3    H234046   5.378   1.637  12.558 -0.3369  1.0792  0.6501
 4211TIP3   OH234047   1.928   1.365   4.091  0.0612 -0.2517 -0.0215
 4211TIP3    H134048   1.870   1.337   4.163  0.4281  3.3053  1.7714
 4211TIP3    H234049   2.013   1.377   4.133  0.9401 -0.6706 -1.6466
 4212TIP3   OH234050   5.075   1.528   0.343  0.2826  0.1482 -0.0261
 4212TIP3    H134051   5.012   1.560   0.279 -0.9005 -0.4403  0.8351
 4212TIP3    H234052   5.160   1.552   0.306 -0.4205  0.7226 -1.3167
 4213TIP3   OH234053   5.158   6.263   4.480 -0.4572 -0.0237  0.5006
 4213TIP3    H134054   5.122   6.290   4.395 -0.3613  0.9263  0.7585
 4213TIP3    H234055   5.083   6.264   4.539 -0.5717 -0.9268  0.3773
 4214TIP3   OH234056   3.549   1.957  15.551 -0.3029 -0.5447  0.0728
 4214TIP3    H134057   3.497   2.004  15.617  1.1850  2.4215 -0.7847
 4214TIP3    H234058   3.639   1.962  15.584  0.3368  0.2153 -1.7326
 4215TIP3   OH234059   5.493   5.937   1.640  0.3343  0.3814 -0.4702
 4215TIP3    H134060   5.401   5.913   1.649  0.3146  0.5830 -0.1411
 4215TIP3    H234061   5.512   5.990   1.717  1.2098 -1.1523  0.3902
 4216TIP3   OH234062   5.026   3.239  14.230 -0.0747 -0.1285 -0.2118
 4216TIP3    H134063   5.113   3.259  14.266  0.0511  0.5825 -0.8846
 4216TIP3    H234064   5.016   3.301  14.158 -0.9232 -0.5708 -0.4757
 4217TIP3   OH234065   4.987   3.450  16.962  0.7530 -0.2384 -0.0586
 4217TIP3    H134066   4.994   3.374  16.905  0.6470  0.2603 -0.7554
 4217TIP3    H234067   4.905   3.492  16.935 -0.7022 -1.4682  2.3042
 4218TIP3   OH234068   6.481   3.514   2.752 -0.0046 -0.1889 -0.0693
 4218TIP3    H134069   6.459   3.606   2.770 -0.5867 -0.2871 -0.2670
 4218TIP3    H234070   6.429   3.492   2.675 -0.1893 -0.8124  0.2323
 4219TIP3   OH234071   4.437   5.394  10.930 -0.3806 -0.2745 -0.7545
 4219TIP3    H134072   4.437   5.490  10.928  1.8190 -0.2392 -0.0372
 4219TIP3    H234073   4.344   5.370  10.926 -0.9637  1.8822 -0.6819
 4220TIP3   OH234074   2.276   4.971   5.141  0.0124  1.3290  0.0046
 4220TIP3    H134075   2.226   5.000   5.064 -0.4275 -0.0912 -0.2625
 4220TIP3    H234076   2.209   4.947   5.205  0.2684 -1.6981 -0.7654
 4221TIP3   OH234077   2.275   5.853   0.216 -0.2097  0.1858  0.2369
 4221TIP3    H134078   2.211   5.913   0.178 -1.5072 -0.8444  0.7682
 4221TIP3    H234079   2.305   5.896   0.296 -0.0458  0.7788 -0.1422
 4222TIP3   OH234080   4.635   5.135  15.659  0.1372  0.5564 -0.7162
 4222TIP3    H134081   4.577   5.211  15.649  0.7218  1.0125 -0.6938
 4222TIP3    H234082   4.710   5.169  15.707  1.0820  0.3047 -2.0084
 4223TIP3   OH234083   3.075   2.191  12.173  0.0549 -0.3212 -0.0113
 4223TIP3    H134084   3.116   2.135  12.107 -1.2655 -1.7416  0.3282
 4223TIP3    H234085   3.100   2.280  12.149 -1.5264 -0.6761 -3.2766
 4224TIP3   OH234086   2.029   0.630  13.172 -0.2954 -0.3350  0.5881
 4224TIP3    H134087   2.028   0.563  13.104 -2.1573  0.5299 -0.2686
 4224TIP3    H234088   2.121   0.634  13.201  1.0031  0.8069 -3.3724
 4225TIP3   OH234089   6.590   3.951  12.919 -0.3537  0.1781  0.2092
 4225TIP3    H134090   6.575   4.025  12.860 -0.8262  1.3992  1.8029
 4225TIP3    H234091   6.529   3.884  12.890 -0.5805  0.7589 -0.6913
 4226TIP3   OH234092   4.826   0.437  14.960  0.2250  0.4597  0.1275
 4226TIP3    H134093   4.895   0.370  14.952 -1.4126 -0.9719 -2.8469
 4226TIP3    H234094   4.809   0.442  15.054  1.6553 -1.9903  0.5727
 4227TIP3   OH234095   3.512   6.398   0.133  0.0365 -0.1045 -0.2298
 4227TIP3    H134096   3.554   6.466   0.186 -1.5192  0.8922 -0.2409
 4227TIP3    H234097   3.565   6.394   0.053  0.9292  0.1378  0.3367
 4228TIP3   OH234098   0.613   5.220  14.370 -0.1184  0.0007 -0.3638
 4228TIP3    H134099   0.650   5.199  14.456 -0.7571 -0.9110 -0.3036
 4228TIP3    H234100   0.537   5.274  14.389  0.5976  1.0323 -0.4344
 4229TIP3   OH234101   5.474   2.303   3.634 -0.5445 -0.0913  0.2341
 4229TIP3    H134102   5.526   2.383   3.639 -0.8763  0.2898 -2.0419
 4229TIP3    H234103   5.533   2.238   3.595 -1.4398  0.0628 -1.3880
 4230TIP3   OH234104   3.629   2.780  11.840 -0.7587  0.8808  0.3339
 4230TIP3    H134105   3.569   2.706  11.842  0.5819 -0.2055  1.1398
 4230TIP3    H234106   3.572   2.857  11.851 -1.8316 -0.2505  3.3596
 4231TIP3   OH234107   2.958   4.410   2.997 -0.0201 -0.5429  0.1697
 4231TIP3    H134108   3.031   4.424   2.936  0.5705 -1.0134  0.7666
 4231TIP3    H234109   2.942   4.316   2.994 -0.6007 -0.4453  0.0508
 4232TIP3   OH234110   0.143   5.876  17.072  0.6918 -0.2716  0.6641
 4232TIP3    H134111   0.128   5.967  17.047  0.1036 -1.1909 -2.5298
 4232TIP3    H234112   0.238   5.869  17.084  0.7727  0.6643  0.5912
 4233TIP3   OH234113   1.086   5.299   3.871  0.0437 -0.3363 -0.7054
 4233TIP3    H134114   1.151   5.368   3.884  0.4222 -0.4521 -1.9251
 4233TIP3    H234115   1.088   5.282   3.777 -2.9213  0.8326 -1.0284
 4234TIP3   OH234116   0.910   2.135  15.927  0.2411 -0.0280  0.4212
 4234TIP3    H134117   0.913   2.059  15.869  0.7331 -0.2484  0.7293
 4234TIP3    H234118   0.989   2.127  15.980  1.0827  1.5449 -0.5928
 4235TIP3   OH234119   4.516   3.424  12.251 -0.3984 -0.2545  0.7433
 4235TIP3    H134120   4.492   3.362  12.182 -0.7730  0.4659  0.2177
 4235TIP3    H234121   4.612   3.426  12.249 -0.4013 -0.4209  0.3956
 4236TIP3   OH234122   4.385   1.662  16.956  0.8006 -0.1662 -0.2117
 4236TIP3    H134123   4.374   1.664  16.861 -1.2665 -1.5534 -0.0370
 4236TIP3    H234124   4.479   1.649  16.969  1.1147  0.0541 -2.0586
 4237TIP3   OH234125   5.730   6.311  11.725 -0.5802  0.1583 -0.3440
 4237TIP3    H134126   5.705   6.220  11.745  0.0653 -0.0223 -0.3595
 4237TIP3    H234127   5.702   6.360  11.802  1.0878 -0.4062  0.6512
 4238TIP3   OH234128   6.693   3.301  16.380 -0.1366  0.2477  0.4281
 4238TIP3    H134129   6.778   3.285  16.340  0.0565  0.4846  0.7478
 4238TIP3    H234130   6.667   3.216  16.416  0.7965  0.6013  1.9533
 4239TIP3   OH234131   4.591   5.057   2.820  0.6458  0.4415  0.0603
 4239TIP3    H134132   4.671   5.007   2.836 -0.4144 -1.2068  0.3154
 4239TIP3    H234133   4.553   5.070   2.907 -0.1844 -0.2067 -0.1929
 4240TIP3   OH234134   2.496   6.502   3.206 -0.1047  0.2110  0.0650
 4240TIP3    H134135   2.472   6.508   3.299  1.7916  0.3060  0.5714
 4240TIP3    H234136   2.519   6.592   3.182  0.4468 -0.0020 -0.2043
 4241TIP3   OH234137   3.069   4.931  15.780  0.0102  0.0255 -0.3649
 4241TIP3    H134138   3.143   4.885  15.740 -0.7757  0.2547 -2.1463
 4241TIP3    H234139   2.996   4.869  15.775 -0.1343  0.0959  0.6519
 4242TIP3   OH234140   0.053   5.668  17.212  0.5092 -0.7227  0.6647
 4242TIP3    H134141   0.094   5.741  17.164 -1.3259  0.9320  1.5401
 4242TIP3    H234142   0.024   5.608  17.144  0.0861  0.4424 -0.1995
 4243TIP3   OH234143   5.332   2.383  10.950 -0.0708  0.3468 -0.1413
 4243TIP3    H134144   5.346   2.384  10.856 -0.0206  0.9963 -0.1337
 4243TIP3    H234145   5.294   2.469  10.969 -1.8256 -0.4691  0.1679
 4244TIP3   OH234146   1.544   0.978   4.288 -0.8017  0.3041  0.1188
 4244TIP3    H134147   1.562   0.991   4.381 -1.1153 -0.1939  0.2520
 4244TIP3    H234148   1.450   0.960   4.284 -0.7653  0.1996 -0.2821
 4245TIP3   OH234149   1.092   4.013  11.610  0.4149  0.3167 -0.6902
 4245TIP3    H134150   1.015   4.066  11.589  1.2223  1.1657 -1.5242
 4245TIP3    H234151   1.152   4.073  11.654  0.9526 -0.1307 -0.8061
 4246TIP3   OH234152   3.591   2.433  16.784  0.5200 -0.2100  0.3680
 4246TIP3    H134153   3.511   2.458  16.737  0.4030  0.2041  0.7761
 4246TIP3    H234154   3.610   2.345  16.754 -0.0194 -0.2619  0.1644
 4247TIP3   OH234155   0.581   0.699   2.701 -0.9232  0.6179 -0.0837
 4247TIP3    H134156   0.594   0.783   2.657 -1.1722  1.3979  1.3149
 4247TIP3    H234157   0.499   0.666   2.664 -0.4920  0.6688 -1.1174
 4248TIP3   OH234158   6.228   3.146  11.412  0.2453 -0.5147 -0.0532
 4248TIP3    H134159   6.235   3.200  11.333  1.0732 -1.2954 -0.5206
 4248TIP3    H234160   6.134   3.142  11.430  0.2154  1.5806  0.3379
 4249TIP3   OH234161   4.678   6.746   0.133  0.2771  0.6430  0.3587
 4249TIP3    H134162   4.703   6.694   0.057 -0.6125  1.9246 -0.8520
 4249TIP3    H234163   4.685   6.686   0.207  0.3234 -0.8781 -0.8471
 4250TIP3   OH234164   0.252   4.493   4.900 -0.4268  0.8702  0.3933
 4250TIP3    H134165   0.244   4.398   4.906 -0.4643  0.8140 -0.4914
 4250TIP3    H234166   0.347   4.508   4.895 -0.4258  0.8687  0.4099
 4251TIP3   OH234167   5.018   2.180   3.419 -0.1277  0.5424 -0.4309
 4251TIP3    H134168   4.952   2.137   3.474 -0.1257 -0.7917 -1.4528
 4251TIP3    H234169   4.973   2.196   3.336  0.1509  1.7056 -0.3669
 4252TIP3   OH234170   1.554   3.250  15.657  0.4822  0.0286 -0.1908
 4252TIP3    H134171   1.592   3.185  15.597  2.2496  1.0170 -0.1841
 4252TIP3    H234172   1.542   3.203  15.739 -2.6066 -1.5392 -1.4341
 4253TIP3   OH234173   5.033   4.208  16.445 -0.5284  0.3565  0.7141
 4253TIP3    H134174   5.067   4.280  16.497 -1.0753  0.5275  0.8338
 4253TIP3    H234175   4.940   4.227  16.435 -0.5786 -0.0777  0.3340
 4254TIP3   OH234176   1.342   5.919  13.793 -0.2402 -0.0922 -0.4664
 4254TIP3    H134177   1.285   5.955  13.861  0.4152 -0.6855  0.4026
 4254TIP3    H234178   1.428   5.912  13.834  0.2277 -0.1879 -1.4474
 4255TIP3   OH234179   6.629   5.543   3.138  0.1030  0.2257 -0.0816
 4255TIP3    H134180   6.655   5.631   3.165  0.3755  0.7320 -1.9071
 4255TIP3    H234181   6.571   5.558   3.063  0.1330 -1.1491 -0.3824
 4256TIP3   OH234182   6.640   1.105   3.240  0.2722  0.1324  0.8082
 4256TIP3    H134183   6.720   1.157   3.251  0.3438 -0.2670  2.3766
 4256TIP3    H234184   6.659   1.023   3.287 -0.0388 -1.0994 -1.1591
 4257TIP3   OH234185   0.169   1.734   1.656 -0.3009  0.0219 -0.2610
 4257TIP3    H134186   0.190   1.819   1.618 -2.2570  0.0259 -1.4019
 4257TIP3    H234187   0.124   1.755   1.738 -0.6932  0.0994 -0.4932
 4258TIP3   OH234188   2.613   4.969  12.740 -0.0505 -0.1434 -0.1123
 4258TIP3    H134189   2.645   5.010  12.820 -1.1709  1.3642 -0.3972
 4258TIP3    H234190   2.538   4.916  12.768 -0.7018  0.7168 -0.2110
 4259TIP3   OH234191   5.363   4.687  12.781 -0.5720  0.5374 -0.0772
 4259TIP3    H134192   5.388   4.594  12.776 -0.2731  0.3868  3.1185
 4259TIP3    H234193   5.391   4.724  12.697  3.5999 -1.2492  0.3751
 4260TIP3   OH234194   4.312   1.699   5.443 -0.0692 -0.5669  0.1327
 4260TIP3    H134195   4.325   1.794   5.444  1.4820 -0.7641  0.8751
 4260TIP3    H234196   4.232   1.686   5.393  0.2089  1.0756 -0.7778
 4261TIP3   OH234197   2.051   5.458  15.879  0.3865  0.1566  0.4108
 4261TIP3    H134198   1.962   5.491  15.893 -0.0170 -0.6612 -0.1481
 4261TIP3    H234199   2.038   5.366  15.857  1.0938  0.8275 -3.1759
 4262TIP3   OH234200   1.574   3.635  13.531 -0.4960 -0.4618 -0.3761
 4262TIP3    H134201   1.582   3.716  13.480 -1.7369  2.0383  3.2423
 4262TIP3    H234202   1.665   3.604  13.540  0.2764  1.8308  0.1356
 4263TIP3   OH234203   1.442   1.660  15.870 -0.5881  0.2953  0.1565
 4263TIP3    H134204   1.422   1.712  15.792 -0.0345  2.0407  1.1521
 4263TIP3    H234205   1.382   1.693  15.937 -0.9416 -1.0755  0.5344
 4264TIP3   OH234206   2.644   2.773  16.801 -0.0017  0.3563 -0.1859
 4264TIP3    H134207   2.718   2.736  16.849 -1.9852 -2.3769  0.8840
 4264TIP3    H234208   2.607   2.838  16.861  0.2680  0.2201  0.1283
 4265TIP3   OH234209   2.714   5.043  16.580 -0.0495 -0.2988 -0.0371
 4265TIP3    H134210   2.715   4.983  16.505 -0.3190  0.4460 -0.6378
 4265TIP3    H234211   2.703   4.985  16.656 -1.8874 -0.9146 -0.7279
 4266TIP3   OH234212   4.046   2.556  11.620  0.0451 -0.4795  0.4476
 4266TIP3    H134213   4.052   2.588  11.710 -1.1111  0.4771  0.2017
 4266TIP3    H234214   4.121   2.594  11.576 -0.2048  0.2611  0.6539
 4267TIP3   OH234215   0.218   5.953   3.354 -0.3418 -0.6221  0.0161
 4267TIP3    H134216   0.255   6.042   3.356 -0.3574 -0.6227  0.4810
 4267TIP3    H234217   0.143   5.959   3.296 -0.0716 -0.4352 -0.3138
 4268TIP3   OH234218   0.937   4.744   1.473  0.1881 -0.2967 -0.5648
 4268TIP3    H134219   0.907   4.688   1.544 -1.5527 -0.8605 -1.6997
 4268TIP3    H234220   1.031   4.725   1.465 -0.2677 -2.6604 -0.5759
 4269TIP3   OH234221   4.596   1.634  15.760 -0.2010  0.1446 -0.0276
 4269TIP3    H134222   4.623   1.626  15.668 -1.8510 -0.5694 -0.4512
 4269TIP3    H234223   4.587   1.544  15.790 -0.3675  0.3867  0.6388
 4270TIP3   OH234224   1.674   2.648   1.084  0.2647  0.7807 -0.1800
 4270TIP3    H134225   1.730   2.581   1.045 -1.6657 -0.5227 -0.7779
 4270TIP3    H234226   1.617   2.600   1.143  1.2272  2.3762  2.1656
 4271TIP3   OH234227   2.019   3.239  13.827 -0.5244  0.4191 -0.3385
 4271TIP3    H134228   1.932   3.280  13.820 -0.9788 -0.3641  0.6501
 4271TIP3    H234229   2.073   3.287  13.764 -1.7903  0.6146 -1.2989
 4272TIP3   OH234230   5.292   6.351  16.229 -0.5918 -0.6624  0.0432
 4272TIP3    H134231   5.225   6.383  16.289 -0.7782 -0.1723 -0.4216
 4272TIP3    H234232   5.329   6.430  16.190 -0.0176 -0.9496  0.0039
 4273TIP3   OH234233   5.186   6.246  17.209 -0.0137 -0.1683 -0.0600
 4273TIP3    H134234   5.134   6.300  17.149  0.3094  0.5651  0.3126
 4273TIP3    H234235   5.129   6.173  17.231 -0.5562  0.1586 -0.3653
 4274TIP3   OH234236   0.228   0.800   1.666  0.5233  1.0213 -0.1834
 4274TIP3    H134237   0.234   0.705   1.660  0.9688  1.0547 -0.2738
 4274TIP3    H234238   0.161   0.824   1.601  0.6711  0.7990 -0.4195
 4275TIP3   OH234239   0.708   2.250   5.425  0.0653 -0.3651 -0.1306
 4275TIP3    H134240   0.712   2.344   5.441 -2.1595  0.0126 -1.5630
 4275TIP3    H234241   0.773   2.235   5.356 -0.0251  0.2290 -0.3471
 4276TIP3   OH234242   4.654   2.095  16.634 -0.6489  0.2078  0.0612
 4276TIP3    H134243   4.655   2.137  16.720  0.7110  0.3588 -0.0245
 4276TIP3    H234244   4.621   2.007  16.650  0.4610 -0.0666  0.8881
 4277TIP3   OH234245   0.663   0.542  12.413 -0.2582  0.1691 -0.4579
 4277TIP3    H134246   0.579   0.562  12.371 -0.4950 -0.1652 -0.1558
 4277TIP3    H234247   0.727   0.596  12.368 -0.9477  1.8695  0.5792
 4278TIP3   OH234248   2.015   1.699  15.328  0.1846 -0.0776 -0.0814
 4278TIP3    H134249   1.956   1.687  15.403 -0.7346 -1.6174 -1.0220
 4278TIP3    H234250   1.989   1.631  15.266  1.8279  0.3246 -1.2470
 4279TIP3   OH234251   0.798   1.754  12.582 -0.1174 -0.0198  0.0810
 4279TIP3    H134252   0.703   1.766  12.587  0.1411  2.2604  0.1712
 4279TIP3    H234253   0.815   1.727  12.492 -0.8648 -0.5663  0.1040
 4280TIP3   OH234254   3.852   4.271  16.112  0.0630 -0.1027 -0.5514
 4280TIP3    H134255   3.883   4.308  16.194  0.7369  0.4240 -1.0320
 4280TIP3    H234256   3.857   4.343  16.049 -2.7741  0.1753 -0.5075
 4281TIP3   OH234257   6.375   4.481  12.992  0.4242 -0.1457 -0.0901
 4281TIP3    H134258   6.282   4.459  12.992  0.0932  1.1500  1.5657
 4281TIP3    H234259   6.402   4.473  12.901 -1.7901  1.5023 -0.9163
 4282TIP3   OH234260   4.416   3.610   1.615 -0.5189  0.0618  0.2487
 4282TIP3    H134261   4.462   3.651   1.688 -2.6816  0.6768  1.3082
 4282TIP3    H234262   4.378   3.530   1.651 -1.2733  0.1646 -0.2946
 4283TIP3   OH234263   5.888   4.154   3.235 -0.7177 -0.1792  0.5030
 4283TIP3    H134264   5.904   4.059   3.236 -2.0871 -0.4224  0.5230
 4283TIP3    H234265   5.854   4.172   3.148 -1.6356  0.0797  0.9034
 4284TIP3   OH234266   0.669   3.977   0.383 -0.1763  0.2358  0.2454
 4284TIP3    H134267   0.700   4.035   0.313  0.4312  1.0856  1.2127
 4284TIP3    H234268   0.574   3.985   0.380 -0.1857 -0.1170 -0.8077
 4285TIP3   OH234269   4.822   4.089  15.340  0.7412 -0.0297  0.6241
 4285TIP3    H134270   4.860   4.092  15.428  2.2442 -0.9443  0.0158
 4285TIP3    H234271   4.826   4.180  15.309  1.8090 -0.0006  0.8349
 4286TIP3   OH234272   3.533   1.905   1.572 -0.5846  0.4962 -0.1567
 4286TIP3    H134273   3.584   1.905   1.491  0.2969  1.7841  0.3654
 4286TIP3    H234274   3.541   1.816   1.606  0.6681  0.4734 -0.4944
 4287TIP3   OH234275   5.275   0.706   4.751 -0.0736  0.5170  0.0771
 4287TIP3    H134276   5.259   0.685   4.842  0.8744  0.9480  0.3548
 4287TIP3    H234277   5.318   0.628   4.715  3.0075  1.7000  0.9855
 4288TIP3   OH234278   2.673   1.251   0.085 -0.1228 -0.2803  0.5000
 4288TIP3    H134279   2.592   1.200   0.082 -0.5139  0.3313  0.6257
 4288TIP3    H234280   2.683   1.276   0.177  0.3031 -0.4999  0.5163
 4289TIP3   OH234281   3.302   3.759   4.608  0.0934 -0.7585  0.1482
 4289TIP3    H134282   3.345   3.676   4.589  0.8042 -0.5525  0.8153
 4289TIP3    H234283   3.361   3.826   4.573 -0.1391 -0.5067  0.2298
 4290TIP3   OH234284   1.937   3.623  15.259 -0.0521  0.4810 -0.7599
 4290TIP3    H134285   1.969   3.536  15.282 -2.4845 -0.0026  0.9979
 4290TIP3    H234286   1.873   3.607  15.190 -0.0141  0.9552 -0.9049
 4291TIP3   OH234287   3.287   6.406  13.849  0.1979 -0.3748  0.0085
 4291TIP3    H134288   3.299   6.341  13.780 -3.3792 -0.0700 -1.0096
 4291TIP3    H234289   3.271   6.488  13.802  1.3426  0.5721  1.2508
 4292TIP3   OH234290   3.333   1.941  16.303  0.2359  0.5487 -0.0085
 4292TIP3    H134291   3.279   1.863  16.317  0.0084  0.8536  0.8429
 4292TIP3    H234292   3.369   1.930  16.215 -0.4571 -0.1200 -0.2148
 4293TIP3   OH234293   0.417   3.670  13.425 -0.0281 -1.0830  0.3687
 4293TIP3    H134294   0.487   3.709  13.373  1.7551 -1.0447  2.6953
 4293TIP3    H234295   0.376   3.744  13.470 -0.8512 -1.2218 -0.1515
 4294TIP3   OH234296   4.279   2.810   6.076 -0.2523 -0.2963 -0.4047
 4294TIP3    H134297   4.340   2.790   6.147  0.8885 -2.0907 -1.8432
 4294TIP3    H234298   4.209   2.744   6.085 -0.3919 -0.1762 -0.6013
 4295TIP3   OH234299   4.450   4.259  13.032  0.2854  0.3964  0.1859
 4295TIP3    H134300   4.364   4.256  13.073  0.4522  0.5487  0.5542
 4295TIP3    H234301   4.454   4.181  12.978  0.6507 -0.6275  1.6459
 4296TIP3   OH234302   5.211   0.253   6.252 -0.2977 -0.3331  0.3379
 4296TIP3    H134303   5.177   0.342   6.248 -1.4676 -0.7397  1.2049
 4296TIP3    H234304   5.306   0.265   6.255 -0.1731  0.7664 -3.7293
 4297TIP3   OH234305   0.451   2.424  13.327 -0.4580 -0.0835 -0.3797
 4297TIP3    H134306   0.398   2.416  13.406 -0.9610 -1.8405 -0.8698
 4297TIP3    H234307   0.495   2.509  13.335 -2.2461  0.7504  0.7046
 4298TIP3   OH234308   3.080   4.830  15.004 -0.1805  0.2664  0.7388
 4298TIP3    H134309   3.031   4.775  14.943 -1.4132  1.7992  0.3054
 4298TIP3    H234310   3.147   4.872  14.951  1.0397 -1.0982  1.1521
 4299TIP3   OH234311   2.118   5.613  13.571  0.4835  0.1585  0.0975
 4299TIP3    H134312   2.199   5.663  13.577  1.3365 -1.2833  0.7491
 4299TIP3    H234313   2.085   5.609  13.660  0.0940  0.0783 -0.0458
 4300TIP3   OH234314   6.455   5.247   1.505  0.5005  0.5803 -0.7221
 4300TIP3    H134315   6.537   5.204   1.530  1.5584  4.2545  2.7556
 4300TIP3    H234316   6.387   5.198   1.550  1.1270 -0.5323 -0.9691
 4301TIP3   OH234317   1.198   5.299   1.928 -0.0246 -0.7903  0.4515
 4301TIP3    H134318   1.103   5.307   1.934 -0.0678 -1.0858  0.1876
 4301TIP3    H234319   1.215   5.206   1.944  0.1380 -0.9322 -0.4917
 4302TIP3   OH234320   5.725   4.306  17.210 -0.0440 -0.0125 -0.1815
 4302TIP3    H134321   5.728   4.304  17.305 -1.0251 -0.6099 -0.1602
 4302TIP3    H234322   5.712   4.399  17.188 -1.9625 -0.1378  0.3452
 4303TIP3   OH234323   1.058   1.943   0.850 -0.2519  0.1334  0.2765
 4303TIP3    H134324   1.072   2.037   0.863  4.6163 -0.3091 -0.8952
 4303TIP3    H234325   1.044   1.909   0.939  1.6518  1.4943  1.1369
 4304TIP3   OH234326   5.759   6.371  13.462 -0.6117  0.0558  0.7995
 4304TIP3    H134327   5.679   6.424  13.464  0.4392  1.7042  0.2783
 4304TIP3    H234328   5.745   6.309  13.391 -0.5646  1.7650 -0.7350
 4305TIP3   OH234329   1.225   1.507  16.986 -0.3229 -0.1762 -0.3713
 4305TIP3    H134330   1.155   1.523  16.923 -1.4071  0.0114  0.8613
 4305TIP3    H234331   1.225   1.412  16.998  0.3778 -0.2848 -1.2040
 4306TIP3   OH234332   1.570   3.115   3.985 -0.0021  0.1520  0.8248
 4306TIP3    H134333   1.492   3.160   4.017  0.6193  0.0433  2.5697
 4306TIP3    H234334   1.575   3.036   4.039  0.9574 -0.1552  0.2899
 4307TIP3   OH234335   2.453   0.601   0.274 -0.1079 -0.7505  0.1250
 4307TIP3    H134336   2.367   0.628   0.243 -0.5454  1.2985  2.9408
 4307TIP3    H234337   2.437   0.566   0.361  1.8225 -1.1136  0.3559
 4308TIP3   OH234338   3.877   3.266   5.862  0.2503 -0.8190  0.3739
 4308TIP3    H134339   3.794   3.219   5.868 -0.4915  0.2589 -1.0630
 4308TIP3    H234340   3.865   3.343   5.918  0.1648 -0.5127 -0.0622
 4309TIP3   OH234341   1.496   5.853   5.944 -0.3415 -0.0884  0.1686
 4309TIP3    H134342   1.518   5.800   5.867  0.2766 -0.5981  0.6964
 4309TIP3    H234343   1.567   5.917   5.950 -1.4451  1.2868 -0.8856
 4310TIP3   OH234344   6.747   4.536  16.296  0.8310 -0.3350  0.1281
 4310TIP3    H134345   6.681   4.579  16.242 -0.1168 -0.3709  1.2447
 4310TIP3    H234346   6.779   4.464  16.241 -0.3602 -0.5757 -0.2787
 4311TIP3   OH234347   6.048   0.387  11.224  0.1372  0.6343  0.0732
 4311TIP3    H134348   5.975   0.345  11.178 -0.4237  0.9357  0.6625
 4311TIP3    H234349   6.075   0.459  11.167  0.4558  0.0682 -0.4842
 4312TIP3   OH234350   4.690   3.491  14.052 -0.6731 -0.1205 -0.2394
 4312TIP3    H134351   4.678   3.435  13.975 -1.3254  1.9605 -1.7298
 4312TIP3    H234352   4.783   3.486  14.071 -0.9308 -2.7260  0.4988
 4313TIP3   OH234353   2.557   6.108   2.296 -0.2332 -0.0024  0.1152
 4313TIP3    H134354   2.596   6.083   2.379 -0.0688  1.5783  0.5385
 4313TIP3    H234355   2.466   6.079   2.302  0.2591 -1.5400  0.0960
 4314TIP3   OH234356   0.687   0.951  16.415 -0.2133 -0.5998  0.1809
 4314TIP3    H134357   0.709   0.989  16.501  1.9466 -2.8606  0.6916
 4314TIP3    H234358   0.622   0.883  16.435 -0.5552 -0.3608 -0.1200
 4315TIP3   OH234359   6.135   2.540  14.693 -0.2783  0.3788  0.8461
 4315TIP3    H134360   6.164   2.599  14.624 -0.7791  1.6186  1.6616
 4315TIP3    H234361   6.215   2.513  14.737 -0.1324  1.5732  1.3410
 4316TIP3   OH234362   0.583   4.461   0.019 -0.0807 -0.6642  0.5180
 4316TIP3    H134363   0.675   4.486   0.009 -0.0685 -1.4138 -1.3320
 4316TIP3    H234364   0.534   4.535  -0.016 -0.1244 -1.3937 -0.9793
 4317TIP3   OH234365   4.614   0.806   0.607  0.5904  0.2486 -0.0095
 4317TIP3    H134366   4.667   0.855   0.669  0.1843 -0.7513  1.1614
 4317TIP3    H234367   4.536   0.859   0.594  0.9013  0.6953 -0.0457
 4318TIP3   OH234368   6.048   4.521   3.117  0.7473 -0.2195 -0.2288
 4318TIP3    H134369   6.121   4.490   3.170  2.3585  2.8655 -0.5458
 4318TIP3    H234370   5.970   4.490   3.163  2.2037 -2.6205  0.7054
 4319TIP3   OH234371   4.102   3.757   4.411 -0.3958  0.8563  0.3258
 4319TIP3    H134372   4.056   3.768   4.494 -0.7281 -0.6267  0.3586
 4319TIP3    H234373   4.060   3.819   4.351 -1.5534  0.4634  0.7197
 4320TIP3   OH234374   2.375   4.284  12.641  0.5769  0.2422  0.1318
 4320TIP3    H134375   2.460   4.310  12.674  0.7283  0.8122 -0.6957
 4320TIP3    H234376   2.383   4.290  12.546 -0.3223  0.0977  0.0372
 4321TIP3   OH234377   2.943   4.214  13.248  0.1706  0.2191 -0.1020
 4321TIP3    H134378   2.947   4.121  13.224 -0.0118  0.2821 -0.3718
 4321TIP3    H234379   2.895   4.215  13.331  1.9741 -0.1338  0.9902
 4322TIP3   OH234380   1.141   0.311  12.944 -0.5605 -0.1963 -0.2598
 4322TIP3    H134381   1.137   0.217  12.926  0.5042 -0.7145  1.9585
 4322TIP3    H234382   1.155   0.351  12.858  1.5838 -2.2879 -0.9595
 4323TIP3   OH234383   4.292   5.907   1.098 -0.1689  0.3547 -0.0476
 4323TIP3    H134384   4.220   5.844   1.091 -0.7900  0.9819  0.6044
 4323TIP3    H234385   4.254   5.982   1.144  1.3813 -0.0909  2.0608
 4324TIP3   OH234386   0.869   2.225   4.547 -0.0132  0.3685 -0.6723
 4324TIP3    H134387   0.905   2.263   4.627 -1.3754 -0.1822  0.2094
 4324TIP3    H234388   0.924   2.149   4.530  0.0287  0.2524 -0.0363
 4325TIP3   OH234389   4.167   6.342   3.848 -0.1684 -0.3837 -0.5764
 4325TIP3    H134390   4.075   6.344   3.875  0.2020  0.0720  0.7067
 4325TIP3    H234391   4.188   6.248   3.844 -0.6780 -0.4895 -0.8406
 4326TIP3   OH234392   5.512   0.986  12.741  0.3335  0.4016  0.3139
 4326TIP3    H134393   5.511   1.012  12.649 -0.4792 -1.8940 -0.3789
 4326TIP3    H234394   5.485   1.064  12.789  0.6806  1.6000 -1.4086
 4327TIP3   OH234395   2.685   1.596  15.716 -0.0644 -0.0796 -0.0171
 4327TIP3    H134396   2.674   1.506  15.749  1.4939 -0.2555  0.0797
 4327TIP3    H234397   2.629   1.601  15.639 -0.6455 -0.9444  0.3447
 4328TIP3   OH234398   3.972   1.416  13.405  0.1049  0.0879  0.2386
 4328TIP3    H134399   3.904   1.444  13.467  1.4194 -0.7553  2.1276
 4328TIP3    H234400   3.931   1.345  13.355 -0.7905  0.3815  0.5367
 4329TIP3   OH234401   4.642   6.299   0.897 -0.4113  0.3714 -0.1987
 4329TIP3    H134402   4.697   6.329   0.824 -0.6263 -0.6066 -0.7652
 4329TIP3    H234403   4.557   6.281   0.858 -0.3416 -0.7871  0.1745
 4330TIP3   OH234404   3.663   6.227  11.204  0.4523 -0.5123 -0.2550
 4330TIP3    H134405   3.573   6.196  11.191  0.8568 -2.5830  1.4935
 4330TIP3    H234406   3.653   6.318  11.232 -1.2808 -1.3377  2.0429
 4331TIP3   OH234407   6.026   4.398  15.519  0.0227  0.0738  0.0605
 4331TIP3    H134408   6.073   4.465  15.568 -0.3874  0.7676 -0.4839
 4331TIP3    H234409   5.947   4.442  15.489 -0.5531 -0.8394  0.2369
 4332TIP3   OH234410   4.359   5.884  10.598  0.2010 -0.1912  0.0036
 4332TIP3    H134411   4.308   5.921  10.526 -1.2144 -0.2419  0.9688
 4332TIP3    H234412   4.430   5.948  10.612 -0.0743  0.2956 -0.8061
 4333TIP3   OH234413   4.893   6.770  12.059  0.4176  0.6406  0.4073
 4333TIP3    H134414   4.870   6.722  12.139 -0.4587 -1.6165 -1.1494
 4333TIP3    H234415   4.983   6.744  12.041  0.2651  0.3280  0.0928
 4334TIP3   OH234416   4.758   6.538  16.483  0.3189  0.0676  0.2308
 4334TIP3    H134417   4.729   6.475  16.417 -0.4162 -0.8495  1.4130
 4334TIP3    H234418   4.730   6.500  16.566  0.2664  1.7333  0.9969
 4335TIP3   OH234419   3.438   6.115   2.568  0.3623  0.1678  0.4870
 4335TIP3    H134420   3.401   6.199   2.596  1.4357  0.7235  0.2565
 4335TIP3    H234421   3.370   6.076   2.512 -1.0268 -0.0999  2.2788
 4336TIP3   OH234422   2.839   2.166  17.013 -0.1168  0.2481 -0.5679
 4336TIP3    H134423   2.887   2.136  16.936  0.8731  0.0854  0.1100
 4336TIP3    H234424   2.906   2.178  17.081 -0.9528  0.5706  0.2148
 4337TIP3   OH234425   0.256   0.944  14.844 -0.0995 -0.2818  0.1100
 4337TIP3    H134426   0.189   1.004  14.877 -1.0938 -1.6100  0.5101
 4337TIP3    H234427   0.249   0.867  14.900  1.3734 -0.6639 -0.2184
 4338TIP3   OH234428   2.307   1.563  15.191 -0.2682 -0.2836 -0.1288
 4338TIP3    H134429   2.363   1.495  15.228 -0.5560  0.1613  1.1351
 4338TIP3    H234430   2.301   1.630  15.259 -1.9873 -0.1313 -0.3990
 4339TIP3   OH234431   0.891   5.405  13.958 -0.2060  0.3625 -0.0508
 4339TIP3    H134432   0.948   5.442  14.025  0.3668 -1.1757  0.3244
 4339TIP3    H234433   0.945   5.402  13.879 -0.1959  0.1638 -0.0362
 4340TIP3   OH234434   6.721   1.784   2.973 -0.3828 -0.3396  0.3041
 4340TIP3    H134435   6.760   1.755   2.890 -1.8827 -1.0028 -0.1983
 4340TIP3    H234436   6.626   1.776   2.958 -0.7834  2.5394  1.0031
 4341TIP3   OH234437   5.429   6.223   2.367 -0.5779 -0.2358  0.2348
 4341TIP3    H134438   5.433   6.198   2.459  1.7507  0.7913  0.4311
 4341TIP3    H234439   5.423   6.140   2.320 -0.4387 -0.8172  1.2376
 4342TIP3   OH234440   6.230   3.653   1.113 -0.9959  0.3144 -0.2058
 4342TIP3    H134441   6.269   3.566   1.126  0.8069  1.0808 -0.3126
 4342TIP3    H234442   6.252   3.675   1.023  0.5904  1.8500  0.5307
 4343TIP3   OH234443   4.400   2.918  11.620 -0.3344 -0.3155  0.4727
 4343TIP3    H134444   4.415   2.972  11.542 -1.9301 -1.3700 -0.5946
 4343TIP3    H234445   4.467   2.946  11.682  1.4223  0.0394 -1.5450
 4344TIP3   OH234446   5.723   0.935  11.456 -0.2623 -0.3500  0.3544
 4344TIP3    H134447   5.642   0.979  11.432 -1.4066  0.0548  4.6748
 4344TIP3    H234448   5.733   0.866  11.389 -3.1184  0.7863 -1.3246
 4345TIP3   OH234449   5.757   5.286   1.368  0.1560 -0.1056 -0.4450
 4345TIP3    H134450   5.793   5.373   1.387  1.0632  0.0331 -2.5775
 4345TIP3    H234451   5.738   5.248   1.453 -1.0246  2.5098  0.5141
 4346TIP3   OH234452   5.513   2.279   4.826 -0.0898 -0.3507 -0.4386
 4346TIP3    H134453   5.459   2.274   4.904  0.4696  0.5883  0.0135
 4346TIP3    H234454   5.533   2.372   4.816  1.6764 -0.7112 -0.4291
 4347TIP3   OH234455   6.061   0.558   2.594  0.8763 -0.5932 -0.3504
 4347TIP3    H134456   5.975   0.588   2.565 -0.6934 -3.7580  0.8229
 4347TIP3    H234457   6.121   0.588   2.525 -1.0537  2.1321 -0.9036
 4348TIP3   OH234458   6.266   5.501   0.404  0.0501  0.0177  0.1457
 4348TIP3    H134459   6.260   5.513   0.309  0.7056  0.0185  0.1020
 4348TIP3    H234460   6.241   5.586   0.440 -1.2865 -0.3084  0.0085
 4349TIP3   OH234461   0.308   0.138  11.224 -0.0893 -0.3508  0.2816
 4349TIP3    H134462   0.360   0.061  11.249 -1.1700 -0.8617  1.0319
 4349TIP3    H234463   0.285   0.123  11.133  0.1176 -0.6828  0.2822
 4350TIP3   OH234464   6.129   4.290  11.238  0.3556 -0.1010 -0.2725
 4350TIP3    H134465   6.056   4.309  11.180  0.3001 -2.0004 -0.8526
 4350TIP3    H234466   6.164   4.206  11.207  0.1670 -1.2923  2.5540
 4351TIP3   OH234467   0.607   6.457  13.367 -0.0919  0.3488 -0.3230
 4351TIP3    H134468   0.521   6.484  13.398 -0.2048 -0.3721  0.0182
 4351TIP3    H234469   0.669   6.500  13.427 -0.3448 -1.9950  1.7403
 4352TIP3   OH234470   1.178   3.242  13.401  0.0917  0.8374 -0.3399
 4352TIP3    H134471   1.180   3.146  13.411 -2.3191  0.5731 -1.9253
 4352TIP3    H234472   1.131   3.273  13.479  0.6685  0.7017  0.0609
 4353TIP3   OH234473   1.738   2.829   0.354 -0.6655 -0.4802  0.2658
 4353TIP3    H134474   1.762   2.738   0.337 -1.1411 -0.3711 -1.0108
 4353TIP3    H234475   1.682   2.854   0.280  1.0228  1.4348 -0.4096
 4354TIP3   OH234476   2.886   2.460   3.756 -0.2793  0.1629 -0.1401
 4354TIP3    H134477   2.913   2.517   3.684  1.3187  1.4230  1.3890
 4354TIP3    H234478   2.847   2.520   3.820  2.8523 -0.1045  2.1770
 4355TIP3   OH234479   2.277   2.706   2.816  0.1624  0.3807  0.0753
 4355TIP3    H134480   2.352   2.674   2.766 -0.8517 -0.7537 -0.7538
 4355TIP3    H234481   2.283   2.663   2.901 -0.0179 -0.3854 -0.2948
 4356TIP3   OH234482   4.495   0.191   1.705  0.3332 -0.8658 -0.1430
 4356TIP3    H134483   4.552   0.216   1.631 -0.4339 -2.0319 -1.1412
 4356TIP3    H234484   4.541   0.224   1.782  1.7562 -0.7002 -1.0394
 4357TIP3   OH234485   0.116   5.861  11.813 -0.1562 -0.3296 -0.4132
 4357TIP3    H134486   0.025   5.887  11.822 -0.1045  0.4822 -1.9881
 4357TIP3    H234487   0.153   5.871  11.901 -0.9027  2.0603 -0.3370
 4358TIP3   OH234488   1.653   1.941  15.303  0.3607 -0.3810 -0.6422
 4358TIP3    H134489   1.632   1.940  15.396 -1.6788  1.1956 -1.0405
 4358TIP3    H234490   1.599   1.871  15.266  0.8408 -0.7184 -0.7066
 4359TIP3   OH234491   1.839   0.157   2.929  0.0186  0.4541 -0.1703
 4359TIP3    H134492   1.886   0.075   2.915  0.1260  0.3483  0.7696
 4359TIP3    H234493   1.831   0.195   2.841  0.0134 -0.5274 -0.6004
 4360TIP3   OH234494   0.890   0.117   3.374 -0.4660 -0.3782  0.5445
 4360TIP3    H134495   0.931   0.085   3.294 -0.9824  0.4296 -0.0553
 4360TIP3    H234496   0.810   0.066   3.381  0.1136 -1.1979  1.1249
 4361TIP3   OH234497   5.307   2.917  10.886 -0.2131 -0.5860  0.3728
 4361TIP3    H134498   5.262   2.833  10.872  0.0996 -0.4009 -1.8706
 4361TIP3    H234499   5.384   2.913  10.829  1.1118  0.2671  2.0488
 4362TIP3   OH234500   3.907   1.361   1.489 -0.1561  0.2124  0.0855
 4362TIP3    H134501   3.992   1.364   1.534  0.2253 -1.7757 -0.4483
 4362TIP3    H234502   3.846   1.327   1.555 -0.0254 -0.6731 -0.2356
 4363TIP3   OH234503   5.933   3.585   3.448 -0.2850 -0.0891 -0.1050
 4363TIP3    H134504   5.919   3.498   3.486 -2.6945  0.8249  1.1824
 4363TIP3    H234505   6.020   3.610   3.478  0.8257 -2.4046 -1.2434
 4364TIP3   OH234506   0.249   4.933   3.175 -0.2270  0.2091  0.2631
 4364TIP3    H134507   0.227   4.868   3.108  2.6601  2.5568 -3.1083
 4364TIP3    H234508   0.204   5.012   3.147 -1.2835  0.5338  2.7161
 4365TIP3   OH234509   3.312   3.486   0.835  0.2015 -0.0284 -0.4312
 4365TIP3    H134510   3.237   3.522   0.788 -1.0385 -1.5329  0.3717
 4365TIP3    H234511   3.286   3.487   0.927  1.1451 -0.5947 -0.1502
 4366TIP3   OH234512   2.109   3.300  16.821  0.0259  0.1744  0.0189
 4366TIP3    H134513   2.126   3.284  16.728  0.1840  2.0400 -0.2954
 4366TIP3    H234514   2.170   3.242  16.866  0.2084 -0.4783 -1.0366
 4367TIP3   OH234515   5.431   5.686   3.006  0.4073 -0.1225  0.1918
 4367TIP3    H134516   5.510   5.696   3.059 -0.7667  0.6872  1.8495
 4367TIP3    H234517   5.363   5.662   3.069 -0.6922 -0.7302 -1.1935
 4368TIP3   OH234518   3.030   5.953   0.992 -0.0700  0.5782 -0.0368
 4368TIP3    H134519   2.976   6.004   0.932  0.6793  1.5584  0.1042
 4368TIP3    H234520   3.003   5.862   0.977 -1.1722  0.9760 -0.5418
 4369TIP3   OH234521   6.422   1.214   3.142  0.0474  0.1985 -0.0606
 4369TIP3    H134522   6.510   1.186   3.170  1.2179  1.6374 -2.1365
 4369TIP3    H234523   6.428   1.309   3.139 -1.2409  0.2402 -1.3699
 4370TIP3   OH234524   5.745   1.774   5.752 -0.4383 -0.0756  0.1287
 4370TIP3    H134525   5.711   1.742   5.835 -1.1443 -0.6041 -0.3596
 4370TIP3    H234526   5.840   1.776   5.764 -0.4410 -1.5874  0.4327
 4371TIP3   OH234527   4.550   0.076  12.814 -0.2692 -0.3253  0.1701
 4371TIP3    H134528   4.592   0.158  12.839  0.6473 -0.7802  0.1676
 4371TIP3    H234529   4.533   0.085  12.721 -0.0876 -0.1668  0.1519
 4372TIP3   OH234530   4.251   0.865   2.076  0.0276  0.5015 -0.1166
 4372TIP3    H134531   4.230   0.783   2.032 -0.9134  1.7898 -2.1288
 4372TIP3    H234532   4.300   0.839   2.153 -1.0228 -2.0120 -0.2533
 4373TIP3   OH234533   1.406   0.232  14.569  0.5572 -0.2687 -0.6449
 4373TIP3    H134534   1.353   0.305  14.538 -0.3810  0.8410  3.2740
 4373TIP3    H234535   1.496   0.255  14.546 -0.0784  0.4609 -2.4575
 4374TIP3   OH234536   5.641   1.471   0.290 -0.1447  0.0307 -0.1675
 4374TIP3    H134537   5.632   1.509   0.203  0.7569  1.5801  0.3773
 4374TIP3    H234538   5.563   1.418   0.302 -0.6546  0.4267 -1.6125
 4375TIP3   OH234539   3.126   2.731  13.702  0.1530  0.0543  0.0479
 4375TIP3    H134540   3.152   2.789  13.773  0.4124  0.3053 -0.2457
 4375TIP3    H234541   3.047   2.688  13.733 -0.0356  0.5625  0.2777
 4376TIP3   OH234542   4.426   1.852  16.118 -0.1161 -0.1509 -0.1205
 4376TIP3    H134543   4.434   1.929  16.063 -0.9721  0.8148  1.0778
 4376TIP3    H234544   4.362   1.876  16.185  0.8164 -1.3293  1.2418
 4377TIP3   OH234545   4.745   6.575  13.799 -0.4827 -0.2109 -0.4294
 4377TIP3    H134546   4.650   6.581  13.814 -0.4415  0.8221 -0.5545
 4377TIP3    H234547   4.768   6.657  13.756  0.6556  0.0100  0.5667
 4378TIP3   OH234548   2.563   0.686   1.508 -0.0897  0.1954  0.0067
 4378TIP3    H134549   2.537   0.597   1.481 -0.7734  0.1287  0.8397
 4378TIP3    H234550   2.480   0.732   1.520  0.2485  0.7242  0.3219
 4379TIP3   OH234551   6.451   4.593  16.933 -0.8071  0.0209  0.1808
 4379TIP3    H134552   6.390   4.538  16.981 -1.3582  0.1644 -0.3614
 4379TIP3    H234553   6.470   4.544  16.853  0.0579 -0.1847  0.5010
 4380TIP3   OH234554   2.209   1.069   4.098  0.1707  0.3062  0.1179
 4380TIP3    H134555   2.197   1.138   4.162  3.6243  2.5549 -1.4813
 4380TIP3    H234556   2.213   1.115   4.014  0.3209 -2.0722 -1.2154
 4381TIP3   OH234557   4.598   6.032   5.833 -0.4257  0.2419 -0.0854
 4381TIP3    H134558   4.518   6.043   5.883 -1.2895  3.5326 -2.0341
 4381TIP3    H234559   4.657   6.100   5.866  0.8571 -0.9159  0.0292
 4382TIP3   OH234560   5.752   0.413  15.015  0.1571 -0.0486  0.2848
 4382TIP3    H134561   5.815   0.485  15.014  0.6106 -0.4550 -1.0286
 4382TIP3    H234562   5.716   0.415  15.104  1.8196  0.3512  0.9802
 4383TIP3   OH234563   3.084   6.327   1.039 -0.1615 -0.6828  0.0543
 4383TIP3    H134564   3.069   6.266   1.111 -1.0700  1.2570  1.5501
 4383TIP3    H234565   3.000   6.333   0.993 -0.4591  0.4537  0.7299
 4384TIP3   OH234566   2.180   2.094   3.779  0.0083  0.0240 -0.6014
 4384TIP3    H134567   2.245   2.032   3.813  0.1139  0.6011  0.2546
 4384TIP3    H234568   2.098   2.067   3.820  0.0171  0.3374 -0.3808
 4385TIP3   OH234569   5.925   5.855   6.141  0.3010 -0.1811 -0.0337
 4385TIP3    H134570   5.975   5.792   6.088  0.6311  0.5382 -0.5848
 4385TIP3    H234571   5.985   5.878   6.212  0.8754  0.9124 -0.8644
 4386TIP3   OH234572   2.534   3.804   6.095  0.6815 -0.4884  0.6673
 4386TIP3    H134573   2.440   3.793   6.085  0.9393 -0.5631 -2.0049
 4386TIP3    H234574   2.544   3.892   6.132 -0.3408  0.6681 -1.7143
 4387TIP3   OH234575   0.489   0.139   3.496 -0.1927 -0.2218 -0.2172
 4387TIP3    H134576   0.550   0.179   3.558 -1.0954 -1.7008  1.6705
 4387TIP3    H234577   0.538   0.067   3.456 -0.4024 -0.8669  0.6658
 4388TIP3   OH234578   4.750   0.908  11.107  0.4366  0.0221 -0.0808
 4388TIP3    H134579   4.750   0.865  11.021  0.8084  0.1525 -0.1506
 4388TIP3    H234580   4.663   0.947  11.115  0.5690  0.4306 -0.6139
 4389TIP3   OH234581   2.402   6.445   3.833  0.0296 -0.1007 -0.0291
 4389TIP3    H134582   2.336   6.379   3.853  1.4859 -1.3069  0.8849
 4389TIP3    H234583   2.458   6.404   3.767 -1.0184  1.4884 -1.9446
 4390TIP3   OH234584   5.679   2.993   3.184 -0.5144 -0.2941 -0.2935
 4390TIP3    H134585   5.627   2.963   3.110 -1.4196  3.0727 -1.1332
 4390TIP3    H234586   5.736   3.061   3.148 -0.4284  0.8540  1.8982
 4391TIP3   OH234587   3.560   0.692   0.413 -0.1212 -0.1819 -0.4687
 4391TIP3    H134588   3.616   0.635   0.466  2.2439  0.9063 -1.7285
 4391TIP3    H234589   3.537   0.764   0.471  3.1658  1.4494 -1.0834
 4392TIP3   OH234590   3.609   6.001   0.447 -0.5182 -0.5018 -0.2348
 4392TIP3    H134591   3.588   6.002   0.541  0.1655  0.6125 -0.0761
 4392TIP3    H234592   3.549   5.937   0.410 -3.3065  1.6623  0.3969
 4393TIP3   OH234593   2.169   3.033  16.717  0.5809  0.0137  0.5606
 4393TIP3    H134594   2.116   3.035  16.797  0.9395  1.6050  0.7612
 4393TIP3    H234595   2.113   3.073  16.650  0.7173 -0.2840  0.2647
 4394TIP3   OH234596   6.342   4.324   4.821 -0.1719  0.4698 -0.0020
 4394TIP3    H134597   6.343   4.238   4.864 -0.9075  0.1247 -0.6635
 4394TIP3    H234598   6.419   4.369   4.855  0.5953 -0.7119 -0.1748
 4395TIP3   OH234599   4.330   5.519  12.615 -0.0817 -0.4931 -0.1099
 4395TIP3    H134600   4.390   5.459  12.571 -0.7857 -0.9210 -0.4942
 4395TIP3    H234601   4.306   5.583  12.548  0.3890  0.0129  0.1991
 4396TIP3   OH234602   1.141   4.623   4.178  0.0900 -0.0454 -0.0180
 4396TIP3    H134603   1.161   4.687   4.109  1.6873  1.0568  1.4050
 4396TIP3    H234604   1.195   4.547   4.156  1.7999  0.8936  0.8470
 4397TIP3   OH234605   5.797   3.530   6.114  0.2126  0.4233 -0.4600
 4397TIP3    H134606   5.812   3.452   6.167 -0.0273  0.7091  0.0433
 4397TIP3    H234607   5.778   3.497   6.026  0.7753 -0.0515 -0.4017
 4398TIP3   OH234608   1.858   0.451  12.178  0.0928  0.0742  0.1451
 4398TIP3    H134609   1.886   0.499  12.100  1.6827  0.0201  0.6647
 4398TIP3    H234610   1.766   0.430  12.162  0.2390  0.6044 -1.4402
 4399TIP3   OH234611   2.980   4.647   5.702 -0.0101 -0.4467  0.0897
 4399TIP3    H134612   3.068   4.630   5.734 -0.0093 -1.6135 -0.5146
 4399TIP3    H234613   2.923   4.621   5.776  0.0210 -2.5873 -0.5910
 4400TIP3   OH234614   2.695   5.031  14.596  0.4063  0.2631 -0.4524
 4400TIP3    H134615   2.735   5.023  14.509 -0.1707 -0.8114 -0.6407
 4400TIP3    H234616   2.617   5.085  14.582  0.8531  0.9233 -0.4096
 4401TIP3   OH234617   1.546   3.892   1.626 -0.4080 -0.3016  0.2104
 4401TIP3    H134618   1.466   3.919   1.581  0.1584 -0.5864 -0.9932
 4401TIP3    H234619   1.550   3.797   1.614  0.6423 -0.1543 -0.6221
 4402TIP3   OH234620   4.413   4.247   0.077  0.1287  0.6063  0.5280
 4402TIP3    H134621   4.450   4.183   0.017  0.1614  0.4401  0.7260
 4402TIP3    H234622   4.449   4.331   0.048 -0.7704  0.6886 -0.4250
 4403TIP3   OH234623   4.630   6.671  11.963 -0.0821 -0.1414  0.1856
 4403TIP3    H134624   4.712   6.711  11.991  0.2563  0.2741 -1.3671
 4403TIP3    H234625   4.602   6.722  11.887 -1.2962 -0.8620  0.1246
 4404TIP3   OH234626   1.833   4.372   6.128 -0.0678  0.5344 -0.1044
 4404TIP3    H134627   1.883   4.330   6.059 -0.5957  0.4469 -0.4343
 4404TIP3    H234628   1.758   4.314   6.143 -0.4621  1.0280 -0.1249
 4405TIP3   OH234629   0.474   4.117  15.471  0.3403 -0.1054 -0.2337
 4405TIP3    H134630   0.505   4.036  15.430  1.0256 -0.2082  0.4726
 4405TIP3    H234631   0.508   4.113  15.560  0.1969  0.8647 -0.1321
 4406TIP3   OH234632   0.015   6.283  14.418  0.3428 -0.0174 -0.4083
 4406TIP3    H134633  -0.007   6.286  14.511  0.6816  1.4200 -0.3677
 4406TIP3    H234634  -0.065   6.309  14.372  0.1231 -0.8924 -0.5387
 4407TIP3   OH234635   4.737   5.763   4.155 -1.0321  0.0335 -0.1912
 4407TIP3    H134636   4.680   5.840   4.154 -1.3407 -0.2098 -2.4359
 4407TIP3    H234637   4.802   5.780   4.087 -1.7003 -2.1428 -1.3998
 4408TIP3   OH234638   5.896   5.277   4.024 -0.4817 -0.4368 -0.1443
 4408TIP3    H134639   5.991   5.290   4.025 -0.4915 -0.2781 -1.5747
 4408TIP3    H234640   5.860   5.365   4.036 -0.4648 -0.3755 -0.5644
 4409TIP3   OH234641   4.862   2.241   4.929 -0.2341  0.3301  0.6258
 4409TIP3    H134642   4.917   2.318   4.919  0.5467 -0.0757  1.7217
 4409TIP3    H234643   4.902   2.175   4.873 -1.4568  0.9896 -1.0715
 4410TIP3   OH234644   6.116   2.244  15.703  0.0818 -0.2545 -0.6843
 4410TIP3    H134645   6.034   2.197  15.711  0.9534 -2.2271 -2.7593
 4410TIP3    H234646   6.094   2.322  15.653 -0.6837 -0.2815 -0.3978
 4411TIP3   OH234647   2.376   5.614  13.038  0.0490 -0.3764  0.2050
 4411TIP3    H134648   2.309   5.631  12.971 -0.7015  1.3598  1.3766
 4411TIP3    H234649   2.452   5.665  13.009  0.3043 -0.9820 -0.2100
 4412TIP3   OH234650   3.789   5.402  11.276  0.4564 -0.1668 -0.3125
 4412TIP3    H134651   3.860   5.382  11.215 -0.3839 -0.2219 -1.2889
 4412TIP3    H234652   3.793   5.332  11.341 -0.8044 -2.1527 -2.2527
 4413TIP3   OH234653   5.352   1.904   0.202 -0.6169 -0.5660 -0.1788
 4413TIP3    H134654   5.444   1.896   0.176 -0.4958  0.3912 -0.0551
 4413TIP3    H234655   5.314   1.963   0.138 -0.9395 -0.2657  0.2872
 4414TIP3   OH234656   6.003   1.769   1.619  0.7939  0.5235  0.5060
 4414TIP3    H134657   6.016   1.824   1.696  1.3694  0.6668  0.3049
 4414TIP3    H234658   5.969   1.687   1.654 -1.0830  1.3498  0.7300
 4415TIP3   OH234659   5.469   3.946  14.096 -0.3340 -0.1406 -0.7593
 4415TIP3    H134660   5.377   3.934  14.072 -0.1788 -0.8778 -0.9758
 4415TIP3    H234661   5.468   3.951  14.192 -0.2399 -3.2707 -0.5696
 4416TIP3   OH234662   6.091   2.490   5.898 -0.0659 -0.8669  0.6465
 4416TIP3    H134663   6.014   2.437   5.918 -0.2387 -0.5178  0.9137
 4416TIP3    H234664   6.056   2.577   5.877  0.3519 -0.2610  2.3686
 4417TIP3   OH234665   0.496   0.163   2.972  0.3970 -0.1439  0.1463
 4417TIP3    H134666   0.522   0.072   2.957  0.3705 -0.2713  0.8570
 4417TIP3    H234667   0.570   0.215   2.939  0.9690 -0.4620  0.9203
 4418TIP3   OH234668   2.740   0.308   1.038  0.3004  0.0521  0.3272
 4418TIP3    H134669   2.671   0.247   1.013  1.7164 -1.0003 -1.0755
 4418TIP3    H234670   2.699   0.365   1.103 -1.1223 -2.2547  1.5118
 4419TIP3   OH234671   4.055   4.200   6.111  0.2821 -0.7167 -0.2435
 4419TIP3    H134672   4.078   4.266   6.046  0.2186 -0.9643 -0.5160
 4419TIP3    H234673   4.133   4.145   6.119  0.5829 -0.1882  0.4982
 4420TIP3   OH234674   6.348   4.598   5.222  0.3346 -0.3826 -0.0708
 4420TIP3    H134675   6.339   4.516   5.271  1.3072 -0.1802  0.4452
 4420TIP3    H234676   6.433   4.632   5.248  0.5655  0.0628 -1.4024
 4421TIP3   OH234677   2.000   4.157   3.894  0.5578  0.1885  0.3599
 4421TIP3    H134678   1.953   4.226   3.940 -1.0272 -0.0531 -0.8489
 4421TIP3    H234679   2.073   4.202   3.851 -0.4453  1.0977 -0.4006
 4422TIP3   OH234680   5.275   5.664  15.863  0.0524  0.1359 -0.3055
 4422TIP3    H134681   5.270   5.759  15.848  1.1480  0.0859 -1.0415
 4422TIP3    H234682   5.340   5.633  15.800  0.0871 -1.0355  0.2922
 4423TIP3   OH234683   0.671   5.901  12.718 -0.4775  0.0534  0.1642
 4423TIP3    H134684   0.705   5.832  12.661 -2.6212 -0.1168 -0.9593
 4423TIP3    H234685   0.662   5.859  12.804 -1.9079 -1.1049 -0.5465
 4424TIP3   OH234686   2.568   5.901  11.963 -0.1807 -0.7459 -0.9538
 4424TIP3    H134687   2.508   5.911  11.889  0.2116  0.1791 -1.1534
 4424TIP3    H234688   2.653   5.882  11.922 -0.2278 -1.5462 -0.6903
 4425TIP3   OH234689   4.569   6.192   5.474 -0.3696 -0.4752  0.2895
 4425TIP3    H134690   4.494   6.220   5.421  0.2599  0.0459 -0.3399
 4425TIP3    H234691   4.599   6.112   5.433  1.0114  0.6973 -1.0345
 4426TIP3   OH234692   4.040   5.056  16.690  0.2608 -0.0280  0.7564
 4426TIP3    H134693   4.076   4.968  16.695 -1.1054 -0.8315 -2.4236
 4426TIP3    H234694   3.960   5.053  16.741  0.5439 -0.4362  1.1780
 4427TIP3   OH234695   1.098   1.292   1.341 -0.0913 -0.2821  0.3549
 4427TIP3    H134696   1.136   1.272   1.427 -0.1539  1.7743  0.8868
 4427TIP3    H234697   1.142   1.373   1.314  0.9200 -1.6267 -2.1831
 4428TIP3   OH234698   4.883   2.370  14.524  0.1360  0.0669 -0.2593
 4428TIP3    H134699   4.864   2.278  14.508  1.3779 -0.0128 -1.3366
 4428TIP3    H234700   4.801   2.416  14.506 -0.1363 -0.6921 -0.9510
 4429TIP3   OH234701   0.839   0.736  14.183 -0.6273 -0.6129 -0.4077
 4429TIP3    H134702   0.798   0.818  14.153  0.1011 -0.8352 -2.0752
 4429TIP3    H234703   0.871   0.695  14.103  0.7807 -1.5797  0.6382
 4430TIP3   OH234704   4.745   4.412   5.858  0.6476  0.0458 -0.0269
 4430TIP3    H134705   4.812   4.419   5.791 -0.2909  0.1303 -0.9657
 4430TIP3    H234706   4.788   4.366   5.931  1.9939  0.9786 -0.2303
 4431TIP3   OH234707   6.447   3.232   5.377 -0.5792  0.9944 -0.2818
 4431TIP3    H134708   6.427   3.181   5.456 -1.7926 -0.3677 -1.4268
 4431TIP3    H234709   6.538   3.213   5.358 -0.7214  0.0883 -0.0825
 4432TIP3   OH234710   5.030   4.256  14.725 -0.2253  0.4336  0.6079
 4432TIP3    H134711   5.101   4.223  14.779 -0.2539  1.1955  1.1274
 4432TIP3    H234712   4.951   4.246  14.779 -0.1151  2.1229  1.1381
 4433TIP3   OH234713   3.115   4.504   0.162 -0.2304  0.4428  0.6332
 4433TIP3    H134714   3.111   4.576   0.224 -0.1726  0.4570  0.6205
 4433TIP3    H234715   3.091   4.543   0.077 -1.9598  0.0824  0.9348
 4434TIP3   OH234716   1.533   2.156   0.829 -0.1214  0.3916  0.5808
 4434TIP3    H134717   1.499   2.074   0.791  0.1747  1.2928 -1.6877
 4434TIP3    H234718   1.621   2.133   0.859 -0.4864 -0.4156  1.0835
 4435TIP3   OH234719   2.913   3.320  15.941  0.3522 -0.2691 -0.0137
 4435TIP3    H134720   3.004   3.290  15.935  0.1668 -1.6514  2.9508
 4435TIP3    H234721   2.902   3.343  16.034 -2.4131 -0.4449 -0.2637
 4436TIP3   OH234722   3.983   6.741   6.051  0.0518 -0.2342  0.2291
 4436TIP3    H134723   3.943   6.668   6.004 -0.3929 -0.3009  0.7116
 4436TIP3    H234724   4.058   6.703   6.097  0.7220 -0.0968 -0.7336
 4437TIP3   OH234725   6.163   0.531   5.861  0.5351  0.6238  0.3366
 4437TIP3    H134726   6.164   0.451   5.808 -2.0866  1.1877 -0.6446
 4437TIP3    H234727   6.194   0.599   5.801  0.8064  0.6978  0.5583
 4438TIP3   OH234728   5.502   6.042   3.212  0.1910 -0.2044  0.0707
 4438TIP3    H134729   5.514   6.084   3.297 -1.9696 -2.4903  1.5707
 4438TIP3    H234730   5.477   6.113   3.153 -2.1529  0.8378  2.2430
 4439TIP3   OH234731   5.021   3.931  13.372  0.6598 -0.4050 -0.5492
 4439TIP3    H134732   4.987   4.005  13.322 -0.5037 -0.7929 -0.3402
 4439TIP3    H234733   5.034   3.965  13.460 -0.9798 -0.7531 -0.1665
 4440TIP3   OH234734   3.905   0.276  14.618  0.5561 -0.6650 -0.4328
 4440TIP3    H134735   3.963   0.203  14.599  2.3188  0.3375  0.9401
 4440TIP3    H234736   3.940   0.349  14.566 -1.6707 -0.9836 -2.4271
 4441TIP3   OH234737   5.587   0.440  15.926 -0.3127 -0.5932  0.0920
 4441TIP3    H134738   5.517   0.484  15.878 -0.3763 -0.3528  0.4011
 4441TIP3    H234739   5.614   0.504  15.993  0.8874 -0.2864 -0.6593
 4442TIP3   OH234740   4.356   5.508   5.151 -0.2675 -0.2174  0.2214
 4442TIP3    H134741   4.281   5.495   5.094 -0.7608 -0.4643  0.9199
 4442TIP3    H234742   4.329   5.471   5.235 -0.3844  2.1842  1.2768
 4443TIP3   OH234743   6.632   6.253  12.763 -0.5774  1.0337  0.0955
 4443TIP3    H134744   6.557   6.199  12.740  1.3171 -2.0981  0.9083
 4443TIP3    H234745   6.679   6.265  12.681 -0.7825  1.0466 -0.0199
 4444TIP3   OH234746   1.397   6.175   3.146 -0.6841 -0.3088 -0.3456
 4444TIP3    H134747   1.474   6.194   3.092  0.3367 -0.2322  1.0976
 4444TIP3    H234748   1.428   6.185   3.236 -1.5997 -3.2064  0.3503
 4445TIP3   OH234749   3.079   6.139  12.941  0.6601  0.4301  0.4307
 4445TIP3    H134750   3.051   6.202  12.875  0.5082 -0.7742 -0.6732
 4445TIP3    H234751   3.126   6.191  13.006 -2.0086  2.1517  1.0830
 4446TIP3   OH234752   3.847   0.821  17.074 -0.0868  0.2065  0.1274
 4446TIP3    H134753   3.794   0.898  17.057 -1.8503 -1.1347 -0.5736
 4446TIP3    H234754   3.842   0.770  16.993  3.8005  0.8946 -0.6605
 4447TIP3   OH234755   5.199   2.614   1.287 -0.4846  0.1482  0.1241
 4447TIP3    H134756   5.117   2.606   1.237 -1.5480  0.5048  1.7945
 4447TIP3    H234757   5.241   2.692   1.251 -0.5035 -0.4481 -1.2503
 4448TIP3   OH234758   2.040   4.577  16.756  0.0142 -0.6400  0.0031
 4448TIP3    H134759   2.021   4.670  16.743  0.2586 -0.6563 -0.5083
 4448TIP3    H234760   1.968   4.545  16.809  0.0441 -0.1074  0.3680
 4449TIP3   OH234761   6.434   6.569   6.482  0.2756  0.3529 -0.4402
 4449TIP3    H134762   6.460   6.656   6.453 -0.1541  0.4093 -0.6696
 4449TIP3    H234763   6.478   6.557   6.566  1.0852  0.4131 -0.8539
 4450TIP3   OH234764   4.839   2.617   5.472 -0.1585  0.3926  0.9308
 4450TIP3    H134765   4.776   2.566   5.524  0.5737 -1.9526 -0.4231
 4450TIP3    H234766   4.840   2.575   5.386  1.9559  1.4678  0.3821
 4451TIP3   OH234767   1.713   4.867  12.654 -0.5057  0.3565 -0.0266
 4451TIP3    H134768   1.755   4.949  12.682  1.0882 -0.8767  1.2529
 4451TIP3    H234769   1.747   4.801  12.713 -3.7539 -0.8451  0.6061
 4452TIP3   OH234770   1.508   2.283  13.283  0.5558  0.1718 -0.3309
 4452TIP3    H134771   1.430   2.274  13.228  0.1041  0.6308  0.2320
 4452TIP3    H234772   1.523   2.377  13.289 -0.4016  0.2229  1.7194
 4453TIP3   OH234773   6.329   5.333  11.808  0.2655 -0.1432  0.7894
 4453TIP3    H134774   6.239   5.302  11.812  0.3210 -0.5574 -0.7079
 4453TIP3    H234775   6.322   5.425  11.783  0.2295  0.0103  1.3746
 4454TIP3   OH234776   2.960   6.589   3.678 -0.2169 -0.4360 -0.0654
 4454TIP3    H134777   3.006   6.666   3.711 -0.7759  0.6378 -1.7124
 4454TIP3    H234778   2.998   6.516   3.726  1.0196  0.7645  0.8222
 4455TIP3   OH234779   4.959   3.917  12.287  0.3954  0.0184  0.0114
 4455TIP3    H134780   4.891   3.939  12.351  1.4735 -1.3751  1.6698
 4455TIP3    H234781   5.031   3.975  12.308  0.3958  0.2144 -0.5460
 4456TIP3   OH234782   4.148   0.186   3.643 -0.2753  0.8257 -0.5871
 4456TIP3    H134783   4.178   0.214   3.557 -1.5187 -2.0833 -2.0167
 4456TIP3    H234784   4.226   0.153   3.687 -0.0732 -0.0444 -1.5785
 4457TIP3   OH234785   0.501   5.962  15.767  0.4298  0.3078 -0.5106
 4457TIP3    H134786   0.422   5.949  15.821  0.7343  0.9737  0.0962
 4457TIP3    H234787   0.532   5.873  15.749 -0.1545  0.0583 -0.2992
 4458TIP3   OH234788   2.797   0.393   3.786  0.5176 -0.3697 -0.3429
 4458TIP3    H134789   2.816   0.346   3.704 -2.3582 -2.0731 -0.0959
 4458TIP3    H234790   2.768   0.479   3.757 -0.5952 -1.0005 -1.1415
 4459TIP3   OH234791   2.399   2.428  15.158  0.3700  0.5693 -0.8312
 4459TIP3    H134792   2.429   2.420  15.249  2.1930  0.1140 -1.4675
 4459TIP3    H234793   2.353   2.512  15.156 -0.3123  0.2605  0.6844
 4460TIP3   OH234794   4.865   4.548   3.362 -0.1470 -0.2178 -0.2097
 4460TIP3    H134795   4.955   4.581   3.360 -0.4853  0.7665  0.0785
 4460TIP3    H234796   4.822   4.593   3.290 -0.2323 -1.2137 -0.7752
 4461TIP3   OH234797   4.749   0.460   4.411 -0.6409 -0.0538 -0.2626
 4461TIP3    H134798   4.815   0.456   4.481 -0.5069 -0.0954 -0.3909
 4461TIP3    H234799   4.740   0.553   4.392 -0.7935 -0.0317 -0.0795
 4462TIP3   OH234800   1.192   0.672  16.443 -0.2111 -0.1548  0.0017
 4462TIP3    H134801   1.195   0.694  16.536  1.5750 -2.0865  0.4284
 4462TIP3    H234802   1.099   0.672  16.422 -0.5383  3.0739  1.0670
 4463TIP3   OH234803   6.332   0.052   5.049 -0.4002  0.4671  0.2604
 4463TIP3    H134804   6.311   0.043   4.956  1.6504 -1.0226 -0.0826
 4463TIP3    H234805   6.334  -0.038   5.082  0.8483  0.8568  1.2892
 4464TIP3   OH234806   6.709   1.303  14.721 -0.5685 -0.0075  0.0945
 4464TIP3    H134807   6.777   1.283  14.785 -0.5615  2.2793  0.8547
 4464TIP3    H234808   6.667   1.219  14.703  1.3653 -1.1608  0.8534
 4465TIP3   OH234809   0.766   5.567  16.451  0.6285  0.0820 -0.0161
 4465TIP3    H134810   0.818   5.633  16.405  0.8141  0.3207  0.5257
 4465TIP3    H234811   0.715   5.617  16.515 -0.8526 -0.0585 -1.0589
 4466TIP3   OH234812   5.802   0.715  11.325 -0.0049  0.2199 -0.2177
 4466TIP3    H134813   5.716   0.692  11.289  0.5573  1.3672 -2.3959
 4466TIP3    H234814   5.829   0.638  11.373 -1.2267 -1.0461 -1.4969
 4467TIP3   OH234815   5.169   6.093   1.606  0.7156 -0.4240  0.0999
 4467TIP3    H134816   5.115   6.040   1.548 -1.4489  2.0527 -0.2417
 4467TIP3    H234817   5.243   6.037   1.627 -1.0548 -3.2547 -0.8893
 4468TIP3   OH234818   4.631   2.738  14.518 -0.8518 -0.9450  0.1647
 4468TIP3    H134819   4.633   2.647  14.490 -0.8514 -0.4130 -1.6872
 4468TIP3    H234820   4.718   2.772  14.496 -1.2725 -0.1775 -0.3587
 4469TIP3   OH234821   2.806   3.361   2.207  0.4188  0.2502  0.3280
 4469TIP3    H134822   2.840   3.320   2.286 -1.2981 -0.8883  0.5045
 4469TIP3    H234823   2.880   3.363   2.147  1.2130 -0.6899  1.2666
 4470TIP3   OH234824   3.886   0.849   2.500 -0.6287 -0.3923  0.0833
 4470TIP3    H134825   3.956   0.807   2.449  0.2538  0.2683  0.7226
 4470TIP3    H234826   3.831   0.892   2.435 -1.0352 -1.7924 -0.5129
 4471TIP3   OH234827   4.623   1.200  13.318 -0.2502 -0.5063 -0.5611
 4471TIP3    H134828   4.652   1.194  13.410  0.7159  2.0080 -0.6456
 4471TIP3    H234829   4.529   1.189  13.322 -0.3215  0.3510  0.8770
 4472TIP3   OH234830   5.874   6.518  15.173 -0.7143  0.1578  0.0607
 4472TIP3    H134831   5.786   6.547  15.152 -0.8220  0.2194  0.5885
 4472TIP3    H234832   5.914   6.591  15.220 -1.4852 -1.0401  2.6847
 4473TIP3   OH234833   2.478   4.979  11.532 -0.2193 -0.0555 -0.5178
 4473TIP3    H134834   2.385   4.983  11.510 -0.3734  0.0495  0.1574
 4473TIP3    H234835   2.522   4.999  11.450 -0.7825 -1.0359 -1.0674
 4474TIP3   OH234836   2.280   2.671  12.053 -0.2428  0.4555 -0.2134
 4474TIP3    H134837   2.215   2.609  12.087 -1.2375  0.3589 -2.2618
 4474TIP3    H234838   2.364   2.625  12.062 -0.8923 -0.9315 -1.0809
 4475TIP3   OH234839   5.107   1.217  12.977 -0.0302  0.3629  0.2185
 4475TIP3    H134840   5.115   1.147  12.913 -0.7634 -1.1205  1.7141
 4475TIP3    H234841   5.035   1.271  12.946 -0.5853 -0.5295 -0.0366
 4476TIP3   OH234842   6.318   2.187   1.934  0.7651 -0.1702 -0.0069
 4476TIP3    H134843   6.258   2.133   1.882 -1.8674  0.2823  2.4645
 4476TIP3    H234844   6.364   2.124   1.990  2.0869 -0.4218 -1.3196
 4477TIP3   OH234845   5.102   3.819   5.102 -0.7519 -0.0884 -0.5094
 4477TIP3    H134846   5.048   3.810   5.024  0.4211 -0.6246 -1.2675
 4477TIP3    H234847   5.050   3.876   5.160 -2.5172 -1.3276 -0.8371
 4478TIP3   OH234848   3.636   3.672  16.911 -0.1346 -0.0823  0.1540
 4478TIP3    H134849   3.588   3.644  16.833  1.8025  0.0809 -1.1305
 4478TIP3    H234850   3.568   3.694  16.974 -1.7945  1.4845 -2.0860
 4479TIP3   OH234851   6.462   4.359   1.399 -0.3231 -0.1724  0.4178
 4479TIP3    H134852   6.450   4.442   1.444  1.3426 -0.2297  0.9724
 4479TIP3    H234853   6.485   4.297   1.467  0.4686 -0.6487 -0.2771
 4480TIP3   OH234854   3.667   0.303   1.258  0.6516  0.0671  0.3956
 4480TIP3    H134855   3.596   0.296   1.322 -0.2605  0.7848 -0.5208
 4480TIP3    H234856   3.649   0.385   1.211  2.7005  0.8206  0.8819
 4481TIP3   OH234857   3.048   2.724  11.647 -0.5307  0.4299 -0.3215
 4481TIP3    H134858   3.087   2.812  11.649 -0.9728  0.6160  0.3816
 4481TIP3    H234859   3.106   2.671  11.702 -0.3898  0.3354 -0.5609
 4482TIP3   OH234860   2.544   6.157   3.813  0.1727 -0.3128 -0.3250
 4482TIP3    H134861   2.554   6.183   3.905  1.7120 -1.2693 -0.1975
 4482TIP3    H234862   2.464   6.104   3.812 -1.3130  1.8452 -0.0478
 4483TIP3   OH234863   5.644   3.240  14.425  0.1886  0.2068 -0.0910
 4483TIP3    H134864   5.634   3.317  14.480  1.8731 -0.9250  1.8838
 4483TIP3    H234865   5.561   3.193  14.434  0.3772  0.1422  1.3155
 4484TIP3   OH234866   1.379   5.381  14.522  0.4726  0.1040 -0.4499
 4484TIP3    H134867   1.363   5.418  14.435 -3.2042  1.1667  0.5634
 4484TIP3    H234868   1.291   5.364  14.557  1.7713  1.2475  3.6922
 4485TIP3   OH234869   6.613   3.080  16.557  0.0956 -0.4208 -0.7730
 4485TIP3    H134870   6.616   3.003  16.614 -1.0027  0.0188 -0.1102
 4485TIP3    H234871   6.526   3.116  16.570  0.0720  0.0735 -2.2316
 4486TIP3   OH234872   5.758   4.723  12.657  0.4601  0.4894 -0.4025
 4486TIP3    H134873   5.744   4.630  12.671  0.8270  0.5176  0.1871
 4486TIP3    H234874   5.743   4.736  12.564 -0.4859  0.0022 -0.3243
 4487TIP3   OH234875   3.174   1.011  16.120 -0.5110 -0.4755  0.2561
 4487TIP3    H134876   3.264   1.036  16.139 -0.4637  0.1262 -0.7099
 4487TIP3    H234877   3.137   0.984  16.204 -0.5557  2.7705  1.3432
 4488TIP3   OH234878   2.452   5.705   1.674 -0.4606  0.1431 -0.2335
 4488TIP3    H134879   2.511   5.658   1.732  3.3836  0.9782 -3.2803
 4488TIP3    H234880   2.414   5.637   1.618  2.4385  0.1969 -2.3464
 4489TIP3   OH234881   3.146   1.041   3.476  0.1052  0.3937 -0.2046
 4489TIP3    H134882   3.179   1.129   3.458  0.8498 -0.4652 -3.4483
 4489TIP3    H234883   3.125   1.006   3.389 -1.7420 -2.0361  1.1731
 4490TIP3   OH234884   0.116   2.342   5.227 -0.2032 -0.1842  0.0606
 4490TIP3    H134885   0.035   2.292   5.229  0.7847 -1.8135  1.3941
 4490TIP3    H234886   0.120   2.379   5.139 -2.6473  0.3899  0.1651
 4491TIP3   OH234887   1.677   3.067  15.497  0.2995  0.1917 -0.3042
 4491TIP3    H134888   1.750   3.077  15.558  0.1137 -1.9115  0.3097
 4491TIP3    H234889   1.710   3.008  15.429 -0.6127 -0.2750 -0.3577
 4492TIP3   OH234890   5.363   0.042   5.633  0.0081 -0.0916 -0.1752
 4492TIP3    H134891   5.425  -0.009   5.582  1.6126  0.4518  1.2054
 4492TIP3    H234892   5.298   0.071   5.569 -0.8474 -3.6401 -1.0328
 4493TIP3   OH234893   3.226   3.144   0.205 -0.0127  0.7988 -0.3637
 4493TIP3    H134894   3.161   3.087   0.164 -0.5983  0.8812  0.4378
 4493TIP3    H234895   3.310   3.102   0.186 -0.4281 -0.2677  0.1227
 4494TIP3   OH234896   2.084   5.432  10.871  0.1875 -0.0801 -0.0479
 4494TIP3    H134897   2.097   5.522  10.902 -0.0701  0.0315 -0.2745
 4494TIP3    H234898   2.125   5.430  10.785  0.4580 -0.2631  0.0815
 4495TIP3   OH234899   4.433   3.410   0.153 -0.6308  0.1025 -0.4427
 4495TIP3    H134900   4.509   3.367   0.114  0.3036  2.5263 -1.3689
 4495TIP3    H234901   4.359   3.352   0.134  0.9785 -2.3625  0.6147
 4496TIP3   OH234902   3.711   2.296  13.060  0.1755  0.0938  0.6891
 4496TIP3    H134903   3.684   2.374  13.011  0.8994 -0.9498 -1.4677
 4496TIP3    H234904   3.683   2.313  13.150  1.6097  3.4562  0.5823
 4497TIP3   OH234905   6.497   4.975  16.000  0.4834 -0.0166 -0.3329
 4497TIP3    H134906   6.580   4.959  15.956  0.0908 -1.5431 -0.5833
 4497TIP3    H234907   6.438   5.004  15.930  0.0258 -1.8421 -0.7364
 4498TIP3   OH234908   6.467   6.173  12.530  0.1712  0.2140  0.2791
 4498TIP3    H134909   6.417   6.254  12.522 -0.8698 -0.3273  1.1424
 4498TIP3    H234910   6.452   6.127  12.447 -2.3848 -0.8221  1.2510
 4499TIP3   OH234911   0.301   1.198  11.648 -0.3909 -0.6696 -0.1571
 4499TIP3    H134912   0.262   1.285  11.651  2.4515  0.6757 -0.7924
 4499TIP3    H234913   0.358   1.194  11.725 -0.1796 -1.8077 -0.3591
 4500TIP3   OH234914   1.399   6.201  14.382 -0.5616 -0.5155 -0.2844
 4500TIP3    H134915   1.399   6.123  14.327 -0.6654 -0.3377 -0.5363
 4500TIP3    H234916   1.397   6.167  14.472  2.5008 -0.8553 -0.3182
 4501TIP3   OH234917   1.230   4.074  17.058 -0.4587 -0.1411  0.0892
 4501TIP3    H134918   1.183   3.992  17.074  0.4176 -0.7271 -0.2862
 4501TIP3    H234919   1.316   4.061  17.099 -0.1365  0.3913 -0.4079
 4502TIP3   OH234920   3.950   4.273   1.571  0.0359 -0.0338  0.2263
 4502TIP3    H134921   4.019   4.210   1.589  0.7907  0.5059 -0.7643
 4502TIP3    H234922   3.975   4.352   1.619 -0.4138 -0.1645  0.6829
 4503TIP3   OH234923   1.074   3.279   4.956 -0.1444 -0.2428  0.6723
 4503TIP3    H134924   1.165   3.262   4.979  0.1193 -1.7853 -1.3897
 4503TIP3    H234925   1.028   3.197   4.974 -1.4720  1.0291  3.2656
 4504TIP3   OH234926   4.949   5.549   3.152  0.1762 -0.9035  0.7681
 4504TIP3    H134927   4.894   5.471   3.161 -0.4226 -0.7850 -1.6161
 4504TIP3    H234928   4.977   5.548   3.061  2.0709  0.4305  1.3201
 4505TIP3   OH234929   1.660   0.064  16.696 -0.0801  0.4667  0.4929
 4505TIP3    H134930   1.601  -0.011  16.700 -0.8676  1.1221  1.5748
 4505TIP3    H234931   1.603   0.138  16.672  0.7874  0.6137 -1.1579
 4506TIP3   OH234932   3.829   3.491  11.671  0.3520  0.2483 -0.0460
 4506TIP3    H134933   3.860   3.447  11.592  1.0066 -1.9485  1.3544
 4506TIP3    H234934   3.738   3.514  11.652  0.6381  0.1384 -1.5895
 4507TIP3   OH234935   0.705   4.051   4.722 -0.0604 -0.1840  0.2690
 4507TIP3    H134936   0.782   4.022   4.770 -1.0566 -0.3535  1.8097
 4507TIP3    H234937   0.686   4.138   4.757  0.7434  0.8152 -1.7134
 4508TIP3   OH234938   3.717   5.053   3.228 -0.1907  0.6230  0.3615
 4508TIP3    H134939   3.792   5.089   3.275 -0.2949  0.2825  0.7842
 4508TIP3    H234940   3.651   5.037   3.295 -0.3611  0.1863  0.0958
 4509TIP3   OH234941   0.592   2.560  12.153 -0.6317 -0.8199 -0.2584
 4509TIP3    H134942   0.670   2.510  12.127 -0.0663  0.1098 -0.4006
 4509TIP3    H234943   0.524   2.494  12.165  0.1455 -1.6387 -0.2576
 4510TIP3   OH234944   2.240   4.104  13.642 -0.0783 -0.3062  0.2950
 4510TIP3    H134945   2.305   4.174  13.641 -1.4736  0.9891 -0.5299
 4510TIP3    H234946   2.276   4.038  13.583  1.0446 -0.1313  0.7640
 4511TIP3   OH234947   6.665   4.121  13.990  0.1619 -0.5611  0.1598
 4511TIP3    H134948   6.710   4.177  14.053 -1.1047  1.0869 -0.3512
 4511TIP3    H234949   6.676   4.165  13.906 -1.8308 -0.4353 -0.0761
 4512TIP3   OH234950   3.596   1.071   1.646 -0.3367  0.4425 -0.0525
 4512TIP3    H134951   3.668   1.116   1.690  1.1561 -2.3271  0.4340
 4512TIP3    H234952   3.544   1.034   1.718 -1.1735  0.7735 -0.4734
 4513TIP3   OH234953   1.168   3.937   5.397 -0.3782 -0.3075  0.0029
 4513TIP3    H134954   1.109   3.863   5.410 -2.0213  0.3524 -3.0454
 4513TIP3    H234955   1.109   4.011   5.380  1.2900  1.0631  0.0491
 4514TIP3   OH234956   0.318   3.361  11.105 -0.2154  0.3864  0.3956
 4514TIP3    H134957   0.401   3.398  11.073  0.8078  0.2322  2.7441
 4514TIP3    H234958   0.267   3.345  11.026  1.9540  0.5862 -1.0974
 4515TIP3   OH234959   2.676   0.021   3.481  0.6205  0.2682 -0.5579
 4515TIP3    H134960   2.683  -0.058   3.534 -0.2596 -0.0496 -0.9072
 4515TIP3    H234961   2.684  -0.010   3.391 -0.0265  0.5256 -0.7125
 4516TIP3   OH234962   0.723   2.331  15.749  0.1207 -0.1435 -0.3740
 4516TIP3    H134963   0.708   2.359  15.840 -1.0353 -1.3130 -0.1761
 4516TIP3    H234964   0.808   2.288  15.751  1.8456  3.1572 -0.6548
 4517TIP3   OH234965   5.315   6.005   3.494  0.1571  0.0244  0.3296
 4517TIP3    H134966   5.358   6.091   3.490  1.2282 -0.5114  0.0907
 4517TIP3    H234967   5.272   6.005   3.579 -0.6407  1.1617 -0.0532
 4518TIP3   OH234968   6.726   2.793   2.781  0.7552 -0.4045 -0.5345
 4518TIP3    H134969   6.762   2.827   2.863 -2.9269  2.5387  0.0175
 4518TIP3    H234970   6.676   2.716   2.807  0.4955 -0.1186 -0.1856
 4519TIP3   OH234971   1.801   6.047   2.500  0.1235  0.2993  0.0518
 4519TIP3    H134972   1.869   6.115   2.497 -0.7143  1.1660  0.5839
 4519TIP3    H234973   1.754   6.063   2.582  0.0027 -1.0213  0.2615
 4520TIP3   OH234974   0.411   1.021  12.420  0.6607  0.1060 -0.4031
 4520TIP3    H134975   0.490   1.049  12.466  0.5173  3.2953 -1.9302
 4520TIP3    H234976   0.350   1.095  12.430 -1.7146 -1.7964 -0.2569
 4521TIP3   OH234977   4.834   0.734  15.556  0.3257  0.2631 -0.0954
 4521TIP3    H134978   4.887   0.721  15.634 -3.8155  0.8874  2.9984
 4521TIP3    H234979   4.813   0.828  15.556  1.1833  0.5123 -2.6525
 4522TIP3   OH234980   5.821   5.569   1.395 -0.4872  0.0532  0.0547
 4522TIP3    H134981   5.886   5.633   1.364 -0.6441  0.1154 -0.1440
 4522TIP3    H234982   5.750   5.575   1.332 -0.1430 -0.9093 -0.4379
 4523TIP3   OH234983   4.981   3.801  16.726 -0.2842 -0.2306 -0.5127
 4523TIP3    H134984   4.953   3.890  16.705  1.5902  0.6079  0.4677
 4523TIP3    H234985   4.914   3.768  16.786 -0.4911  0.8629 -0.1354
 4524TIP3   OH234986   6.047   3.435  16.977 -0.4629  0.9678 -0.1904
 4524TIP3    H134987   6.003   3.519  16.963  0.9887  2.0495  1.4998
 4524TIP3    H234988   6.038   3.419  17.071 -0.5049 -0.6571 -0.4574
 4525TIP3   OH234989   0.770   0.244  14.663 -0.1527 -0.4744 -0.3302
 4525TIP3    H134990   0.804   0.177  14.722 -0.5879  1.4593  2.1770
 4525TIP3    H234991   0.848   0.286  14.627  0.1113 -0.2743  0.4738
 4526TIP3   OH234992   5.670   0.909   2.953 -0.1533  0.3081  0.5083
 4526TIP3    H134993   5.660   0.844   3.023  0.9988  0.8423  1.1951
 4526TIP3    H234994   5.645   0.991   2.994 -0.8058  0.4185 -0.1159
 4527TIP3   OH234995   1.369   6.210  12.361  0.2840 -0.1213  0.1131
 4527TIP3    H134996   1.311   6.282  12.386 -0.1619 -0.0485 -1.1142
 4527TIP3    H234997   1.326   6.132  12.395 -0.1454  0.0083 -0.1289
 4528TIP3   OH234998   2.928   1.642  16.313  0.1037 -0.0453 -0.2178
 4528TIP3    H134999   2.960   1.562  16.353 -0.6931 -0.2148  0.0935
 4528TIP3    H235000   2.863   1.613  16.249 -0.7247  0.3904  0.4235
 4529TIP3   OH235001   0.500   3.326   2.742 -0.1015  0.5335  0.4307
 4529TIP3    H135002   0.539   3.305   2.826  0.6576  0.8152  0.1490
 4529TIP3    H235003   0.405   3.320   2.757  0.0456 -0.1050  1.1204
 4530TIP3   OH235004   3.546   5.240  16.032  0.1957 -0.5756  0.0231
 4530TIP3    H135005   3.619   5.185  16.059  0.6623 -0.6064 -1.2838
 4530TIP3    H235006   3.470   5.183  16.036  0.5177 -1.0316 -0.3193
 4531TIP3   OH235007   6.658   5.970   1.212 -0.0719  0.0435  0.2032
 4531TIP3    H135008   6.634   5.936   1.126 -0.4654 -1.5099  0.9060
 4531TIP3    H235009   6.703   5.898   1.256  0.9687  1.1272  0.9608
 4532TIP3   OH235010   6.280   2.590   4.294  0.0743  0.0295  0.4161
 4532TIP3    H135011   6.236   2.627   4.218 -0.9833  1.5507  1.7498
 4532TIP3    H235012   6.338   2.660   4.324 -0.3042 -0.1875  1.6474
 4533TIP3   OH235013   6.599   3.516  16.495  0.6492  0.0952 -0.2174
 4533TIP3    H135014   6.641   3.438  16.458  1.0919  0.3031 -0.1531
 4533TIP3    H235015   6.649   3.534  16.575  0.4597  0.3648 -0.1630
 4534TIP3   OH235016   5.982   5.381  16.994 -0.2584 -0.0483  0.6817
 4534TIP3    H135017   6.046   5.436  17.039  0.5612  1.2013 -1.9156
 4534TIP3    H235018   6.018   5.293  17.001  1.0133  0.4412  0.4956
 4535TIP3   OH235019   2.348   0.854   1.498  0.3556 -1.0778  0.7631
 4535TIP3    H135020   2.301   0.864   1.415  1.2746 -1.0980  0.2380
 4535TIP3    H235021   2.278   0.848   1.564 -0.3390  0.9166  0.2264
 4536TIP3   OH235022   3.665   2.890   0.016 -0.5547 -0.0874 -0.2354
 4536TIP3    H135023   3.601   2.938  -0.036 -1.6302 -0.2041  0.9628
 4536TIP3    H235024   3.736   2.871  -0.045 -0.7085  1.8685 -1.0634
 4537TIP3   OH235025   5.396   3.103  13.710  0.3509 -0.6221 -0.4432
 4537TIP3    H135026   5.479   3.089  13.754 -0.1622 -0.1456  0.6919
 4537TIP3    H235027   5.417   3.102  13.617  1.7052  0.0529 -0.1416
 4538TIP3   OH235028   1.091   0.365  15.245 -0.3013 -0.1766  0.0047
 4538TIP3    H135029   1.030   0.382  15.317 -0.2554  0.4364 -0.0931
 4538TIP3    H235030   1.044   0.306  15.186 -0.6995  0.0810  0.0618
 4539TIP3   OH235031   5.568   4.233  12.345 -0.2273 -0.0816  0.5756
 4539TIP3    H135032   5.581   4.161  12.283 -0.4846  0.7229 -0.4297
 4539TIP3    H235033   5.656   4.268  12.360  0.2515 -2.2658  3.1246
 4540TIP3   OH235034   5.793   1.132   4.638 -0.0135 -0.0343 -0.1624
 4540TIP3    H135035   5.865   1.140   4.701 -1.6062  1.1829  1.5584
 4540TIP3    H235036   5.784   1.038   4.625  0.0778 -0.3315  1.7674
 4541TIP3   OH235037   2.502   5.627  11.101 -0.3702  0.5181 -0.4962
 4541TIP3    H135038   2.453   5.660  11.026 -2.5411 -0.7110  0.3140
 4541TIP3    H235039   2.532   5.540  11.074 -0.1565  0.5519 -0.3678
 4542TIP3   OH235040   2.029   6.572   1.636 -0.2302  0.1958  0.2311
 4542TIP3    H135041   1.983   6.656   1.638 -0.9391 -0.1853  0.2165
 4542TIP3    H235042   1.997   6.525   1.713 -1.6587 -0.9889 -1.0421
 4543TIP3   OH235043   3.918   5.122  10.917  0.2565 -0.3092  0.8473
 4543TIP3    H135044   3.861   5.130  10.840 -0.4497 -0.4450  1.3551
 4543TIP3    H235045   4.007   5.125  10.881 -0.0690 -0.3432  0.0274
 4544TIP3   OH235046   4.415   6.576   3.440  1.0217  0.7017  0.1746
 4544TIP3    H135047   4.368   6.659   3.431  0.9107  0.4935 -1.3913
 4544TIP3    H235048   4.384   6.539   3.523  1.0579  2.2043  0.8698
 4545TIP3   OH235049   5.470   5.880   0.669  0.5966  0.1049 -0.0495
 4545TIP3    H135050   5.560   5.859   0.646  0.9426  0.2018  1.1486
 4545TIP3    H235051   5.469   5.876   0.765 -0.6266  0.2768 -0.0504
 4546TIP3   OH235052   6.389   0.504   5.570 -0.1338  0.7512 -0.4622
 4546TIP3    H135053   6.305   0.536   5.536  0.5537  2.8081 -0.3016
 4546TIP3    H235054   6.434   0.583   5.600  1.9324 -0.3242 -0.6828
 4547TIP3   OH235055   0.850   3.706  14.794 -0.0482 -0.1747 -0.1480
 4547TIP3    H135056   0.944   3.705  14.815  0.1636 -0.6018 -1.1113
 4547TIP3    H235057   0.810   3.751  14.869  1.0379  0.8449 -0.1602
 4548TIP3   OH235058   4.866   4.278   3.256  0.5376 -0.0057  0.2491
 4548TIP3    H135059   4.862   4.356   3.312 -2.2115 -0.3311  0.5632
 4548TIP3    H235060   4.809   4.298   3.182  0.3625 -1.4514 -0.0180
 4549TIP3   OH235061   2.504   3.571   2.739 -0.2160  0.1689 -0.3747
 4549TIP3    H135062   2.584   3.519   2.745  0.5442  1.3284 -0.2502
 4549TIP3    H235063   2.515   3.623   2.659  0.4961  2.4837  1.1626
 4550TIP3   OH235064   6.288   5.475   6.022 -0.3357  0.4959 -0.0201
 4550TIP3    H135065   6.366   5.448   6.070  0.4431  1.8101 -0.5166
 4550TIP3    H235066   6.321   5.503   5.937 -1.3578  1.0281 -0.2520
 4551TIP3   OH235067   5.707   6.478  17.092 -0.2163  0.3497  0.0657
 4551TIP3    H135068   5.665   6.392  17.092 -0.2593  0.3693  0.2640
 4551TIP3    H235069   5.761   6.479  17.014 -0.7884  0.4191 -0.3394
 4552TIP3   OH235070   3.316   4.677  11.019 -0.9863  0.0735 -0.6803
 4552TIP3    H135071   3.231   4.683  11.062 -0.1848 -2.2104  1.3794
 4552TIP3    H235072   3.370   4.742  11.064 -1.1748  0.3547 -0.8562
 4553TIP3   OH235073   6.604   0.924  11.920 -0.2735  0.3573 -0.3180
 4553TIP3    H135074   6.512   0.906  11.898 -0.3458  0.4945 -0.1238
 4553TIP3    H235075   6.627   0.854  11.981 -0.3688  0.5596 -0.0508
 4554TIP3   OH235076   1.553   2.896  11.801 -0.4195  0.4489 -0.0452
 4554TIP3    H135077   1.581   2.966  11.859  0.2977  0.6291 -0.6051
 4554TIP3    H235078   1.633   2.865  11.759 -0.7801 -0.4439 -0.0905
 4555TIP3   OH235079   1.417   2.508   4.783 -0.1270 -0.4603 -0.0291
 4555TIP3    H135080   1.329   2.480   4.757  0.3480 -1.8322 -0.2358
 4555TIP3    H235081   1.443   2.444   4.850  1.5403 -1.3606 -1.5084
 4556TIP3   OH235082   3.144   2.757  12.524 -0.0114 -0.2843  0.3023
 4556TIP3    H135083   3.158   2.752  12.618  3.5191  0.1867 -0.1235
 4556TIP3    H235084   3.194   2.833  12.496 -0.7365 -0.6045 -1.9924
 4557TIP3   OH235085   1.162   3.611   3.967  0.3654 -0.1355  0.1449
 4557TIP3    H135086   1.138   3.703   3.961 -1.0445 -0.5468 -0.8635
 4557TIP3    H235087   1.203   3.591   3.883  0.0741 -0.5903  0.1107
 4558TIP3   OH235088   5.177   3.576  14.496 -0.0595 -0.4064  0.2038
 4558TIP3    H135089   5.205   3.658  14.457  0.5929 -0.9890 -0.5775
 4558TIP3    H235090   5.188   3.589  14.590 -2.1610  1.2038  0.2712
 4559TIP3   OH235091   5.673   2.121   3.615 -0.4442  0.1411 -0.4527
 4559TIP3    H135092   5.701   2.067   3.541  0.2343  0.6310 -0.5502
 4559TIP3    H235093   5.740   2.188   3.623 -0.0626 -0.3964  1.1418
 4560TIP3   OH235094   1.375   2.937  12.174 -0.7003  0.1112 -0.8674
 4560TIP3    H135095   1.380   2.958  12.081 -0.5918  1.2024 -0.6179
 4560TIP3    H235096   1.311   2.998  12.210 -0.9708 -0.5038 -0.2738
 4561TIP3   OH235097   6.065   4.531   2.242  0.5561  0.1797 -0.0043
 4561TIP3    H135098   6.085   4.615   2.201 -1.1715  0.7265  0.2405
 4561TIP3    H235099   6.150   4.492   2.260  1.3717  1.8077 -0.2811
 4562TIP3   OH235100   1.206   4.674   5.083  0.3547  0.4310 -0.2854
 4562TIP3    H135101   1.163   4.658   5.000  2.3899 -0.4569 -1.2135
 4562TIP3    H235102   1.140   4.652   5.149 -1.7090  2.4144 -1.6291
 4563TIP3   OH235103   5.264   5.639  15.394 -0.1510 -0.0135 -0.6245
 4563TIP3    H135104   5.306   5.710  15.442  3.0144 -1.7734 -0.6725
 4563TIP3    H235105   5.258   5.567  15.456 -1.4876 -0.3569 -1.1400
 4564TIP3   OH235106   1.025   1.252   5.449  0.1905  0.2570  0.3168
 4564TIP3    H135107   1.080   1.174   5.437  0.6443  0.4556  1.0628
 4564TIP3    H235108   1.050   1.310   5.377 -2.4744 -1.5814 -2.2065
 4565TIP3   OH235109   3.690   6.554  14.920  0.1312  0.0024 -0.3259
 4565TIP3    H135110   3.708   6.461  14.911  2.3814  0.1352  2.2439
 4565TIP3    H235111   3.595   6.561  14.907 -0.3786 -2.9193  1.3556
 4566TIP3   OH235112   0.483   3.503   1.784 -0.6593  0.0537  0.6315
 4566TIP3    H135113   0.423   3.529   1.854 -0.9686  0.6558  0.1516
 4566TIP3    H235114   0.487   3.408   1.789 -2.5369 -0.0917 -0.0310
 4567TIP3   OH235115   1.105   3.175   5.824 -0.0552  0.6226  0.0232
 4567TIP3    H135116   1.047   3.209   5.893  0.6650  0.0059  0.9533
 4567TIP3    H235117   1.048   3.165   5.748 -0.8413  1.4417  0.4850
 4568TIP3   OH235118   0.795   0.509  15.351 -0.0683  0.2952  0.0016
 4568TIP3    H135119   0.811   0.603  15.339  0.0660  0.2983  0.2061
 4568TIP3    H235120   0.773   0.477  15.263  2.7397 -0.0173 -0.6528
 4569TIP3   OH235121   2.413   4.976  13.424 -0.0792  0.4192  0.6236
 4569TIP3    H135122   2.470   5.015  13.490 -0.1939 -1.3074  1.7417
 4569TIP3    H235123   2.444   4.886  13.414 -1.6653 -0.0954  0.1648
 4570TIP3   OH235124   4.703   4.162  17.179 -0.5605 -0.5160  0.7489
 4570TIP3    H135125   4.754   4.111  17.115 -1.4779 -0.3339 -0.1371
 4570TIP3    H235126   4.744   4.142  17.263 -0.7535 -2.5232  0.3819
 4571TIP3   OH235127   4.901   1.413   3.907  0.2543  0.1693 -0.0866
 4571TIP3    H135128   4.842   1.344   3.878  0.2828  0.1054  0.0088
 4571TIP3    H235129   4.985   1.370   3.918  0.6739  0.5511 -1.6370
 4572TIP3   OH235130   5.863   3.000  11.591  0.0800 -0.5040 -0.2128
 4572TIP3    H135131   5.788   3.052  11.622  2.0533  1.2313  1.8780
 4572TIP3    H235132   5.937   3.060  11.596  2.6348 -3.6867  3.0634
 4573TIP3   OH235133   3.021   6.731  15.929  0.1446  0.0640  0.1355
 4573TIP3    H135134   2.935   6.711  15.891  0.9806 -1.5382 -0.9603
 4573TIP3    H235135   3.055   6.646  15.957  1.7869  0.5577 -0.3164
 4574TIP3   OH235136   2.096   6.204  12.294  0.2877  0.5919 -0.2290
 4574TIP3    H135137   2.007   6.198  12.330  1.3899  0.9222  2.6012
 4574TIP3    H235138   2.087   6.267  12.222 -1.7908  0.5696 -0.0311
 4575TIP3   OH235139   0.469   1.472  16.186  0.5520  0.9104  0.1111
 4575TIP3    H135140   0.463   1.423  16.103 -1.6762  1.1158  0.1233
 4575TIP3    H235141   0.497   1.560  16.160 -3.1751  1.8959 -0.8299
 4576TIP3   OH235142   3.683   4.551  14.666 -0.1356  0.5217 -0.5373
 4576TIP3    H135143   3.630   4.622  14.702  0.6245  0.1863  1.2771
 4576TIP3    H235144   3.638   4.528  14.584 -1.7817  1.4220  0.0768
 4577TIP3   OH235145   2.940   1.831   4.018  0.6353 -0.3885 -0.2791
 4577TIP3    H135146   2.864   1.863   3.968  1.1365  0.8697 -0.2696
 4577TIP3    H235147   2.904   1.764   4.075 -0.4233 -0.0398 -0.5172
 4578TIP3   OH235148   4.406   1.002  13.119 -0.2421 -0.1984  0.1363
 4578TIP3    H135149   4.436   1.044  13.200 -1.2909  0.1409  0.3520
 4578TIP3    H235150   4.484   0.958  13.085  0.0248 -1.0216  1.7396
 4579TIP3   OH235151   3.666   1.876   1.344 -0.2631 -0.2364  0.2900
 4579TIP3    H135152   3.630   1.870   1.256 -1.5187  0.3553  0.7529
 4579TIP3    H235153   3.720   1.798   1.353 -0.5814 -0.5928 -0.7944
 4580TIP3   OH235154   2.752   0.193  14.605 -0.7080  0.3367 -0.2890
 4580TIP3    H135155   2.812   0.253  14.649 -0.6360  1.4162 -1.8160
 4580TIP3    H235156   2.667   0.209  14.646 -0.4884  0.7965 -0.0142
 4581TIP3   OH235157   3.676   0.396  15.419 -0.6341 -0.5088 -0.4388
 4581TIP3    H135158   3.623   0.424  15.344  0.7180  1.6637 -0.6110
 4581TIP3    H235159   3.764   0.384  15.383 -0.5095 -1.9141  0.3067
 4582TIP3   OH235160   4.363   3.984   4.249  0.1324  0.0912  0.0005
 4582TIP3    H135161   4.339   3.986   4.156  0.5665  1.6409 -0.0898
 4582TIP3    H235162   4.280   3.982   4.296 -0.1616  2.7552 -0.3567
 4583TIP3   OH235163   2.525   0.169   0.932  0.1041 -0.2165  0.1984
 4583TIP3    H135164   2.536   0.077   0.908 -0.3817 -0.0563 -0.6478
 4583TIP3    H235165   2.475   0.207   0.860 -1.2738  0.3009  1.3930
 4584TIP3   OH235166   0.278   4.240   4.818 -0.1060  0.3034 -0.0504
 4584TIP3    H135167   0.211   4.275   4.760  0.5707  0.4988 -0.7169
 4584TIP3    H235168   0.296   4.152   4.785 -1.0937 -0.3225  1.0281
 4585TIP3   OH235169   0.038   5.755  15.584  0.2906 -0.5021  0.3632
 4585TIP3    H135170  -0.018   5.724  15.655  0.1916 -1.8249 -0.2866
 4585TIP3    H235171  -0.019   5.759  15.508  0.8508 -0.9874 -0.0917
 4586TIP3   OH235172   1.785   1.775   4.800  0.3268 -0.0002 -0.1827
 4586TIP3    H135173   1.872   1.780   4.760  0.4063  0.4479  0.0434
 4586TIP3    H235174   1.766   1.865   4.827 -0.2910 -0.0593 -0.4099
 4587TIP3   OH235175   4.289   5.303   1.833 -0.0299 -0.3242  0.1057
 4587TIP3    H135176   4.240   5.322   1.752 -0.9240 -1.6663  0.3196
 4587TIP3    H235177   4.327   5.388   1.858 -0.9651  0.4178 -0.9186
 4588TIP3   OH235178   0.643   3.078   3.394 -0.5751  0.5097 -0.5288
 4588TIP3    H135179   0.608   3.111   3.476  0.7565 -0.3554  0.4069
 4588TIP3    H235180   0.617   2.986   3.392  0.8926  0.0651 -0.2073
 4589TIP3   OH235181   4.143   2.619  13.837 -0.3784 -0.2085  0.1561
 4589TIP3    H135182   4.221   2.660  13.875  0.5215  0.4155 -2.3043
 4589TIP3    H235183   4.095   2.692  13.798 -1.2967 -0.8385  0.1192
 4590TIP3   OH235184   4.592   3.915  15.616 -0.0257  0.1019  0.2181
 4590TIP3    H135185   4.532   3.980  15.580 -1.2669 -1.2139 -0.1754
 4590TIP3    H235186   4.627   3.870  15.539 -0.3183 -0.6689  0.5314
 4591TIP3   OH235187   4.450   6.584  16.957 -0.7520  0.2618 -0.2991
 4591TIP3    H135188   4.386   6.595  17.027 -0.1478  0.0406  0.2876
 4591TIP3    H235189   4.479   6.493  16.964  0.3134  0.6228  0.0334
 4592TIP3   OH235190   3.417   1.470   5.692  0.5217  0.1232 -0.4436
 4592TIP3    H135191   3.458   1.450   5.607  2.8042  2.1693  0.0999
 4592TIP3    H235192   3.455   1.406   5.752  0.8189  0.2372 -0.5052
 4593TIP3   OH235193   6.594   3.540   4.237  0.1096  0.2023  0.1492
 4593TIP3    H135194   6.638   3.565   4.318  2.2903  0.6588 -1.1372
 4593TIP3    H235195   6.584   3.623   4.189  2.0679 -0.5243 -1.5834
 4594TIP3   OH235196   2.456   3.858   2.678 -0.1750  0.0494  0.2452
 4594TIP3    H135197   2.536   3.825   2.637 -0.2899 -0.6077  0.5399
 4594TIP3    H235198   2.414   3.912   2.610  2.1479  3.1172  1.1573
 4595TIP3   OH235199   0.336   1.970  16.384 -0.0489 -0.5053 -0.0201
 4595TIP3    H135200   0.410   1.974  16.324 -0.4450 -1.3581 -0.5635
 4595TIP3    H235201   0.339   2.054  16.430  0.9337 -0.3146 -0.4133
 4596TIP3   OH235202   4.199   3.287  15.873 -0.2144 -0.4345  0.0686
 4596TIP3    H135203   4.267   3.335  15.920  1.0925 -1.8377 -0.3463
 4596TIP3    H235204   4.246   3.241  15.804 -1.8290 -0.1297 -1.2466
 4597TIP3   OH235205   1.349   6.534  13.210  0.4351  0.3902 -0.3112
 4597TIP3    H135206   1.392   6.455  13.244  0.7256  0.4186 -0.6152
 4597TIP3    H235207   1.256   6.514  13.215  0.4634  0.4731  0.7047
 4598TIP3   OH235208   0.850   3.450   3.445  0.4533 -0.0683  0.0315
 4598TIP3    H135209   0.762   3.415   3.459  0.4775 -0.8598 -1.5969
 4598TIP3    H235210   0.884   3.466   3.533 -1.6271  1.0596  0.6532
 4599TIP3   OH235211   6.652   3.133  12.788 -0.6487 -0.1217  0.3462
 4599TIP3    H135212   6.685   3.075  12.856  0.8226  0.0173 -0.2257
 4599TIP3    H235213   6.725   3.192  12.769 -1.7212  1.1395  0.0749
 4600TIP3   OH235214   6.290   3.163   0.991  0.5151  1.2065  0.3901
 4600TIP3    H135215   6.312   3.171   0.898  1.3461  2.8991  0.7057
 4600TIP3    H235216   6.341   3.087   1.021 -0.6189 -0.0285 -0.7683
 4601TIP3   OH235217   5.336   0.420  13.208  0.1801 -0.5181  0.0916
 4601TIP3    H135218   5.306   0.366  13.281 -0.3905  0.5706  0.6914
 4601TIP3    H235219   5.415   0.463  13.241  0.4871 -0.7970 -0.2862
 4602TIP3   OH235220   2.226   0.901  16.928  0.1306 -0.3976 -0.4133
 4602TIP3    H135221   2.223   0.894  17.024  0.4096  0.9323 -0.3025
 4602TIP3    H235222   2.316   0.880  16.905  0.4484  0.7866 -0.2555
 4603TIP3   OH235223   3.752   2.451  11.619  0.1531 -0.0863 -0.0685
 4603TIP3    H135224   3.838   2.418  11.593  0.5379 -0.0097  1.0978
 4603TIP3    H235225   3.760   2.468  11.713 -0.7721  1.0695 -0.1949
 4604TIP3   OH235226   5.234   2.774  12.970  0.1793  0.2378  0.0477
 4604TIP3    H135227   5.231   2.868  12.990 -0.7619  0.2790 -0.2825
 4604TIP3    H235228   5.223   2.732  13.055  0.2532  0.4247  0.1514
 4605TIP3   OH235229   2.429   5.898  13.407  1.0768 -0.3476  0.5704
 4605TIP3    H135230   2.353   5.867  13.359  0.5822  1.5750  0.0802
 4605TIP3    H235231   2.406   5.885  13.499 -0.2118  0.9745  0.4643
 4606TIP3   OH235232   4.781   0.466  10.827  0.1585 -0.1545 -0.1610
 4606TIP3    H135233   4.811   0.423  10.907  0.9764  0.3809 -0.1755
 4606TIP3    H235234   4.748   0.551  10.856 -1.2319 -0.6789 -0.1639
 4607TIP3   OH235235   1.407   3.014  16.172 -0.1504  0.1715 -0.1122
 4607TIP3    H135236   1.489   2.999  16.124  0.9534 -0.2497  1.8557
 4607TIP3    H235237   1.347   3.050  16.106  2.2293  2.3914 -1.1327
 4608TIP3   OH235238   6.718   2.893   3.036 -0.9179  0.0591 -0.6219
 4608TIP3    H135239   6.625   2.906   3.015 -1.2972 -1.4392  0.0450
 4608TIP3    H235240   6.718   2.827   3.106  0.6868 -0.4434 -1.0678
 4609TIP3   OH235241   1.779   2.585   2.621 -0.0647 -0.5470 -0.1023
 4609TIP3    H135242   1.706   2.552   2.673 -0.3006 -0.5598 -0.4448
 4609TIP3    H235243   1.845   2.610   2.686 -0.2557 -0.8084  0.1943
 4610TIP3   OH235244   6.220   3.261  16.866  0.1948 -0.0761  0.0554
 4610TIP3    H135245   6.300   3.250  16.917  0.4236  0.9598 -0.0571
 4610TIP3    H235246   6.178   3.339  16.902 -1.8774 -1.8108  1.5210
 4611TIP3   OH235247   3.067   3.221   0.910 -0.3747 -0.0274  0.0167
 4611TIP3    H135248   2.990   3.202   0.963 -0.3038  1.1127  0.5502
 4611TIP3    H235249   3.046   3.303   0.865  0.3093  0.0121 -0.2410
 4612TIP3   OH235250   0.161   4.472   2.701  0.7373  0.1443 -0.4433
 4612TIP3    H135251   0.118   4.410   2.761 -0.0121  0.7234 -0.3638
 4612TIP3    H235252   0.220   4.418   2.649 -1.2507 -0.9451 -1.6244
 4613TIP3   OH235253   0.306   5.366   5.832 -0.6024 -0.4346  0.6896
 4613TIP3    H135254   0.328   5.402   5.746  0.0876 -3.1584 -0.3147
 4613TIP3    H235255   0.386   5.377   5.884  0.0185 -1.6333 -0.0016
 4614TIP3   OH235256   4.239   3.036  12.528 -0.0818 -0.0870 -0.3466
 4614TIP3    H135257   4.212   2.982  12.603  0.5072  0.8102  0.5310
 4614TIP3    H235258   4.297   2.980  12.477 -0.5809 -0.7501 -0.1904
 4615TIP3   OH235259   6.278   3.025   5.278  0.2500 -0.4129  0.5105
 4615TIP3    H135260   6.214   3.011   5.347 -1.3469 -0.4997 -0.9592
 4615TIP3    H235261   6.318   3.110   5.299 -0.9069  0.0194  0.9834
 4616TIP3   OH235262   4.514   1.956   1.801  0.1521  0.0326 -0.8182
 4616TIP3    H135263   4.528   1.894   1.729  1.0095  0.2711 -0.8658
 4616TIP3    H235264   4.441   2.010   1.772 -0.8775 -1.2146 -0.5949
 4617TIP3   OH235265   2.443   6.200   4.109  0.2005 -0.2903  0.8058
 4617TIP3    H135266   2.533   6.202   4.142  0.6300 -1.2668 -0.2653
 4617TIP3    H235267   2.389   6.192   4.187  0.9098  2.5710  1.6303
 4618TIP3   OH235268   4.107   3.905   5.933 -0.3890  0.0357 -0.0744
 4618TIP3    H135269   4.025   3.954   5.928  0.2752  1.2926  0.8508
 4618TIP3    H235270   4.091   3.838   6.000 -0.5531  0.5178  0.3749
 4619TIP3   OH235271   5.137   1.158   2.554 -0.1433  0.0034 -0.1020
 4619TIP3    H135272   5.176   1.086   2.505 -0.9101  0.0668 -0.8175
 4619TIP3    H235273   5.164   1.237   2.506  1.8140  0.3261  1.4259
 4620TIP3   OH235274   6.565   0.896   4.606 -0.4332  0.0371 -0.5912
 4620TIP3    H135275   6.615   0.878   4.527  1.8978  0.0552  0.8324
 4620TIP3    H235276   6.591   0.985   4.631 -0.7751 -0.1449  0.4569
 4621TIP3   OH235277   6.136   5.132  12.848  0.9550  0.1325 -0.1279
 4621TIP3    H135278   6.217   5.115  12.801  0.4330 -0.7735 -0.7173
 4621TIP3    H235279   6.086   5.050  12.841 -0.1159  0.7636 -0.0058
 4622TIP3   OH235280   3.980   6.009  13.164 -0.0987 -0.2000  0.2306
 4622TIP3    H135281   3.981   5.913  13.174 -1.3748 -0.3236 -0.7979
 4622TIP3    H235282   3.888   6.032  13.156  0.3507  0.7500 -2.9109
 4623TIP3   OH235283   0.087   3.269   4.490  0.4822 -0.3056 -0.3162
 4623TIP3    H135284   0.145   3.286   4.415 -1.0013  1.9639 -0.9742
 4623TIP3    H235285   0.004   3.244   4.451 -0.4512  1.3789  0.5628
 4624TIP3   OH235286   6.046   3.623  14.372  0.5329 -0.7285 -0.0344
 4624TIP3    H135287   6.000   3.584  14.447  0.4084  1.6669  1.1928
 4624TIP3    H235288   6.071   3.711  14.403 -1.2875  1.0773 -3.4607
 4625TIP3   OH235289   1.610   4.952   5.811 -0.0768 -0.2556 -0.0758
 4625TIP3    H135290   1.641   4.923   5.897 -0.6305 -1.5100 -0.2816
 4625TIP3    H235291   1.689   4.965   5.759  0.2142 -0.8860  0.1990
 4626TIP3   OH235292   6.161   5.098   1.056 -0.1492  0.0653  0.1929
 4626TIP3    H135293   6.084   5.096   1.112 -1.7173  1.0858 -1.8780
 4626TIP3    H235294   6.214   5.024   1.086 -2.2037 -1.0144  1.2451
 4627TIP3   OH235295   4.692   0.717  12.832  0.3391 -0.1450 -0.5395
 4627TIP3    H135296   4.642   0.785  12.787  1.3260 -1.1688 -3.3422
 4627TIP3    H235297   4.759   0.763  12.881 -1.2039  1.0619  0.4617
 4628TIP3   OH235298   4.235   2.014   3.095  0.0588  0.1132  0.0229
 4628TIP3    H135299   4.306   2.011   3.030  1.2656 -0.5737  1.3338
 4628TIP3    H235300   4.238   2.103   3.130  0.7877 -0.1225  0.5953
 4629TIP3   OH235301   2.270   5.196   5.329 -0.1986  0.0871  0.3519
 4629TIP3    H135302   2.201   5.135   5.355  0.0037 -0.9331 -1.4488
 4629TIP3    H235303   2.254   5.212   5.236  1.3025  0.7725  0.2061
 4630TIP3   OH235304   1.452   2.209  14.617  0.3468 -0.4644  0.0598
 4630TIP3    H135305   1.414   2.272  14.678  0.7954  0.4259 -0.5710
 4630TIP3    H235306   1.503   2.262  14.556 -1.2679 -1.2045 -1.9768
 4631TIP3   OH235307   0.688   2.352  15.111  0.0444 -0.2063 -0.2413
 4631TIP3    H135308   0.671   2.376  15.202  0.5756  1.4772 -0.5659
 4631TIP3    H235309   0.624   2.402  15.061  1.8354  1.3459 -1.0131
 4632TIP3   OH235310   1.837   4.839   3.661  0.2786  0.0543  0.3847
 4632TIP3    H135311   1.755   4.883   3.640 -0.2789 -1.3877 -0.6055
 4632TIP3    H235312   1.895   4.908   3.694  0.5205  2.1972 -4.0913
 4633TIP3   OH235313   5.428   6.170   5.035  0.1989 -0.4584  0.3518
 4633TIP3    H135314   5.516   6.177   5.073  0.1394 -1.6719  0.7441
 4633TIP3    H235315   5.394   6.259   5.035  1.0915 -0.1144  1.0263
 4634TIP3   OH235316   0.221   4.993   4.961  0.3501 -0.2027  0.1343
 4634TIP3    H135317   0.235   5.009   5.055 -0.2037 -2.1994  0.5789
 4634TIP3    H235318   0.174   4.910   4.958 -0.7373  0.4669 -1.8761
 4635TIP3   OH235319   0.244   0.645   2.841  0.2091 -0.4407 -0.5210
 4635TIP3    H135320   0.308   0.594   2.890  2.3266  0.0442 -2.6638
 4635TIP3    H235321   0.241   0.729   2.886  0.2770 -0.8290  0.2218
 4636TIP3   OH235322   1.674   3.278  15.058 -0.3964 -0.1140 -0.6310
 4636TIP3    H135323   1.708   3.193  15.087 -0.9571  0.4697  1.8540
 4636TIP3    H235324   1.580   3.273  15.076 -0.3761  1.1569 -0.1875
 4637TIP3   OH235325   4.740   1.688   1.356  0.3932  0.1477  0.1609
 4637TIP3    H135326   4.750   1.638   1.275 -0.9443 -1.5451  1.0049
 4637TIP3    H235327   4.736   1.779   1.328  1.3884 -0.3235 -1.5477
 4638TIP3   OH235328   0.450   6.529   0.789  0.1795  0.8033  0.1151
 4638TIP3    H135329   0.545   6.531   0.790  0.2158 -0.3723 -0.4406
 4638TIP3    H235330   0.426   6.544   0.698 -0.1337 -0.1970  0.0344
 4639TIP3   OH235331   0.488   3.824  11.492 -0.3244  0.0337 -0.2040
 4639TIP3    H135332   0.394   3.815  11.481 -0.0864 -2.5297 -0.4820
 4639TIP3    H235333   0.521   3.734  11.493  1.8533  0.7924  2.1761
 4640TIP3   OH235334   3.026   2.789  11.985 -0.7783  0.2503  0.3268
 4640TIP3    H135335   2.979   2.837  11.917  1.2259 -0.7968 -1.8376
 4640TIP3    H235336   3.108   2.836  11.996 -1.0523  0.3752  2.0204
 4641TIP3   OH235337   2.502   0.394  13.164 -0.4847 -0.3674 -0.5317
 4641TIP3    H135338   2.572   0.451  13.131 -0.8831  0.4369 -0.0141
 4641TIP3    H235339   2.464   0.353  13.086  0.3978 -0.6191 -0.8348
 4642TIP3   OH235340   3.802   0.603  12.514 -0.0881  0.0607  0.8627
 4642TIP3    H135341   3.882   0.607  12.566  0.1742 -3.1329  0.8364
 4642TIP3    H235342   3.780   0.510  12.510 -4.0049  0.8631  1.1253
 4643TIP3   OH235343   4.828   1.804  13.841  0.0338  0.0344 -0.0174
 4643TIP3    H135344   4.899   1.743  13.820 -0.8337 -1.2520  0.7063
 4643TIP3    H235345   4.855   1.847  13.922 -0.5167 -1.3025  0.8935
 4644TIP3   OH235346   6.162   2.770   1.609  0.3801  0.1284  0.0444
 4644TIP3    H135347   6.104   2.764   1.532  1.0513 -1.1775 -0.3791
 4644TIP3    H235348   6.114   2.825   1.671 -2.2318 -2.5727  0.5149
 4645TIP3   OH235349   4.822   6.595   3.210  0.8534  0.3786  0.2486
 4645TIP3    H135350   4.899   6.629   3.255  0.8963  1.5173 -0.6544
 4645TIP3    H235351   4.852   6.580   3.120  0.2216  0.1167  0.0819
 4646TIP3   OH235352   2.224   5.783  13.247 -0.5071  0.2574 -0.4710
 4646TIP3    H135353   2.232   5.839  13.169  1.1033  0.5277 -0.1351
 4646TIP3    H235354   2.263   5.700  13.222  0.5456  0.5293  0.2054
 4647TIP3   OH235355   3.652   1.729  12.625 -0.3898  0.4602  0.0696
 4647TIP3    H135356   3.569   1.686  12.601 -0.5223  0.9773 -0.4138
 4647TIP3    H235357   3.631   1.822  12.623  0.5345  0.6358 -1.2588
 4648TIP3   OH235358   0.180   0.665  13.115 -0.2277  0.1764 -0.1396
 4648TIP3    H135359   0.086   0.654  13.098  0.3813 -2.7152 -1.9989
 4648TIP3    H235360   0.219   0.674  13.028  1.4404 -0.9792  0.4686
 4649TIP3   OH235361   2.071   5.442   0.830 -0.1508 -0.2836  0.4225
 4649TIP3    H135362   2.057   5.534   0.854  2.1403  0.2297 -0.1034
 4649TIP3    H235363   2.111   5.403   0.908  3.8119  0.4852 -1.1031
 4650TIP3   OH235364   2.310   2.944   1.760  0.3810 -0.1198 -0.5856
 4650TIP3    H135365   2.286   2.932   1.668  0.5015 -0.2574 -0.5988
 4650TIP3    H235366   2.391   2.995   1.757  0.1222  0.2995 -0.5420
 4651TIP3   OH235367   4.847   0.451   2.479  0.4906 -0.4506 -0.8741
 4651TIP3    H135368   4.848   0.499   2.396 -0.1402 -1.4949 -1.5108
 4651TIP3    H235369   4.939   0.446   2.505  0.6166  0.5360 -1.1257
 4652TIP3   OH235370   6.739   4.496   0.865 -0.1876 -0.2730 -0.2098
 4652TIP3    H135371   6.739   4.403   0.843 -0.5342 -0.1893 -0.5599
 4652TIP3    H235372   6.649   4.525   0.849  0.0686  0.2603 -0.6819
 4653TIP3   OH235373   4.010   6.397  14.310  0.0063 -0.2441  0.5598
 4653TIP3    H135374   3.978   6.369  14.396  0.6138 -0.6455  0.6629
 4653TIP3    H235375   3.931   6.413  14.259 -0.3612  0.0522  1.2094
 4654TIP3   OH235376   2.838   3.316   4.721 -1.1339  0.0047  0.3146
 4654TIP3    H135377   2.768   3.325   4.785 -0.6852  0.0564  0.8103
 4654TIP3    H235378   2.854   3.405   4.691 -2.0289 -0.1448 -0.6226
 4655TIP3   OH235379   2.938   2.866  12.996 -0.6204 -0.0486  0.5251
 4655TIP3    H135380   2.930   2.822  13.081 -0.3346  1.5022  1.3978
 4655TIP3    H235381   2.899   2.952  13.011  1.7441  1.1918 -0.1535
 4656TIP3   OH235382   4.594   0.780  15.830  0.1578  0.1983  0.5658
 4656TIP3    H135383   4.596   0.803  15.738 -2.6066 -1.1156  0.1180
 4656TIP3    H235384   4.685   0.766  15.854  0.7623 -1.2953 -2.4723
 4657TIP3   OH235385   5.179   6.206  11.555 -0.0692  0.0215  0.2659
 4657TIP3    H135386   5.241   6.252  11.612  0.9530 -1.1046  0.0868
 4657TIP3    H235387   5.220   6.208  11.469 -0.8766  0.3470 -0.1099
 4658TIP3   OH235388   3.971   0.625  14.840  0.1735  0.3456  0.0314
 4658TIP3    H135389   3.985   0.531  14.856  0.2124  0.3973  0.2981
 4658TIP3    H235390   3.878   0.638  14.860 -0.4462 -0.1299 -2.3590
 4659TIP3   OH235391   4.690   2.194   0.134 -0.2747 -0.0194 -0.5362
 4659TIP3    H135392   4.785   2.191   0.139 -0.3074 -1.9200 -0.4549
 4659TIP3    H235393   4.663   2.102   0.131 -2.1064  0.4831 -0.5554
 4660TIP3   OH235394   0.983   4.971  13.356  0.4653  0.9930 -0.2848
 4660TIP3    H135395   0.958   5.055  13.318 -0.3489  0.5046 -0.8462
 4660TIP3    H235396   0.976   4.909  13.283 -0.2157  0.2073  0.4366
 4661TIP3   OH235397   5.760   1.368   4.379 -0.1055 -0.2500 -0.5116
 4661TIP3    H135398   5.717   1.310   4.442 -0.6744 -0.7253 -1.3253
 4661TIP3    H235399   5.708   1.448   4.381 -0.3807 -0.4242 -0.6953
 4662TIP3   OH235400   5.064   6.655   1.066  0.3429  0.1071 -0.1033
 4662TIP3    H135401   5.044   6.612   0.983  1.5121  2.1695 -1.5071
 4662TIP3    H235402   5.001   6.727   1.072  1.0413  0.6918  0.2356
 4663TIP3   OH235403   1.217   5.709  17.099 -0.1777 -0.8534 -0.5877
 4663TIP3    H135404   1.260   5.793  17.108 -0.8462 -0.5871  0.1424
 4663TIP3    H235405   1.171   5.715  17.015  0.1634 -0.6699 -0.7619
 4664TIP3   OH235406   4.686   5.399   4.734 -0.1856 -0.6777 -0.1204
 4664TIP3    H135407   4.644   5.315   4.754 -2.6303  0.7595  0.9727
 4664TIP3    H235408   4.712   5.434   4.819  0.2963 -0.0609 -0.5157
 4665TIP3   OH235409   2.580   0.777   4.721  0.4882  0.2950 -0.6141
 4665TIP3    H135410   2.560   0.798   4.813  0.0720  2.2229 -1.1384
 4665TIP3    H235411   2.499   0.737   4.688  0.2523  0.6356 -0.4521
 4666TIP3   OH235412   3.731   3.537  13.585 -0.3146 -0.1940  0.3474
 4666TIP3    H135413   3.649   3.564  13.627 -0.6841 -1.7040  0.6264
 4666TIP3    H235414   3.705   3.500  13.501 -0.0287 -1.7128  0.9179
 4667TIP3   OH235415   1.279   0.290  16.752 -0.3691  0.3359 -0.2425
 4667TIP3    H135416   1.196   0.261  16.790 -0.4478  0.9145  0.0459
 4667TIP3    H235417   1.278   0.258  16.662 -0.6903 -0.0753 -0.0908
 4668TIP3   OH235418   1.991   5.707   0.894 -0.1030 -0.3735 -0.2669
 4668TIP3    H135419   2.075   5.754   0.889 -1.0441  1.2302 -1.5724
 4668TIP3    H235420   1.945   5.748   0.967  0.2790 -1.3198  0.5120
 4669TIP3   OH235421   0.311   6.540  13.808 -0.0662  0.3073 -0.1132
 4669TIP3    H135422   0.340   6.464  13.757  1.2146 -0.0026  1.0749
 4669TIP3    H235423   0.338   6.615  13.756 -1.4072 -0.0203 -1.3355
 4670TIP3   OH235424   2.282   1.485   2.780  0.1527 -0.7387  0.0236
 4670TIP3    H135425   2.371   1.451   2.775  0.4823  0.0077  0.7012
 4670TIP3    H235426   2.265   1.522   2.693  0.5792 -0.6978 -0.0403
 4671TIP3   OH235427   2.728   2.122   4.817  0.1463 -0.0181  0.0032
 4671TIP3    H135428   2.816   2.127   4.781 -0.9284  1.7290 -2.5842
 4671TIP3    H235429   2.702   2.214   4.830 -2.3961 -0.3517 -2.2342
 4672TIP3   OH235430   2.011   2.423  10.376 -0.2197 -0.5337 -0.5190
 4672TIP3    H135431   1.955   2.429  10.454 -1.6087 -0.4700 -1.5079
 4672TIP3    H235432   2.012   2.329  10.355  0.7002 -0.6314 -0.0272
 4673TIP3   OH235433   0.025   6.213  15.261 -0.2796  0.3200  0.5747
 4673TIP3    H135434   0.075   6.294  15.261 -1.6448  1.1980 -1.5355
 4673TIP3    H235435   0.056   6.165  15.184 -0.1452 -0.7260  1.2744
 4674TIP3   OH235436   4.520   6.595  11.611  0.6599 -0.1199  0.7151
 4674TIP3    H135437   4.433   6.578  11.576 -0.4613  0.1277  3.2814
 4674TIP3    H235438   4.580   6.555  11.547 -1.3572 -1.4355 -0.4029
 4675TIP3   OH235439   0.979   5.681  14.755  0.5210  0.0922  0.6895
 4675TIP3    H135440   0.988   5.726  14.671  0.0396  0.1540  0.6700
 4675TIP3    H235441   1.067   5.683  14.793  0.3743  1.6125  0.9865
 4676TIP3   OH235442   2.028   5.360   5.830  0.0389 -0.0490  0.2716
 4676TIP3    H135443   2.012   5.266   5.833  0.1312 -0.1233 -1.0106
 4676TIP3    H235444   1.941   5.399   5.818  0.4298 -0.3590 -5.0928
 4677TIP3   OH235445   3.919   1.977   2.333  0.4484  0.0684  0.1683
 4677TIP3    H135446   3.873   2.057   2.306  0.9709  0.6558  1.0044
 4677TIP3    H235447   3.879   1.908   2.281  1.0661  1.1022 -1.7341
 4678TIP3   OH235448   2.164   1.835   1.416  0.3956  0.3655 -0.1181
 4678TIP3    H135449   2.102   1.763   1.429  1.3334 -0.1565  1.6862
 4678TIP3    H235450   2.224   1.803   1.349  0.9577 -0.6801  0.8529
 4679TIP3   OH235451   4.054   0.478  14.474  0.5609  0.6839  0.2152
 4679TIP3    H135452   4.108   0.545  14.516 -0.5866  0.8567  1.4635
 4679TIP3    H235453   4.003   0.527  14.409  1.8519  0.5273 -0.9303
 4680TIP3   OH235454   4.158   2.560   4.222  0.4830 -0.5376  0.8807
 4680TIP3    H135455   4.112   2.575   4.305 -0.2794 -2.0515  0.7478
 4680TIP3    H235456   4.250   2.555   4.246  0.3245 -0.2953  1.5458
 4681TIP3   OH235457   6.687   2.325   1.623 -0.4772 -0.6445 -0.1893
 4681TIP3    H135458   6.702   2.239   1.662  0.3850 -0.6542 -0.5262
 4681TIP3    H235459   6.632   2.308   1.547  0.3505 -0.9961 -0.7121
 4682TIP3   OH235460   2.025   4.424  13.638  0.2028  0.5927 -0.4694
 4682TIP3    H135461   1.957   4.420  13.571  0.9936 -2.0540 -1.1880
 4682TIP3    H235462   1.978   4.419  13.721 -0.5879  0.5884 -0.9177
 4683TIP3   OH235463   6.090   5.362  16.581  0.2254 -0.0096 -0.3009
 4683TIP3    H135464   6.037   5.292  16.542  0.3743 -0.1482 -0.2573
 4683TIP3    H235465   6.027   5.419  16.624  0.0138  0.4415 -1.2111
 4684TIP3   OH235466   1.233   4.685   2.436  0.0256 -0.3513 -0.5462
 4684TIP3    H135467   1.277   4.724   2.361  0.0691 -1.2185 -0.9799
 4684TIP3    H235468   1.299   4.629   2.476 -0.7406 -1.8676 -1.3528
 4685TIP3   OH235469   0.210   0.250   4.155 -0.3342  0.6642 -0.0240
 4685TIP3    H135470   0.264   0.255   4.234  0.9088 -0.8257 -0.7454
 4685TIP3    H235471   0.263   0.290   4.086  0.9332 -2.8940 -1.2437
 4686TIP3   OH235472   1.219   6.186   4.564  0.5815 -0.2345 -0.0058
 4686TIP3    H135473   1.241   6.093   4.574  0.4754 -0.3262 -0.5814
 4686TIP3    H235474   1.232   6.203   4.471  0.7536  0.3710  0.1307
 4687TIP3   OH235475   0.244   2.546  12.660  0.5504 -0.1825 -0.0683
 4687TIP3    H135476   0.174   2.573  12.601  1.6581 -1.7953 -2.2154
 4687TIP3    H235477   0.307   2.619  12.657 -0.3841  0.6671  0.7948
 4688TIP3   OH235478   2.220   3.840  14.314 -0.2587 -0.2734  0.2227
 4688TIP3    H135479   2.163   3.888  14.255  1.3756  1.1342 -0.2732
 4688TIP3    H235480   2.182   3.753  14.320 -2.0392  0.4320 -0.6356
 4689TIP3   OH235481   6.690   1.510   2.186  0.0603  0.8219  0.2484
 4689TIP3    H135482   6.699   1.537   2.277  0.5810 -2.1659  1.1104
 4689TIP3    H235483   6.776   1.475   2.163 -0.7317 -0.5436 -0.6866
 4690TIP3   OH235484   3.399   6.329  16.608  0.0828 -0.1494  0.5206
 4690TIP3    H135485   3.305   6.313  16.622  0.1263 -0.3818  0.5508
 4690TIP3    H235486   3.435   6.243  16.586 -0.1828  0.3592 -2.1145
 4691TIP3   OH235487   0.347   6.781   6.520  0.0694 -0.3403 -0.1645
 4691TIP3    H135488   0.293   6.795   6.597 -0.1867  1.5513 -0.6691
 4691TIP3    H235489   0.437   6.797   6.551 -0.0724  0.8615 -0.3459
 4692TIP3   OH235490   2.926   4.265   0.307  0.2449  0.6316 -0.0710
 4692TIP3    H135491   2.832   4.249   0.317  0.2673  0.1854 -0.5372
 4692TIP3    H235492   2.958   4.277   0.396 -0.0616 -0.3397  0.1857
 4693TIP3   OH235493   5.919   5.379  13.583  0.7587  0.7421 -0.5603
 4693TIP3    H135494   5.952   5.411  13.499 -1.6798  2.3762 -0.9705
 4693TIP3    H235495   5.860   5.307  13.559 -0.1560  1.3897 -0.3191
 4694TIP3   OH235496   1.969   6.297   3.983 -0.4933  0.4070 -0.4079
 4694TIP3    H135497   2.057   6.274   3.954 -0.0242 -0.7211  1.8452
 4694TIP3    H235498   1.939   6.362   3.919  1.4345 -0.1997 -1.9669
 4695TIP3   OH235499   5.804   1.617  13.624 -0.0594 -0.2538 -0.4910
 4695TIP3    H135500   5.850   1.614  13.708 -0.1527 -0.6814 -0.4525
 4695TIP3    H235501   5.753   1.698  13.627 -2.3809 -1.6998  1.0820
 4696TIP3   OH235502   5.650   0.547   1.499  0.4086  0.2208  0.0545
 4696TIP3    H135503   5.624   0.609   1.431 -0.0295  0.1278  0.1345
 4696TIP3    H235504   5.724   0.499   1.460 -0.1938 -0.2154 -0.5859
 4697TIP3   OH235505   0.113   4.155   0.611  0.1027  0.3738 -0.3614
 4697TIP3    H135506   0.096   4.171   0.518 -0.5716 -0.4373 -0.3833
 4697TIP3    H235507   0.027   4.160   0.652  0.6155  2.4735  0.4940
 4698TIP3   OH235508   3.640   4.777   1.412 -0.4920  0.5477  0.0629
 4698TIP3    H135509   3.586   4.833   1.356 -2.8620 -2.5910 -0.8991
 4698TIP3    H235510   3.578   4.723   1.459  1.7585 -2.0314  0.1533
 4699TIP3   OH235511   5.587   5.320   4.352  0.6958  0.0392  0.4973
 4699TIP3    H135512   5.538   5.294   4.430 -0.4882 -0.3145 -0.3600
 4699TIP3    H235513   5.673   5.344   4.386  0.3445 -0.5533  1.8636
 4700TIP3   OH235514   4.566   4.891  16.478 -0.3767  0.3165 -0.0535
 4700TIP3    H135515   4.584   4.926  16.565 -0.4720 -1.2163  0.6033
 4700TIP3    H235516   4.634   4.928  16.423  1.2977 -0.7912  1.2243
 4701TIP3   OH235517   2.944   3.312  13.749  0.1618 -0.2659  0.4908
 4701TIP3    H135518   3.001   3.388  13.748  0.5948 -0.5802  0.7830
 4701TIP3    H235519   2.862   3.343  13.712  1.1199 -0.2918 -1.7354
 4702TIP3   OH235520   3.811   2.989  11.540 -0.3197 -0.7166 -0.5272
 4702TIP3    H135521   3.894   3.011  11.499  0.2652 -1.7631  0.0794
 4702TIP3    H235522   3.815   2.895  11.554 -2.1256 -0.9983 -1.6308
 4703TIP3   OH235523   4.061   2.130   3.470  0.5017  0.2228 -0.2276
 4703TIP3    H135524   4.128   2.157   3.407  0.5464  1.9716  0.5347
 4703TIP3    H235525   4.109   2.080   3.536  1.0695  1.4088  0.2772
 4704TIP3   OH235526   1.042   0.147  13.244 -0.4716 -0.3294 -0.1539
 4704TIP3    H135527   1.048   0.184  13.332 -0.0212  0.4666 -0.5173
 4704TIP3    H235528   0.992   0.211  13.194  0.2462 -0.2487 -0.7683
 4705TIP3   OH235529   1.861   5.137  14.385 -0.4393  0.4484 -0.0057
 4705TIP3    H135530   1.779   5.182  14.409  0.3116  1.6348  0.4049
 4705TIP3    H235531   1.893   5.187  14.310 -1.4544 -1.6701 -1.8931
 4706TIP3   OH235532   3.658   2.495  17.165 -0.0231  0.2600  0.6436
 4706TIP3    H135533   3.609   2.499  17.247 -0.6328  1.1530  0.2427
 4706TIP3    H235534   3.640   2.407  17.131 -1.1688  0.5049  0.6086
 4707TIP3   OH235535   4.427   1.003   3.103  0.8244  0.6308  0.3935
 4707TIP3    H135536   4.503   1.060   3.111  0.7152  0.5300  2.4452
 4707TIP3    H235537   4.355   1.054   3.140 -0.3114  1.0455 -2.2819
 4708TIP3   OH235538   2.203   0.576   0.128  0.3297 -0.0364 -0.3828
 4708TIP3    H135539   2.127   0.595   0.073  0.1051  1.4720  0.4105
 4708TIP3    H235540   2.260   0.523   0.073  0.6978  2.5026 -2.5681
 4709TIP3   OH235541   2.721   6.724  15.195  0.1884 -0.5442 -0.6932
 4709TIP3    H135542   2.724   6.629  15.206 -0.4863 -0.4529  0.3172
 4709TIP3    H235543   2.733   6.738  15.101 -1.2525 -1.6943 -1.0585
 4710TIP3   OH235544   6.066   4.425  12.566 -0.6653 -0.0888  0.3542
 4710TIP3    H135545   6.055   4.350  12.626 -0.9420  1.2896  2.0672
 4710TIP3    H235546   6.082   4.499  12.624 -0.7576  1.2551 -1.3236
 4711TIP3   OH235547   1.959   6.599  13.777  0.1089  0.1968  0.1533
 4711TIP3    H135548   1.920   6.686  13.783  0.5836  0.3201  1.6421
 4711TIP3    H235549   2.054   6.615  13.783  0.3183 -0.2555 -1.6384
 4712TIP3   OH235550   3.972   0.175   0.766  0.6421  0.1063  0.3372
 4712TIP3    H135551   4.011   0.176   0.679  1.4174  1.0521  0.6876
 4712TIP3    H235552   3.900   0.237   0.761 -0.0542 -0.7133  0.0453
 4713TIP3   OH235553   6.373   4.386   4.278  0.2061 -0.0043 -0.9422
 4713TIP3    H135554   6.422   4.305   4.279 -0.6107 -0.5166 -1.5683
 4713TIP3    H235555   6.309   4.376   4.349 -0.5618 -0.3298 -1.6799
 4714TIP3   OH235556   0.391   6.257  14.866  0.1018  0.0955 -0.7931
 4714TIP3    H135557   0.475   6.304  14.866 -0.5160  1.2289 -1.0778
 4714TIP3    H235558   0.336   6.307  14.806 -0.8172 -0.5676 -0.5091
 4715TIP3   OH235559   4.651   0.812  13.095  0.1229  0.0326  0.2205
 4715TIP3    H135560   4.674   0.720  13.107 -0.9701 -0.3034 -0.2019
 4715TIP3    H235561   4.722   0.848  13.040 -0.1638 -0.8961 -0.7756
 4716TIP3   OH235562   1.111   3.519  14.113 -0.1131 -0.8109 -0.1042
 4716TIP3    H135563   1.138   3.430  14.091 -0.7571 -2.0649  3.6640
 4716TIP3    H235564   1.193   3.567  14.123  0.2949 -1.3377 -0.9136
 4717TIP3   OH235565   3.935   1.728   1.759 -0.2521 -0.1321  0.3431
 4717TIP3    H135566   3.913   1.644   1.797 -1.7606 -0.1438 -0.5355
 4717TIP3    H235567   4.000   1.766   1.819 -0.9507 -1.0958  1.7104
 4718TIP3   OH235568   4.529   6.458  14.859 -0.1816  0.2058  0.1806
 4718TIP3    H135569   4.581   6.467  14.779 -0.4306  2.5916  0.2511
 4718TIP3    H235570   4.530   6.364  14.878  1.2958 -0.1804 -1.6759
 4719TIP3   OH235571   3.657   0.295   4.836  0.6117  0.4817  0.1112
 4719TIP3    H135572   3.630   0.359   4.902 -0.6914  0.9301 -0.8316
 4719TIP3    H235573   3.614   0.214   4.863 -0.3456  0.7893 -0.4493
 4720TIP3   OH235574   1.116   4.766   2.702 -0.4272  0.0881 -0.2406
 4720TIP3    H135575   1.031   4.742   2.666 -0.4875 -0.0098 -0.0307
 4720TIP3    H235576   1.172   4.778   2.625 -0.7445  0.5876 -0.3943
 4721TIP3   OH235577   5.045   0.805  14.506 -0.1119  0.1375  0.3177
 4721TIP3    H135578   5.025   0.896  14.483  1.9864  0.5816  0.1100
 4721TIP3    H235579   5.039   0.803  14.602 -2.9142 -0.2351  0.1887
 4722TIP3   OH235580   3.723   6.629   5.478 -0.5722 -0.9986  0.3003
 4722TIP3    H135581   3.775   6.551   5.461 -0.2947 -0.8615  0.5133
 4722TIP3    H235582   3.667   6.606   5.552 -1.5946 -1.5084 -0.6173
 4723TIP3   OH235583   0.479   2.930   2.411 -0.1668 -0.3422  0.1449
 4723TIP3    H135584   0.531   2.886   2.478 -0.3992 -0.3123  0.3457
 4723TIP3    H235585   0.425   2.860   2.373  0.5507 -0.5151 -0.5734
 4724TIP3   OH235586   0.210   6.745   4.163 -0.2559  0.3314 -0.8421
 4724TIP3    H135587   0.211   6.697   4.080 -0.5473  0.2555 -0.8032
 4724TIP3    H235588   0.200   6.837   4.137 -0.3297  0.3090 -0.8921
 4725TIP3   OH235589   5.618   1.837   0.145  0.0886  0.2002 -0.6024
 4725TIP3    H135590   5.591   1.746   0.139 -0.2750  0.2360  0.5328
 4725TIP3    H235591   5.713   1.834   0.151  0.0820 -0.0909 -0.6525
 4726TIP3   OH235592   5.346   4.839  11.869 -0.3823 -0.5332  0.2444
 4726TIP3    H135593   5.372   4.748  11.851 -2.2074 -1.2182  0.9203
 4726TIP3    H235594   5.258   4.831  11.907 -1.1552  1.6055 -0.9996
 4727TIP3   OH235595   1.439   4.797  17.131 -0.6821 -0.7665 -0.2866
 4727TIP3    H135596   1.417   4.768  17.042 -0.0950 -0.1609 -0.6257
 4727TIP3    H235597   1.531   4.822  17.127 -1.5287  2.5630 -0.3591
 4728TIP3   OH235598   6.259   5.743  16.782  1.0152 -0.2660  0.0918
 4728TIP3    H135599   6.303   5.822  16.814  1.9899 -1.6275  2.2457
 4728TIP3    H235600   6.328   5.676  16.780  0.6379 -0.6841 -3.4492
 4729TIP3   OH235601   5.613   4.234   2.202 -0.1690 -0.0448 -0.2843
 4729TIP3    H135602   5.654   4.172   2.263 -0.4272 -1.5343 -1.6060
 4729TIP3    H235603   5.573   4.179   2.135 -0.4434  1.5622 -1.4628
 4730TIP3   OH235604   0.473   1.428   6.500 -0.1021  0.3465 -0.2531
 4730TIP3    H135605   0.536   1.391   6.562 -1.4092 -2.4455 -0.5045
 4730TIP3    H235606   0.527   1.474   6.436  1.5462 -0.3945  0.5789
 4731TIP3   OH235607   1.989   5.451  12.635  0.5733  0.1799  0.0036
 4731TIP3    H135608   1.962   5.491  12.718  0.5248 -0.4660  0.3002
 4731TIP3    H235609   1.972   5.358  12.647  1.1370  0.0113 -0.5109
 4732TIP3   OH235610   0.890   6.351   2.731 -0.2672  0.7753  0.2725
 4732TIP3    H135611   0.896   6.353   2.636 -1.9643  0.7102  0.1419
 4732TIP3    H235612   0.970   6.393   2.762  0.0981  1.1666 -1.1888
 4733TIP3   OH235613   1.692   3.310  14.212 -0.1085 -0.4764  0.2356
 4733TIP3    H135614   1.679   3.300  14.306 -0.9384 -0.5887  0.1175
 4733TIP3    H235615   1.617   3.265  14.173  0.1014 -0.2211 -0.4731
 4734TIP3   OH235616   4.074   3.933  12.977  0.1005 -0.1359  0.0579
 4734TIP3    H135617   4.133   3.966  12.910 -3.5777  0.3106 -3.1204
 4734TIP3    H235618   4.073   3.838  12.964 -1.2401  0.0262 -1.1077
 4735TIP3   OH235619   5.993   5.825  14.262 -0.5566 -0.1262  0.2122
 4735TIP3    H135620   5.975   5.765  14.334  0.2427  0.2645  0.7507
 4735TIP3    H235621   5.954   5.783  14.186 -3.3899  0.5026  1.2382
 4736TIP3   OH235622   3.448   4.789  11.611  0.2478 -0.0174  0.2370
 4736TIP3    H135623   3.396   4.715  11.643  1.0360 -0.1475  1.2560
 4736TIP3    H235624   3.397   4.866  11.634 -0.0917 -0.1950  0.0895
 4737TIP3   OH235625   1.838   5.509   4.791 -0.1581 -0.0585  0.1066
 4737TIP3    H135626   1.788   5.565   4.849 -0.0823 -0.2640  0.3704
 4737TIP3    H235627   1.928   5.518   4.820 -0.2061 -0.6941  0.4644
 4738TIP3   OH235628   1.802   2.699   3.231 -0.6526 -0.0862 -0.1972
 4738TIP3    H135629   1.887   2.663   3.256 -0.4091  0.4976 -0.1916
 4738TIP3    H235630   1.739   2.649   3.284 -0.2242  0.3470  0.7486
 4739TIP3   OH235631   3.143   3.448   3.585 -0.1084 -0.3865  0.1660
 4739TIP3    H135632   3.059   3.402   3.577 -0.8691  1.3019 -1.8823
 4739TIP3    H235633   3.173   3.459   3.495  1.4560  0.5904  0.7929
 4740TIP3   OH235634   3.044   4.626  17.173 -0.3605 -0.4483 -0.7796
 4740TIP3    H135635   3.008   4.566  17.107 -2.5585 -1.1292  1.0148
 4740TIP3    H235636   3.034   4.713  17.134 -1.9726 -0.8182 -1.2221
 4741TIP3   OH235637   2.216   2.278  14.499  0.1006 -0.2795  0.2415
 4741TIP3    H135638   2.160   2.308  14.427 -0.5663 -1.9041  0.0794
 4741TIP3    H235639   2.160   2.281  14.576 -0.1566 -1.6653  0.1207
 4742TIP3   OH235640   4.942   1.122  16.787 -0.0212  0.5761 -0.5368
 4742TIP3    H135641   5.003   1.068  16.736  0.2746 -0.0889  0.5137
 4742TIP3    H235642   4.973   1.211  16.774  0.7508  0.3033 -0.5955
 4743TIP3   OH235643   2.279   5.307   3.760  0.1208 -0.3108 -0.3189
 4743TIP3    H135644   2.216   5.355   3.707  1.7615  1.4293 -0.7084
 4743TIP3    H235645   2.264   5.338   3.849 -1.6279 -2.1612  0.0838
 4744TIP3   OH235646   6.576   5.099  12.440  0.1923  0.0964  0.3702
 4744TIP3    H135647   6.594   5.182  12.395  0.4070 -0.2937 -0.2668
 4744TIP3    H235648   6.596   5.032  12.375 -0.1766 -0.4510  0.8208
 4745TIP3   OH235649   2.195   3.945   3.779 -1.0324 -0.1340  0.2799
 4745TIP3    H135650   2.136   4.000   3.831  0.4570 -0.7283  2.7080
 4745TIP3    H235651   2.138   3.884   3.734 -2.3478 -0.1548  1.9236
 4746TIP3   OH235652   0.922   3.119  16.349  0.0372 -0.4692  0.0383
 4746TIP3    H135653   0.855   3.053  16.332  0.1110 -0.2497 -1.1323
 4746TIP3    H235654   1.004   3.070  16.356  0.0206 -0.5512 -0.3399
 4747TIP3   OH235655   5.106   4.320  14.447 -0.3027  0.1039  0.2915
 4747TIP3    H135656   5.166   4.393  14.432 -1.6345  0.4802 -3.6972
 4747TIP3    H235657   5.050   4.350  14.519  1.3239  1.5777  0.9893
 4748TIP3   OH235658   5.383   2.180   2.716  0.2312 -0.3016 -0.4596
 4748TIP3    H135659   5.382   2.085   2.714  0.0043 -0.3525  1.5651
 4748TIP3    H235660   5.291   2.205   2.719  0.3256 -0.0765  0.7956
 4749TIP3   OH235661   3.881   6.552   4.183 -0.5611  0.1285 -0.1421
 4749TIP3    H135662   3.795   6.523   4.213  0.0810 -0.7597  0.8837
 4749TIP3    H235663   3.898   6.501   4.104 -0.5629 -0.4380  0.2145
 4750TIP3   OH235664   0.901   3.758  12.737  0.2836 -0.2952 -0.3963
 4750TIP3    H135665   0.885   3.688  12.801 -0.4981 -0.2284 -0.5187
 4750TIP3    H235666   0.839   3.740  12.666  0.0437  0.5560 -0.4006
 4751TIP3   OH235667   6.648   0.163  13.656  0.1643  0.2477 -0.2159
 4751TIP3    H135668   6.693   0.106  13.593  0.1502  0.6629 -0.6077
 4751TIP3    H235669   6.713   0.230  13.679 -0.1160  0.6135 -0.4718
 4752TIP3   OH235670   5.118   3.415  16.581  0.1775  0.2938 -0.2221
 4752TIP3    H135671   5.089   3.353  16.648  0.0631  1.0808  0.4721
 4752TIP3    H235672   5.213   3.404  16.578 -0.0185 -1.1513 -1.3579
 4753TIP3   OH235673   0.390   0.623   2.119  0.1138  0.5234  0.0829
 4753TIP3    H135674   0.460   0.661   2.066 -0.5335  3.0535  0.9750
 4753TIP3    H235675   0.309   0.653   2.077 -0.4256 -0.0228  0.7118
 4754TIP3   OH235676   6.121   6.475  11.576 -0.9431  0.1802 -0.8149
 4754TIP3    H135677   6.084   6.409  11.517  0.5085 -1.6689  0.2614
 4754TIP3    H235678   6.097   6.444  11.664  0.2229  0.7905 -0.2740
 4755TIP3   OH235679   6.697   5.529   1.840 -0.1178 -0.2541 -0.1004
 4755TIP3    H135680   6.616   5.489   1.809  0.0281 -1.5520  1.1767
 4755TIP3    H235681   6.767   5.473   1.806  0.1829  0.0266  0.0485
 4756TIP3   OH235682   4.904   0.873   4.587  0.2010 -0.2345 -0.3495
 4756TIP3    H135683   4.905   0.951   4.642 -0.9300  0.9150 -1.9175
 4756TIP3    H235684   4.988   0.874   4.542  0.1191  0.1600 -0.4907
 4757TIP3   OH235685   2.828   0.992  16.879 -0.0481  0.1821  0.0346
 4757TIP3    H135686   2.921   0.981  16.898  0.0814 -0.7460 -1.0979
 4757TIP3    H235687   2.786   0.915  16.916 -0.0477 -0.6198 -1.5942
 4758TIP3   OH235688   0.168   3.827   0.827  0.0175  0.3640 -0.3931
 4758TIP3    H135689   0.173   3.875   0.909 -2.1021 -1.5604  0.9533
 4758TIP3    H235690   0.230   3.871   0.769  0.5868  2.5838  1.8020
 4759TIP3   OH235691   1.073   2.132   1.589 -0.3747  0.0453  0.4699
 4759TIP3    H135692   1.110   2.165   1.671  0.1117 -1.7229  0.9865
 4759TIP3    H235693   0.986   2.099   1.613 -0.5264  0.1871  0.1261
 4760TIP3   OH235694   2.941   2.702   4.006  0.1717 -0.0066  0.1512
 4760TIP3    H135695   2.848   2.679   4.014  0.2705 -0.1569  0.8548
 4760TIP3    H235696   2.949   2.785   4.054  0.6043 -0.5156  0.9696
 4761TIP3   OH235697   5.413   4.418  12.720 -0.2976  0.5665  0.5461
 4761TIP3    H135698   5.404   4.379  12.633 -1.6210  0.4682  0.7060
 4761TIP3    H235699   5.474   4.361  12.766 -1.1309 -0.5401  0.3192
 4762TIP3   OH235700   5.759   0.528  16.498  0.0861 -0.1051  0.1410
 4762TIP3    H135701   5.804   0.491  16.574 -1.5191 -1.6475  0.3812
 4762TIP3    H235702   5.719   0.453  16.455 -2.0556  1.1866 -0.1930
 4763TIP3   OH235703   1.063   1.574  13.212 -0.4030  0.2267 -0.2093
 4763TIP3    H135704   1.104   1.490  13.231 -0.7111  0.4258  1.4644
 4763TIP3    H235705   1.010   1.558  13.134 -1.2675 -1.4122  0.6861
 4764TIP3   OH235706   4.100   2.355  13.921 -0.4419  0.8864  0.2871
 4764TIP3    H135707   4.128   2.446  13.910  0.9755  0.4709  0.2945
 4764TIP3    H235708   4.164   2.304  13.870 -0.5166 -0.1898  1.2533
 4765TIP3   OH235709   5.611   4.213   1.760 -0.4797 -0.2572  0.1542
 4765TIP3    H135710   5.627   4.149   1.829 -0.3540 -1.4091 -0.9230
 4765TIP3    H235711   5.657   4.291   1.789 -0.5566 -0.6780  1.4468
 4766TIP3   OH235712   0.241   5.705  13.791  0.5084  0.5634 -0.6536
 4766TIP3    H135713   0.216   5.614  13.777 -0.5008  0.5896  0.8249
 4766TIP3    H235714   0.161   5.748  13.821  0.7363  2.1694 -2.2887
 4767TIP3   OH235715   4.660   3.645   2.804 -0.3996  0.3023  0.2918
 4767TIP3    H135716   4.742   3.680   2.839 -1.5191  2.5297  0.8476
 4767TIP3    H235717   4.622   3.718   2.755 -2.3390 -0.4521  0.6023
 4768TIP3   OH235718   3.820   3.342   3.092  0.6553 -0.2009  0.4431
 4768TIP3    H135719   3.903   3.314   3.052  0.6173 -1.0710  0.9459
 4768TIP3    H235720   3.829   3.318   3.184 -0.3766 -0.8186  0.3890
 4769TIP3   OH235721   3.650   5.648   4.878 -0.3239 -0.6936  0.1401
 4769TIP3    H135722   3.650   5.552   4.874 -0.8807 -0.6622 -0.6730
 4769TIP3    H235723   3.689   5.676   4.796 -1.6678 -0.2125 -0.3525
 4770TIP3   OH235724   0.812   1.794   1.360  0.3706  0.1763 -0.4653
 4770TIP3    H135725   0.757   1.872   1.362 -0.4679 -0.4130  0.0725
 4770TIP3    H235726   0.751   1.722   1.344  0.8545 -0.5899  1.0346
 4771TIP3   OH235727   1.844   4.836   2.830  0.1174 -0.2067 -0.0715
 4771TIP3    H135728   1.810   4.892   2.761 -1.1496 -1.2004 -0.2668
 4771TIP3    H235729   1.886   4.763   2.784 -0.5158 -0.7469  0.2107
 4772TIP3   OH235730   4.650   1.151  15.824 -0.0619 -0.2736 -0.4444
 4772TIP3    H135731   4.735   1.156  15.869 -0.4519 -1.9248  0.5414
 4772TIP3    H235732   4.672   1.125  15.735  0.5202 -0.0591 -0.3698
 4773TIP3   OH235733   2.354   6.068   4.674  0.4014 -0.7474  0.2270
 4773TIP3    H135734   2.306   6.150   4.657  1.1019 -0.2770  0.5037
 4773TIP3    H235735   2.359   6.026   4.588 -1.7235 -1.4828  0.4199
 4774TIP3   OH235736   0.625   2.319  13.792  0.2573 -0.2417  0.3456
 4774TIP3    H135737   0.573   2.242  13.770  0.6516 -0.2283 -0.6669
 4774TIP3    H235738   0.593   2.347  13.878  0.2558 -1.6549  0.8137
 4775TIP3   OH235739   4.819   1.380  10.697  0.1745  0.0468 -0.0890
 4775TIP3    H135740   4.860   1.378  10.784  0.3860 -2.4937 -0.2092
 4775TIP3    H235741   4.890   1.357  10.637 -1.0774 -3.1148 -0.4289
 4776TIP3   OH235742   6.371   3.706   0.788  0.0486 -0.3232  0.3554
 4776TIP3    H135743   6.425   3.693   0.709 -0.9007  0.2785 -0.4012
 4776TIP3    H235744   6.345   3.617   0.814 -0.1788 -0.4804 -0.3919
 4777TIP3   OH235745   5.870   6.745   1.788 -0.3215  0.1800  0.1888
 4777TIP3    H135746   5.840   6.836   1.796  0.1023  0.5280 -1.9201
 4777TIP3    H235747   5.869   6.728   1.694  0.7964 -1.6033  0.4886
 4778TIP3   OH235748   2.329   3.346   0.067 -0.1950 -0.0911 -0.4625
 4778TIP3    H135749   2.350   3.255   0.092 -0.0419 -0.4264 -1.7752
 4778TIP3    H235750   2.239   3.342   0.036 -0.6413  0.4682  0.7536
 4779TIP3   OH235751   4.802   3.281   2.892 -0.2637  0.5285 -0.0706
 4779TIP3    H135752   4.833   3.195   2.921  0.7938  0.8392 -0.2801
 4779TIP3    H235753   4.720   3.262   2.846 -0.8187 -0.2068  1.1884
 4780TIP3   OH235754   5.048   5.574  16.763 -0.4817  0.0879 -0.3136
 4780TIP3    H135755   5.085   5.528  16.688 -0.9256  0.0375 -0.5080
 4780TIP3    H235756   5.033   5.663  16.732 -0.2827  0.1758 -0.1580
 4781TIP3   OH235757   5.910   5.199   1.804  0.1389 -0.1794 -0.2400
 4781TIP3    H135758   5.967   5.272   1.780  0.6227 -0.9686 -1.6087
 4781TIP3    H235759   5.824   5.238   1.814  0.7313  0.8753  0.8796
 4782TIP3   OH235760   3.838   5.219  17.202  0.0522 -0.0142  0.8373
 4782TIP3    H135761   3.844   5.137  17.249  1.6140 -0.2886  0.1680
 4782TIP3    H235762   3.917   5.223  17.149 -0.3226  1.6073  0.3617
 4783TIP3   OH235763   5.364   3.821   5.188  0.6263  0.3893 -0.5738
 4783TIP3    H135764   5.344   3.794   5.277  1.1965 -0.6444 -0.7602
 4783TIP3    H235765   5.279   3.847   5.152  0.3264  0.3716  0.1123
 4784TIP3   OH235766   1.555   4.661   3.710  0.2003 -0.3366 -0.2659
 4784TIP3    H135767   1.579   4.749   3.740 -0.4143  0.1860 -1.2710
 4784TIP3    H235768   1.535   4.673   3.617 -1.6288 -1.2065  0.0080
 4785TIP3   OH235769   3.296   4.012   0.033 -0.6312 -0.1677 -0.4754
 4785TIP3    H135770   3.287   4.091   0.085  0.0771 -0.3765 -0.0244
 4785TIP3    H235771   3.240   3.948   0.076  0.0658 -0.3823  0.1312
 4786TIP3   OH235772   3.101   3.009  15.912  0.0938  0.8696  0.1207
 4786TIP3    H135773   3.161   2.934  15.909  1.0458  1.6773 -1.6287
 4786TIP3    H235774   3.077   3.016  16.005  0.4797 -1.1979  0.4145
 4787TIP3   OH235775   2.413   5.722   0.889  0.2049 -0.0831  0.6939
 4787TIP3    H135776   2.423   5.629   0.866  1.4076  0.5094 -1.2921
 4787TIP3    H235777   2.486   5.765   0.844 -1.0907  2.0082  0.5747
 4788TIP3   OH235778   6.470   0.887  16.536 -0.4313 -0.1557  0.7424
 4788TIP3    H135779   6.453   0.981  16.530 -0.0569 -0.1294 -0.0229
 4788TIP3    H235780   6.466   0.868  16.629  3.6852  1.4289  1.3610
 4789TIP3   OH235781   5.533   1.474  12.117 -0.5864 -0.1078 -0.3595
 4789TIP3    H135782   5.583   1.415  12.174  0.9057  3.2210  1.9314
 4789TIP3    H235783   5.456   1.498  12.168 -1.0947  0.0705 -1.2010
 4790TIP3   OH235784   0.045   3.493  14.810 -0.1565  0.2987 -0.6496
 4790TIP3    H135785   0.036   3.425  14.876 -0.1062  0.5209 -0.4143
 4790TIP3    H235786  -0.025   3.475  14.747 -0.4543  0.3256 -0.3281
 4791TIP3   OH235787   3.731   5.630  15.697 -0.1793  0.0077  0.0772
 4791TIP3    H135788   3.716   5.706  15.753  2.4606  0.4499  0.2917
 4791TIP3    H235789   3.755   5.560  15.758 -0.3097 -0.3435 -0.2753
 4792TIP3   OH235790   4.859   3.743   3.670 -0.1973  0.2699 -0.4466
 4792TIP3    H135791   4.844   3.808   3.739 -1.9505 -1.6246  1.0322
 4792TIP3    H235792   4.806   3.774   3.597 -1.7628  0.0915  0.5690
 4793TIP3   OH235793   1.485   5.394   0.453  0.2080  0.0034  0.2332
 4793TIP3    H135794   1.395   5.425   0.464 -0.0763  0.0297 -1.9102
 4793TIP3    H235795   1.531   5.425   0.531 -2.0382 -1.5474  2.2532
 4794TIP3   OH235796   6.426   4.916   5.113  0.4054 -0.1330 -0.0908
 4794TIP3    H135797   6.466   4.996   5.081 -2.3822  0.4942 -2.1065
 4794TIP3    H235798   6.435   4.853   5.041 -0.0944 -0.7058  0.3325
 4795TIP3   OH235799   4.434   0.651   4.013 -0.3889  0.3104 -0.0840
 4795TIP3    H135800   4.477   0.636   3.929 -1.1101 -1.7646 -0.1131
 4795TIP3    H235801   4.490   0.607   4.077  1.4824  3.9754  0.8904
 4796TIP3   OH235802   6.064   3.794  16.011 -0.9505  0.4150 -0.1358
 4796TIP3    H135803   6.091   3.872  16.057 -1.8851 -0.7026  2.3880
 4796TIP3    H235804   5.968   3.798  16.011 -0.9737  0.1274 -1.5192
 4797TIP3   OH235805   6.718   1.753  14.897  0.2348 -0.1500 -0.3659
 4797TIP3    H135806   6.720   1.831  14.951  0.2319 -0.9615  0.8164
 4797TIP3    H235807   6.808   1.720  14.898 -0.0367 -0.8966  0.2376
 4798TIP3   OH235808   4.208   1.810   1.907  0.2270 -0.7298 -0.0946
 4798TIP3    H135809   4.253   1.854   1.979 -1.1094  0.3978  0.0730
 4798TIP3    H235810   4.227   1.865   1.830 -1.6696  0.3210  0.1654
 4799TIP3   OH235811   2.384   4.371  12.958 -0.3098  0.7369  0.2860
 4799TIP3    H135812   2.459   4.406  13.005 -0.4071 -0.0466  1.0246
 4799TIP3    H235813   2.373   4.282  12.992 -2.4082  1.3056  1.1726
 4800TIP3   OH235814   0.538   4.187   0.704 -0.2351  0.1554  0.6437
 4800TIP3    H135815   0.564   4.148   0.620 -0.8372  1.9923 -0.4126
 4800TIP3    H235816   0.615   4.237   0.732 -0.6211  0.9085  0.3577
 4801TIP3   OH235817   1.054   0.895   4.388  0.2586  0.3658 -0.0389
 4801TIP3    H135818   1.061   0.876   4.481  2.7870  0.7201 -0.1127
 4801TIP3    H235819   1.006   0.821   4.351 -0.5919  0.1371  1.4944
 4802TIP3   OH235820   0.410   4.862   5.426 -0.3943 -0.7198 -0.1632
 4802TIP3    H135821   0.444   4.773   5.434 -2.0286 -1.2187  1.3800
 4802TIP3    H235822   0.488   4.916   5.410  0.4289 -2.6083 -2.8674
 4803TIP3   OH235823   5.758   1.279   4.084  0.2603 -0.2620 -0.3849
 4803TIP3    H135824   5.767   1.186   4.108  1.7282  0.4455  2.0056
 4803TIP3    H235825   5.786   1.326   4.162 -1.4512  2.2268 -1.2290
 4804TIP3   OH235826   0.354   4.358   4.449  0.4728 -0.5403 -0.2621
 4804TIP3    H135827   0.424   4.411   4.412  1.0640 -1.4215 -0.4198
 4804TIP3    H235828   0.391   4.270   4.457 -0.7131 -1.0995 -0.6803
 4805TIP3   OH235829   5.550   0.565   4.924  0.0765  0.1424  0.1272
 4805TIP3    H135830   5.573   0.586   4.833  0.9389 -1.5502 -0.0768
 4805TIP3    H235831   5.459   0.537   4.919  0.3228 -0.6171 -0.3585
 4806TIP3   OH235832   1.635   2.537   3.863  0.1116  0.0737  0.4899
 4806TIP3    H135833   1.585   2.481   3.923  0.5329 -0.1281  0.6499
 4806TIP3    H235834   1.569   2.594   3.824 -0.0314  0.9397  1.9603
 4807TIP3   OH235835   3.310   6.549  11.305  0.2301 -0.2317  0.4632
 4807TIP3    H135836   3.253   6.576  11.233 -0.3154 -0.9487  0.6101
 4807TIP3    H235837   3.251   6.542  11.380  0.9444  1.3190  1.1878
 4808TIP3   OH235838   0.205   4.651   1.432 -0.4097 -0.3353  0.1304
 4808TIP3    H135839   0.253   4.726   1.397 -0.6772 -1.2279 -2.3047
 4808TIP3    H235840   0.254   4.624   1.509  2.0939 -0.1774 -1.3478
 4809TIP3   OH235841   3.967   2.315  11.492 -1.0268 -0.1430 -0.0588
 4809TIP3    H135842   3.935   2.304  11.403 -0.6005 -1.2079 -0.0798
 4809TIP3    H235843   4.015   2.398  11.490 -2.0900  0.4837 -0.5003
 4810TIP3   OH235844   3.768   4.739   6.249  0.0809  0.0314  1.0681
 4810TIP3    H135845   3.699   4.760   6.313 -1.8967  0.2274 -1.0863
 4810TIP3    H235846   3.757   4.646   6.232 -0.6510  0.3760 -0.4146
 4811TIP3   OH235847   1.825   6.459  14.096 -0.6614  0.1840  0.5694
 4811TIP3    H135848   1.868   6.545  14.098 -1.8093  0.7447  2.2083
 4811TIP3    H235849   1.810   6.442  14.003 -0.7722  1.9469  0.2397
 4812TIP3   OH235850   6.347   6.260  10.881  0.3670 -0.0267  0.5450
 4812TIP3    H135851   6.252   6.252  10.871  0.3894 -1.2594  1.1983
 4812TIP3    H235852   6.379   6.281  10.793 -0.5224  0.5170  0.3480
 4813TIP3   OH235853   4.617   3.076   1.907  0.3401  0.5196  0.3126
 4813TIP3    H135854   4.585   2.987   1.917  0.3518  0.5492  0.6135
 4813TIP3    H235855   4.541   3.126   1.878  0.6028  0.1859 -1.0289
 4814TIP3   OH235856   4.659   0.675   1.951 -0.4965  0.0815 -0.1348
 4814TIP3    H135857   4.693   0.741   2.011  0.6236 -0.2623 -0.3872
 4814TIP3    H235858   4.707   0.688   1.869 -0.5639 -0.7676 -0.3211
 4815TIP3   OH235859   2.207   3.468  13.715 -0.0233  0.0402  0.7763
 4815TIP3    H135860   2.152   3.546  13.706 -0.2349  0.1331  2.6252
 4815TIP3    H235861   2.281   3.484  13.657 -1.1034  0.6784 -0.4524
 4816TIP3   OH235862   0.889   0.015  16.057 -0.2345  0.7361 -0.0060
 4816TIP3    H135863   0.896   0.097  16.007  2.7545  0.7191  0.2841
 4816TIP3    H235864   0.902  -0.054  15.991  0.7076  0.6244  0.2862
 4817TIP3   OH235865   5.720   6.444  12.372 -0.0151  0.2874 -0.3203
 4817TIP3    H135866   5.686   6.372  12.425  1.4924 -0.3848 -0.2335
 4817TIP3    H235867   5.786   6.485  12.428 -1.2626  2.1094 -0.1511
 4818TIP3   OH235868   5.077   0.096   5.039  0.3251 -0.4831  0.1944
 4818TIP3    H135869   4.996   0.098   5.091  0.3404  1.5437  0.1667
 4818TIP3    H235870   5.139   0.149   5.089  1.4537 -1.4763 -0.1175
 4819TIP3   OH235871   0.477   3.089  14.393  0.3472  0.4295 -0.2578
 4819TIP3    H135872   0.473   3.080  14.298  1.5709 -0.9685 -0.1844
 4819TIP3    H235873   0.542   3.025  14.421 -0.1445  0.6927  1.5489
 4820TIP3   OH235874   3.522   3.657  14.463  0.5637 -0.1180  0.0908
 4820TIP3    H135875   3.534   3.751  14.454 -2.0521  0.1240 -1.4000
 4820TIP3    H235876   3.608   3.619  14.448  1.5944  2.0034  0.5081
 4821TIP3   OH235877   6.320   1.737   0.387  0.4492 -0.0655 -0.2878
 4821TIP3    H135878   6.244   1.693   0.349  1.0884 -1.2971 -0.1619
 4821TIP3    H235879   6.378   1.753   0.313  0.5193 -0.0406 -0.2271
 4822TIP3   OH235880   0.552   3.614   5.018 -0.1763 -0.6621 -0.6633
 4822TIP3    H135881   0.594   3.528   5.009  0.5114 -0.4348  0.2728
 4822TIP3    H235882   0.546   3.647   4.929  0.8278 -1.0914 -0.8990
 4823TIP3   OH235883   1.464   3.110   5.695 -0.2784  0.4189  0.4727
 4823TIP3    H135884   1.544   3.063   5.719  0.8831  2.2242  0.1767
 4823TIP3    H235885   1.423   3.054   5.629 -0.1055 -1.3028  1.7855
 4824TIP3   OH235886   1.682   0.792  16.053 -0.4852  0.2077 -0.1494
 4824TIP3    H135887   1.672   0.791  16.148  1.3672  2.9906  0.1339
 4824TIP3    H235888   1.747   0.725  16.034  0.3591  0.7814  0.7190
 4825TIP3   OH235889   0.760   3.226   4.805 -0.6798  0.1800  0.5478
 4825TIP3    H135890   0.802   3.160   4.860 -2.0112 -1.8501 -0.7897
 4825TIP3    H235891   0.819   3.301   4.807  1.6256 -1.6060  0.9149
 4826TIP3   OH235892   1.756   2.502  13.218 -0.2225 -0.2599 -0.1976
 4826TIP3    H135893   1.768   2.584  13.266 -0.2628  1.5683 -3.1621
 4826TIP3    H235894   1.845   2.472  13.198 -0.2227  0.4016 -1.2369
 4827TIP3   OH235895   1.346   6.590  15.774 -0.2155  0.0171 -0.4981
 4827TIP3    H135896   1.278   6.658  15.773 -1.0998 -0.8646 -0.6232
 4827TIP3    H235897   1.305   6.514  15.732  0.6606 -0.6977 -0.0709
 4828TIP3   OH235898   1.056   4.441   3.542  0.1430 -0.9929  0.6409
 4828TIP3    H135899   1.019   4.435   3.630 -0.7484 -2.9962  0.1717
 4828TIP3    H235900   0.998   4.501   3.495  0.0295 -0.7199  1.1354
 4829TIP3   OH235901   1.682   2.573  12.725  0.2766  0.2338  0.5929
 4829TIP3    H135902   1.657   2.506  12.789  0.7035 -0.4329  0.0625
 4829TIP3    H235903   1.702   2.525  12.645 -0.6006  1.0981 -0.1668
 4830TIP3   OH235904   6.196   3.977   0.885 -0.0749 -0.0716 -0.2553
 4830TIP3    H135905   6.262   3.941   0.825  0.8759 -1.7609  1.7487
 4830TIP3    H235906   6.240   4.052   0.926  0.4664 -0.9018  0.7179
 4831TIP3   OH235907   0.876   3.452   1.352 -0.2596  0.1602  0.1817
 4831TIP3    H135908   0.856   3.545   1.356 -1.5606 -0.1114  0.4739
 4831TIP3    H235909   0.845   3.417   1.435 -1.8400 -0.8794 -0.8050
 4832TIP3   OH235910   0.164   3.460  15.272 -0.1700  0.5692 -0.0173
 4832TIP3    H135911   0.215   3.436  15.194 -0.3590 -1.6360  0.4997
 4832TIP3    H235912   0.227   3.498  15.332 -0.0713  2.5689 -1.3474
 4833TIP3   OH235913   1.987   6.327   4.282  0.4663  0.3647 -0.3213
 4833TIP3    H135914   1.946   6.259   4.335  0.5824  0.0977 -0.5753
 4833TIP3    H235915   1.994   6.289   4.195  0.3702  0.7646 -0.5050
 4834TIP3   OH235916   0.560   2.960   1.755  0.1907 -0.6306 -0.0051
 4834TIP3    H135917   0.465   2.961   1.753  0.2155  0.8886 -1.4799
 4834TIP3    H235918   0.582   2.896   1.823 -1.8638 -0.9712  0.3693
 4835TIP3   OH235919   3.661   5.317  13.679  0.1676 -0.1469  0.5927
 4835TIP3    H135920   3.703   5.233  13.663 -0.6055 -0.4722  0.2310
 4835TIP3    H235921   3.720   5.381  13.639  2.1729 -0.2277  3.3058
 4836TIP3   OH235922   5.573   1.354   1.122 -0.2473 -0.4728  0.2332
 4836TIP3    H135923   5.558   1.299   1.199  0.6335 -0.4564  0.4183
 4836TIP3    H235924   5.493   1.344   1.070 -0.2149 -1.7233  0.3924
 4837TIP3   OH235925   4.044   5.499   0.355 -0.2809 -0.1443 -0.3125
 4837TIP3    H135926   3.981   5.528   0.421 -0.5331  0.2498 -0.7220
 4837TIP3    H235927   4.116   5.562   0.360  0.2996 -0.8524  0.4642
 4838TIP3   OH235928   3.121   4.658   1.074  0.2736 -0.0159  0.0770
 4838TIP3    H135929   3.097   4.688   0.986  0.3234 -1.2733 -0.3704
 4838TIP3    H235930   3.167   4.576   1.060 -0.6248 -0.7472  1.3482
 4839TIP3   OH235931   1.049   2.739   6.427 -0.2090  0.3582 -0.0796
 4839TIP3    H135932   1.124   2.781   6.468 -0.4600  0.6977  0.0352
 4839TIP3    H235933   1.034   2.660   6.478  0.0511  0.3084 -0.0819
 4840TIP3   OH235934   3.714   4.597   1.782 -0.6702 -0.2110 -0.0774
 4840TIP3    H135935   3.629   4.594   1.737 -1.0059 -0.6235  0.5797
 4840TIP3    H235936   3.753   4.679   1.752 -0.5743 -0.8140 -1.6776
 4841TIP3   OH235937   6.366   1.624   5.816  0.7027 -0.1966  0.4110
 4841TIP3    H135938   6.362   1.549   5.875  0.0850 -0.4236  0.0858
 4841TIP3    H235939   6.328   1.696   5.866  0.4296 -0.3264  0.3946
 4842TIP3   OH235940   1.327   0.012   3.764  0.2446 -0.3893 -0.2794
 4842TIP3    H135941   1.257   0.072   3.790  1.5660  0.6257  1.0686
 4842TIP3    H235942   1.397   0.029   3.827  2.0745 -0.6901 -2.1637
 4843TIP3   OH235943   6.246   2.681   5.688  0.1041 -0.0279  0.6149
 4843TIP3    H135944   6.165   2.733   5.694  0.1159  0.0840 -0.2009
 4843TIP3    H235945   6.272   2.669   5.779  0.1652  1.4894  0.8180
 4844TIP3   OH235946   5.902   3.827   2.571 -0.1771 -0.2474  0.2982
 4844TIP3    H135947   5.874   3.854   2.658  0.3321  0.3524  0.2844
 4844TIP3    H235948   5.990   3.864   2.562 -0.9035  1.2005 -1.1305
 4845TIP3   OH235949   1.570   1.327  16.300  0.1506  0.0540 -0.2753
 4845TIP3    H135950   1.619   1.384  16.360 -1.6966 -0.7252  2.0672
 4845TIP3    H235951   1.634   1.262  16.272  0.5972 -0.7202  2.4093
 4846TIP3   OH235952   1.173   0.004   2.876 -0.3934 -0.4723 -0.5126
 4846TIP3    H135953   1.161  -0.086   2.906  0.4032  0.2565  2.1485
 4846TIP3    H235954   1.268   0.013   2.863 -0.1720  0.5855  1.4768
 4847TIP3   OH235955   5.181   4.795   3.599 -0.2716 -0.3091  0.4334
 4847TIP3    H135956   5.266   4.820   3.635 -0.3100 -0.2974  0.5178
 4847TIP3    H235957   5.118   4.849   3.647 -0.4292 -1.1754  1.2331
 4848TIP3   OH235958   0.538   3.002  15.550 -0.1048 -0.4476  0.1023
 4848TIP3    H135959   0.483   3.078  15.564 -1.5999 -1.1878 -1.6937
 4848TIP3    H235960   0.491   2.929  15.591  2.2437 -0.1379  3.5932
 4849TIP3   OH235961   0.396   6.751   1.261 -0.6448  0.2338  0.1063
 4849TIP3    H135962   0.476   6.801   1.277 -1.3774  1.2600  0.6042
 4849TIP3    H235963   0.407   6.714   1.173  1.7426 -2.2450  1.3829
 4850TIP3   OH235964   2.797   0.872   6.163 -0.1448  0.2689 -0.0337
 4850TIP3    H135965   2.755   0.948   6.204 -0.5315 -0.2343  0.5146
 4850TIP3    H235966   2.731   0.839   6.101  0.5055  1.1351 -1.2074
 4851TIP3   OH235967   1.350   4.098  11.977  0.0036  0.1322  0.0993
 4851TIP3    H135968   1.436   4.063  11.955 -0.0422 -1.4746  2.3532
 4851TIP3    H235969   1.367   4.163  12.044 -0.3831  1.1539 -0.7763
 4852TIP3   OH235970   6.265   4.628  13.529  0.3685  0.4086 -0.1787
 4852TIP3    H135971   6.256   4.552  13.472 -0.7792  2.0549 -2.2550
 4852TIP3    H235972   6.215   4.605  13.608 -0.1150 -0.9267 -0.8699
 4853TIP3   OH235973   3.983   5.003   5.870  0.1623 -0.0444 -0.2279
 4853TIP3    H135974   3.950   4.920   5.906 -1.7819 -0.4759 -2.8682
 4853TIP3    H235975   3.911   5.065   5.886  0.4019  0.4095 -0.9372
 4854TIP3   OH235976   3.093   2.148  17.159 -0.2020  0.1190 -0.1277
 4854TIP3    H135977   3.115   2.056  17.175  1.7350  0.5718 -0.1822
 4854TIP3    H235978   3.172   2.186  17.123 -0.4978  2.2078  1.3568
 4855TIP3   OH235979   5.305   3.249  15.077  0.0250  0.0821 -0.1094
 4855TIP3    H135980   5.235   3.308  15.048  0.3742  0.5123 -0.0941
 4855TIP3    H235981   5.307   3.180  15.011 -1.2817 -0.6418  0.5802
 4856TIP3   OH235982   6.353   5.009   4.137 -0.1082 -0.7284 -0.2167
 4856TIP3    H135983   6.324   4.946   4.071 -0.8188  0.3520 -0.9409
 4856TIP3    H235984   6.436   5.042   4.102  0.1110 -1.0383  0.0131
 4857TIP3   OH235985   5.510   6.556   3.526 -0.3825  0.0150  0.5880
 4857TIP3    H135986   5.511   6.594   3.438  0.1720  0.6180  0.8576
 4857TIP3    H235987   5.596   6.516   3.536 -0.6035 -0.4416  0.6930
 4858TIP3   OH235988   1.674   3.518  12.902  0.3335 -0.2361 -0.1950
 4858TIP3    H135989   1.594   3.548  12.946  0.1752  0.2458 -0.8170
 4858TIP3    H235990   1.671   3.423  12.911  0.6160 -0.1091  1.3962
 4859TIP3   OH235991   1.573   6.682  13.175  0.0968 -0.3892 -0.5423
 4859TIP3    H135992   1.596   6.721  13.260  1.4758 -3.1592  0.4083
 4859TIP3    H235993   1.485   6.646  13.188  1.1094 -2.6073  0.3968
 4860TIP3   OH235994   2.602   6.117   2.946 -0.3163 -0.7438  0.8045
 4860TIP3    H135995   2.627   6.209   2.957  1.8262 -1.0418 -1.2052
 4860TIP3    H235996   2.507   6.117   2.956 -0.1806  1.4447  2.3955
 4861TIP3   OH235997   4.690   0.944  17.084 -0.0707 -0.0368  0.2635
 4861TIP3    H135998   4.624   0.993  17.035  1.2944  1.1605 -0.4378
 4861TIP3    H235999   4.644   0.909  17.160 -1.3955  1.1227  0.0030
 4862TIP3   OH236000   5.474   1.151  12.040  0.0634 -0.0285  0.7086
 4862TIP3    H136001   5.474   1.181  11.949 -0.0054 -1.2816  0.2916
 4862TIP3    H236002   5.412   1.209  12.084 -0.3563  0.2069 -0.1738
 4863TIP3   OH236003   3.305   6.104   1.428 -0.1620  0.1119  0.2282
 4863TIP3    H136004   3.368   6.135   1.493 -1.5354  0.6681  1.3189
 4863TIP3    H236005   3.301   6.010   1.441 -0.5772  0.2475  1.0830
 4864TIP3   OH236006   1.936   5.257  15.012  0.3557  0.3388  0.5819
 4864TIP3    H136007   1.871   5.327  15.017  1.1320  0.9871  1.8975
 4864TIP3    H236008   1.887   5.177  15.032 -0.7017  0.3695 -1.6985
 4865TIP3   OH236009   1.153   3.675  15.981 -0.1444 -0.2690 -0.4892
 4865TIP3    H136010   1.105   3.602  16.020 -0.0887  0.9874  2.0770
 4865TIP3    H236011   1.244   3.647  15.981 -0.3912 -1.0808 -1.6193
 4866TIP3   OH236012   2.553   6.046  11.276 -0.4585 -0.2585  0.5394
 4866TIP3    H136013   2.616   6.119  11.274 -0.6293 -0.0859  1.2260
 4866TIP3    H236014   2.475   6.081  11.233  0.2499 -0.8033 -1.2241
 4867TIP3   OH236015   3.151   1.553  12.611  0.2488  0.1426  0.1427
 4867TIP3    H136016   3.186   1.475  12.655  1.1982 -0.4095 -1.5351
 4867TIP3    H236017   3.057   1.534  12.600  0.5822 -1.0378 -0.7809
 4868TIP3   OH236018   6.103   3.835   4.257 -0.1941 -0.6976 -0.1336
 4868TIP3    H136019   6.133   3.886   4.332 -1.7541 -0.9253  0.6590
 4868TIP3    H236020   6.083   3.749   4.293  0.3678 -1.2191 -1.0697
 4869TIP3   OH236021   4.464   3.084   3.574 -0.1248 -0.5457 -0.0631
 4869TIP3    H136022   4.506   3.096   3.489 -0.3501 -1.2642 -0.2816
 4869TIP3    H236023   4.419   3.000   3.567 -0.7256 -0.2803  0.5292
 4870TIP3   OH236024   1.866   2.490   1.983 -0.0973  0.7777 -0.1567
 4870TIP3    H136025   1.930   2.561   1.985  2.5720 -1.5175 -0.5168
 4870TIP3    H236026   1.851   2.468   2.075 -0.0409  1.0165 -0.0893
 4871TIP3   OH236027   2.015   0.637  16.786 -0.6198  0.4590  0.0064
 4871TIP3    H136028   1.923   0.613  16.798  0.4467 -3.6249  0.8850
 4871TIP3    H236029   2.055   0.620  16.872  1.9369 -3.0727 -1.7700
 4872TIP3   OH236030   0.494   5.912  15.261  0.1157 -0.1378 -0.3793
 4872TIP3    H136031   0.509   5.835  15.316  0.1052 -0.3718 -0.7011
 4872TIP3    H236032   0.422   5.886  15.203 -1.1087  0.7259  0.7015
 4873TIP3   OH236033   0.141   4.016  15.237 -0.2466 -0.1498  0.5540
 4873TIP3    H136034   0.211   3.970  15.190 -0.5642  0.5605 -0.6460
 4873TIP3    H236035   0.080   4.042  15.168 -1.7691 -0.8932  1.6103
 4874TIP3   OH236036   5.648   3.344   4.202  0.3197  0.5391  0.1651
 4874TIP3    H136037   5.608   3.271   4.155 -0.4024  0.2523  1.2122
 4874TIP3    H236038   5.617   3.422   4.157 -0.2877  0.2636  0.1100
 4875TIP3   OH236039   2.703   5.589  11.607 -0.0524 -0.6389 -0.5264
 4875TIP3    H136040   2.780   5.610  11.556 -0.3179  0.0280 -0.6596
 4875TIP3    H236041   2.717   5.499  11.636  0.5692 -0.6682 -0.9095
 4876TIP3   OH236042   6.758   2.542   2.030 -0.0064  0.1252 -0.2857
 4876TIP3    H136043   6.813   2.611   2.066  0.4571 -1.2707  1.7575
 4876TIP3    H236044   6.779   2.541   1.936  1.2632  1.5553 -0.0316
 4877TIP3   OH236045   0.756   6.764   3.872  0.4033 -0.2336 -0.1136
 4877TIP3    H136046   0.678   6.713   3.852 -0.7849  0.1869  3.1356
 4877TIP3    H236047   0.820   6.738   3.806 -1.3812 -3.1044 -0.7863
 4878TIP3   OH236048   3.874   1.937  11.961  0.5213  0.2296  0.1385
 4878TIP3    H136049   3.873   1.870  12.030 -0.1742 -0.7550 -0.7989
 4878TIP3    H236050   3.794   1.920  11.911  0.6479  1.4001 -0.4662
 4879TIP3   OH236051   5.182   2.022   1.864 -0.2408  0.2208  0.0835
 4879TIP3    H136052   5.129   2.057   1.792 -0.8165 -2.1780 -0.7163
 4879TIP3    H236053   5.216   1.940   1.830  1.4023  0.1868  1.7509
 4880TIP3   OH236054   2.775   5.041   4.084  0.5979 -0.5767 -0.2289
 4880TIP3    H136055   2.781   5.113   4.146 -0.3974  1.8579 -2.8474
 4880TIP3    H236056   2.826   5.070   4.008 -0.9688 -1.9983 -1.8915
 4881TIP3   OH236057   6.106   4.202  16.579 -0.6725  0.1585  0.5935
 4881TIP3    H136058   6.187   4.151  16.572 -1.2056 -0.3530 -2.2970
 4881TIP3    H236059   6.041   4.151  16.531 -2.1861  1.6778  0.9705
 4882TIP3   OH236060   1.289   6.248  15.507  0.0757 -0.7083 -0.3579
 4882TIP3    H136061   1.360   6.250  15.571  1.0242  0.0559 -1.4156
 4882TIP3    H236062   1.314   6.179  15.445  0.6255  0.4957 -1.5209
 4883TIP3   OH236063   2.441   1.394  11.686  0.2958  0.0228  0.0055
 4883TIP3    H136064   2.383   1.468  11.702 -1.4590 -1.2036 -0.5380
 4883TIP3    H236065   2.439   1.344  11.768 -0.1504 -0.4983 -0.3164
 4884TIP3   OH236066   5.961   5.592   2.988  0.3196  0.5499 -0.0574
 4884TIP3    H136067   5.922   5.680   2.989 -1.9395 -0.4038  1.5926
 4884TIP3    H236068   5.886   5.533   2.989  1.8003 -1.3785  1.8550
 4885TIP3   OH236069   5.773   1.790   2.862 -0.0773  0.1318 -0.5997
 4885TIP3    H136070   5.727   1.770   2.780  0.7628 -1.5727 -0.6753
 4885TIP3    H236071   5.864   1.804   2.836 -0.1761  1.5761 -0.2023
 4886TIP3   OH236072   5.599   5.356   3.180 -0.1599  0.0428 -0.1052
 4886TIP3    H136073   5.686   5.322   3.160 -0.8444 -0.1113 -3.0871
 4886TIP3    H236074   5.562   5.293   3.241  1.0600 -0.9755 -0.4048
 4887TIP3   OH236075   5.316   6.708   2.530 -0.1111  0.1209  0.0437
 4887TIP3    H136076   5.405   6.716   2.562  0.3023  1.9202 -1.3975
 4887TIP3    H236077   5.271   6.653   2.593  1.4173  1.1376  2.0542
 4888TIP3   OH236078   2.299   0.529   1.715  0.2879 -0.3572  0.5370
 4888TIP3    H136079   2.215   0.485   1.723 -1.3517  1.9293 -2.5274
 4888TIP3    H236080   2.290   0.608   1.768 -0.4598  1.0689 -1.6198
 4889TIP3   OH236081   2.872   5.234  12.685 -0.1957  0.1477 -0.5164
 4889TIP3    H136082   2.875   5.140  12.666  0.3729  0.1880 -0.6384
 4889TIP3    H236083   2.834   5.239  12.773  0.2023 -0.2232 -0.3210
 4890TIP3   OH236084   1.524   1.588  10.566 -0.3453  0.1761  0.0965
 4890TIP3    H136085   1.452   1.615  10.623  1.2407 -0.2950  2.3742
 4890TIP3    H236086   1.591   1.655  10.579  1.4314 -1.8228  1.5278
 4891TIP3   OH236087   4.359   2.690   0.283 -0.2561  0.7187  0.4491
 4891TIP3    H136088   4.363   2.785   0.291  2.8013  0.4412  3.1856
 4891TIP3    H236089   4.404   2.670   0.201  1.4705  1.4797  1.1995
 4892TIP3   OH236090   2.212   3.526   2.713  0.2542 -0.3866 -0.0675
 4892TIP3    H136091   2.289   3.582   2.720  0.5897 -0.7735 -0.5457
 4892TIP3    H236092   2.243   3.440   2.741 -0.9462  0.2073  3.3503
 4893TIP3   OH236093   6.165   5.171   3.303  0.3561  0.1451  0.5293
 4893TIP3    H136094   6.148   5.098   3.243  0.8043  0.5916 -0.1435
 4893TIP3    H236095   6.222   5.134   3.370  2.1395  0.3467 -0.8370
 4894TIP3   OH236096   1.942   1.507  14.769 -0.6444  0.0992  0.4066
 4894TIP3    H136097   1.942   1.602  14.762 -1.2609  0.0088 -0.9970
 4894TIP3    H236098   1.860   1.486  14.814 -0.3929  0.2477  0.9308
 4895TIP3   OH236099   0.191   2.828   2.626 -0.2415  0.2114 -0.3906
 4895TIP3    H136100   0.238   2.866   2.701  0.9756 -1.7457 -0.1159
 4895TIP3    H236101   0.121   2.777   2.666 -0.7470  0.6760 -0.6791
 4896TIP3   OH236102   4.598   1.663   4.357 -0.4096 -0.2249 -0.6635
 4896TIP3    H136103   4.653   1.618   4.421 -1.1976 -1.5124 -0.8777
 4896TIP3    H236104   4.636   1.639   4.272 -1.2573 -1.0680 -0.8088
 4897TIP3   OH236105   5.540   2.293   2.365 -0.1821  0.0636 -0.1241
 4897TIP3    H136106   5.554   2.328   2.277 -1.1878  0.7745  0.0003
 4897TIP3    H236107   5.576   2.360   2.423 -0.8018  0.2363  0.0600
 4898TIP3   OH236108   4.551   0.226   1.304  0.0894  0.0657  0.7234
 4898TIP3    H136109   4.513   0.311   1.324 -0.4473 -0.0077  0.0503
 4898TIP3    H236110   4.643   0.243   1.286  0.0682  0.4466  0.9897
 4899TIP3   OH236111   1.205   1.970   3.259  0.2263  0.1575  0.0247
 4899TIP3    H136112   1.218   2.027   3.183 -0.8201  1.7912  1.0554
 4899TIP3    H236113   1.129   2.006   3.304  0.4112 -1.2114  1.4843
 4900TIP3   OH236114   0.776   5.789  12.035 -0.1092 -0.3723 -0.2766
 4900TIP3    H136115   0.758   5.811  12.126 -0.5961 -4.3443  0.7042
 4900TIP3    H236116   0.871   5.797  12.027 -0.0339 -0.2620  0.6675
 4901TIP3   OH236117   1.196   0.646   4.920 -0.5140 -0.3723  0.2430
 4901TIP3    H136118   1.277   0.618   4.962 -0.4790 -0.5217  0.0787
 4901TIP3    H236119   1.193   0.596   4.838 -0.7882 -0.3928  0.2643
 4902TIP3   OH236120   5.244   1.689   0.037 -0.4727  0.2533 -0.4091
 4902TIP3    H136121   5.153   1.717   0.048 -0.2778  0.1651  1.5485
 4902TIP3    H236122   5.271   1.660   0.124  0.4528 -2.7252 -1.6380
 4903TIP3   OH236123   4.869   1.757   5.724 -0.3013 -0.0398  0.1652
 4903TIP3    H136124   4.809   1.831   5.712  1.2817  1.2822  0.2033
 4903TIP3    H236125   4.888   1.757   5.818  1.6649  1.1070 -0.2031
 4904TIP3   OH236126   5.928   0.333  14.118  0.5758  0.3287  0.3070
 4904TIP3    H136127   5.929   0.237  14.125  2.2614  0.2830 -0.2084
 4904TIP3    H236128   5.856   0.351  14.057  0.7118 -0.6613 -0.1724
 4905TIP3   OH236129   6.106   0.575  13.391 -0.1103 -0.0147 -0.0672
 4905TIP3    H136130   6.064   0.489  13.399  1.0918 -0.5205  0.9741
 4905TIP3    H236131   6.193   0.556  13.355  0.3792  0.6940  0.7242
 4906TIP3   OH236132   6.496   4.670  17.187 -0.5404  0.5882 -0.4133
 4906TIP3    H136133   6.465   4.643  17.101 -2.1267 -0.3592  0.4269
 4906TIP3    H236134   6.568   4.730  17.169  0.3946 -1.0682 -2.3804
 4907TIP3   OH236135   0.736   4.169  16.667 -0.5665 -0.0431  0.3413
 4907TIP3    H136136   0.771   4.210  16.746 -2.5112 -0.1448  1.2848
 4907TIP3    H236137   0.746   4.075  16.683 -1.1675 -0.0695  0.5606
 4908TIP3   OH236138   5.725   3.572  16.744 -0.3238  0.0269  0.1482
 4908TIP3    H136139   5.689   3.544  16.828  2.1916  0.2590  1.3481
 4908TIP3    H236140   5.800   3.627  16.767  0.4526  0.0363 -2.2500
 4909TIP3   OH236141   4.004   5.725  15.343  0.3876 -0.0727  0.6391
 4909TIP3    H136142   4.024   5.790  15.410 -0.9647  0.1477  0.8515
 4909TIP3    H236143   3.926   5.680  15.376  0.6987 -1.0962  0.0023
 4910TIP3   OH236144   0.069   0.351  13.720 -0.2825  0.4554 -0.0766
 4910TIP3    H136145   0.161   0.325  13.724 -0.5984 -0.3912  2.6417
 4910TIP3    H236146   0.045   0.371  13.811 -2.2708  2.5235 -0.9964
 4911TIP3   OH236147   1.731   2.886  14.779  0.0094  0.4120  0.1647
 4911TIP3    H136148   1.803   2.893  14.842 -0.0065  1.0226  0.1139
 4911TIP3    H236149   1.655   2.865  14.833  0.0464  0.6770  0.3213
 4912TIP3   OH236150   1.366   0.422   3.838 -0.7974 -0.0156 -0.9364
 4912TIP3    H136151   1.355   0.392   3.928  1.3763  0.2614 -0.5361
 4912TIP3    H236152   1.430   0.362   3.800 -1.4381  0.0764 -2.1871
 4913TIP3   OH236153   0.127   0.634   0.412  0.4707  0.3894  0.0194
 4913TIP3    H136154   0.204   0.647   0.356  0.4724  1.6502  0.2852
 4913TIP3    H236155   0.058   0.607   0.352  0.4865  1.6848 -0.5955
 4914TIP3   OH236156   3.001   1.637   5.844  0.0651 -0.0191  0.2714
 4914TIP3    H136157   2.951   1.718   5.857 -1.0207 -0.4687 -1.0051
 4914TIP3    H236158   2.950   1.571   5.891 -0.1701 -0.3369 -0.4158
 4915TIP3   OH236159   5.371   1.980   1.398  0.1364  0.4485 -0.9387
 4915TIP3    H136160   5.448   1.960   1.346 -0.7108  1.4981 -2.6512
 4915TIP3    H236161   5.383   2.071   1.426  0.9171 -0.3277  1.3218
 4916TIP3   OH236162   1.407   6.173   0.851 -0.2301  0.7640 -0.9180
 4916TIP3    H136163   1.465   6.120   0.796 -1.0351 -3.8926  2.3805
 4916TIP3    H236164   1.319   6.148   0.823 -0.6184  0.0967  0.8122
 4917TIP3   OH236165   2.669   6.383  14.760  0.0535  0.9354 -0.0168
 4917TIP3    H136166   2.712   6.360  14.677 -0.5654 -1.1753  0.2203
 4917TIP3    H236167   2.740   6.395  14.822  0.3917 -1.4360  0.0963
 4918TIP3   OH236168   5.973   5.963   4.216  0.4055 -0.6533 -0.8272
 4918TIP3    H136169   5.997   5.990   4.305  0.3197 -0.5565 -0.8330
 4918TIP3    H236170   5.890   5.915   4.227  0.6507 -1.0749 -0.7938
 4919TIP3   OH236171   0.079   4.431  15.348 -0.5655  0.0228  0.8922
 4919TIP3    H136172   0.137   4.356  15.362 -1.2011 -0.5942  0.2608
 4919TIP3    H236173  -0.009   4.395  15.354 -0.9206  1.1303  2.8612
 4920TIP3   OH236174   0.435   2.709  12.981  0.2380  0.4005 -1.3498
 4920TIP3    H136175   0.342   2.731  12.985  0.0420 -0.4232 -1.1716
 4920TIP3    H236176   0.437   2.614  12.990  1.1258  0.4504 -0.9943
 4921TIP3   OH236177   1.757   3.043  14.073 -0.2010 -0.1049 -0.2038
 4921TIP3    H136178   1.697   2.969  14.080 -0.4133 -0.2736 -3.2882
 4921TIP3    H236179   1.701   3.117  14.051  0.6853 -0.3228 -3.4326
 4922TIP3   OH236180   0.660   5.152  13.928  0.0408 -0.5054 -0.4844
 4922TIP3    H136181   0.593   5.214  13.956  1.5328  1.4211 -1.1129
 4922TIP3    H236182   0.682   5.103  14.008 -1.9386 -1.0429 -0.2279
 4923TIP3   OH236183   0.175   2.156  16.884 -0.1761  0.5658 -0.5200
 4923TIP3    H136184   0.157   2.222  16.951  0.1289  1.4739 -1.3266
 4923TIP3    H236185   0.094   2.107  16.876 -0.2054  0.4117  0.5434
 4924TIP3   OH236186   5.134   4.141  16.124  0.1577 -0.2709 -0.0129
 4924TIP3    H136187   5.141   4.208  16.056  0.0996 -0.5899 -0.3419
 4924TIP3    H236188   5.070   4.176  16.186  0.1400 -0.0157 -0.1728
 4925TIP3   OH236189   5.683   4.273   6.210  0.1211  0.1720 -0.4648
 4925TIP3    H136190   5.665   4.367   6.207 -1.8989 -0.0752  2.0745
 4925TIP3    H236191   5.733   4.261   6.291  1.2301 -0.8129 -1.2829
 4926TIP3   OH236192   5.884   1.755  14.069 -0.3186 -0.6624 -0.8978
 4926TIP3    H136193   5.882   1.770  13.974 -0.5853 -0.2592 -0.8317
 4926TIP3    H236194   5.792   1.765  14.096 -0.3355 -1.3806 -0.6894
 4927TIP3   OH236195   3.849   4.032  14.349 -0.0803  0.5271 -0.3382
 4927TIP3    H136196   3.916   3.985  14.400  0.3510  0.5289 -0.8921
 4927TIP3    H236197   3.893   4.112  14.322 -0.8763  1.3412  0.7587
 4928TIP3   OH236198   5.993   1.288   5.481 -0.5527  0.4332  0.1848
 4928TIP3    H136199   5.980   1.383   5.483  0.9750  0.6506  0.8109
 4928TIP3    H236200   6.017   1.269   5.391  1.6855  1.0358  0.6172
 4929TIP3   OH236201   2.496   3.352   2.154 -0.2491  0.3513  0.3552
 4929TIP3    H136202   2.577   3.357   2.205 -0.3283 -0.6844  0.5788
 4929TIP3    H236203   2.508   3.417   2.085  0.7636  0.2284  0.4076
 4930TIP3   OH236204   3.480   2.651  13.760 -0.2246 -0.0136 -0.2105
 4930TIP3    H136205   3.424   2.670  13.835  0.4668  1.3971 -0.0409
 4930TIP3    H236206   3.488   2.734  13.714  1.2239 -0.3430 -0.5875
 4931TIP3   OH236207   4.128   2.123  10.690  0.8637  0.1101 -0.4710
 4931TIP3    H136208   4.053   2.181  10.701  0.9056  0.3134 -1.2318
 4931TIP3    H236209   4.106   2.046  10.742  0.0338  0.0855 -0.8494
 4932TIP3   OH236210   3.265   4.983   0.712  0.5485  0.9789  0.0862
 4932TIP3    H136211   3.282   5.077   0.703 -1.8287  1.3869 -0.3930
 4932TIP3    H236212   3.349   4.947   0.740  1.1739  3.4205  1.5286
 4933TIP3   OH236213   4.250   1.678  11.210  0.4529  0.3522  0.1479
 4933TIP3    H136214   4.293   1.592  11.214  1.7487  1.0464  1.5446
 4933TIP3    H236215   4.261   1.706  11.120 -0.6190 -1.2760 -0.5038
 4934TIP3   OH236216   0.766   2.801   3.492  0.0223  0.6133  0.2019
 4934TIP3    H136217   0.767   2.806   3.588  0.9873  0.9477  0.1892
 4934TIP3    H236218   0.738   2.712   3.472 -2.2185  1.1590  0.7534
 4935TIP3   OH236219   3.665   3.581   5.729 -0.1535 -0.3393  0.2756
 4935TIP3    H136220   3.751   3.565   5.690 -0.9617 -0.7386 -1.3662
 4935TIP3    H236221   3.627   3.494   5.739  0.5769 -0.3818  3.2833
 4936TIP3   OH236222   1.594   3.477   6.525  0.4043 -0.1556  1.4254
 4936TIP3    H136223   1.656   3.405   6.514  0.5466  0.4492 -2.3800
 4936TIP3    H236224   1.634   3.550   6.478 -1.5757  1.2549  1.8769
 4937TIP3   OH236225   0.492   2.368  12.938  0.0058  0.2074  0.2073
 4937TIP3    H136226   0.575   2.408  12.961  1.4157 -2.1977 -0.5418
 4937TIP3    H236227   0.494   2.361  12.843 -0.1623 -1.6388  0.3118
 4938TIP3   OH236228   5.294   3.819   3.860 -0.3666 -0.1287  0.1998
 4938TIP3    H136229   5.211   3.781   3.889  0.0250 -0.1343  1.3312
 4938TIP3    H236230   5.358   3.748   3.871  0.0140  0.2608  0.5394
 4939TIP3   OH236231   4.882   4.059   0.191  0.3992  0.3218 -0.0767
 4939TIP3    H136232   4.904   4.091   0.278 -0.1556  1.0236 -0.1892
 4939TIP3    H236233   4.961   4.016   0.160  0.3030 -0.7937  1.1628
 4940TIP3   OH236234   6.040   2.336  14.430  0.6003  0.2074  0.4118
 4940TIP3    H136235   6.040   2.242  14.448  1.8264  0.2482  0.6923
 4940TIP3    H236236   5.960   2.351  14.380  0.4027 -0.9939  0.3489
 4941TIP3   OH236237   6.529   3.888  15.946  0.1356 -0.0862 -0.5148
 4941TIP3    H136238   6.509   3.981  15.935 -1.4911 -0.3645 -0.1078
 4941TIP3    H236239   6.610   3.875  15.897 -1.2645  0.9166 -3.1806
 4942TIP3   OH236240   4.214   3.176  16.741 -0.6897 -0.4188 -0.7062
 4942TIP3    H136241   4.126   3.176  16.704 -0.6403  1.3574 -0.8713
 4942TIP3    H236242   4.201   3.196  16.834 -0.4767 -0.1773 -0.7275
 4943TIP3   OH236243   5.994   0.710   5.030  0.2647  0.3504 -0.3249
 4943TIP3    H136244   5.907   0.670   5.036  0.7068 -0.4454  1.0731
 4943TIP3    H236245   6.055   0.638   5.042  1.0976  1.2550  1.0492
 4944TIP3   OH236246   3.684   1.899   5.256  0.8850 -0.5328 -0.0331
 4944TIP3    H136247   3.658   1.989   5.275  0.2533 -0.7010 -0.0861
 4944TIP3    H236248   3.757   1.882   5.315  2.2319  0.6409 -1.3249
 4945TIP3   OH236249   4.074   2.880  15.407 -0.6137  0.3039 -0.1590
 4945TIP3    H136250   4.147   2.838  15.361  0.4685  1.7954  0.1959
 4945TIP3    H236251   4.055   2.821  15.480 -0.1233 -0.3652 -0.5673
 4946TIP3   OH236252   3.474   6.709  14.868  0.7175 -0.7340  0.3741
 4946TIP3    H136253   3.497   6.712  14.961 -0.6434 -1.6905  0.7625
 4946TIP3    H236254   3.382   6.681  14.867 -0.0366  1.6469 -1.1647
 4947TIP3   OH236255   4.259   3.254  14.156 -0.4330  0.1189 -0.2803
 4947TIP3    H136256   4.306   3.192  14.211 -0.5500  1.5154  1.4378
 4947TIP3    H236257   4.307   3.337  14.165 -1.8750  0.9863 -0.3067
 4948TIP3   OH236258   3.560   5.407   3.958 -0.1980  0.3515  0.0068
 4948TIP3    H136259   3.574   5.450   3.874  1.4427 -3.2008 -1.6638
 4948TIP3    H236260   3.632   5.438   4.013  0.1591  0.8203 -0.7098
 4949TIP3   OH236261   1.205   5.948   2.947 -0.6995  0.6841  0.5884
 4949TIP3    H136262   1.212   6.035   2.907 -2.4635  0.0868 -1.1001
 4949TIP3    H236263   1.296   5.921   2.961 -0.0394  1.3337 -2.1451
 4950TIP3   OH236264   5.142   1.310  11.627 -0.1320  0.0823  0.6070
 4950TIP3    H136265   5.110   1.387  11.674  0.3349  0.9531 -0.4705
 4950TIP3    H236266   5.214   1.343  11.573  0.1032 -1.1191  0.1758
 4951TIP3   OH236267   6.178   6.552   2.416 -0.6142 -0.5243 -0.4914
 4951TIP3    H136268   6.233   6.568   2.340 -0.1981  0.0155 -0.0777
 4951TIP3    H236269   6.172   6.456   2.422  0.3153 -0.5817 -0.4967
 4952TIP3   OH236270   3.339   0.528   5.540  0.1145  0.2379  0.0903
 4952TIP3    H136271   3.380   0.542   5.625 -0.3131  3.4770 -0.1706
 4952TIP3    H236272   3.400   0.566   5.477  0.3207 -1.9264 -1.0650
 4953TIP3   OH236273   6.640   6.308   4.506 -0.3675  0.2891 -0.1971
 4953TIP3    H136274   6.598   6.394   4.496  1.1111  0.8470 -1.7678
 4953TIP3    H236275   6.703   6.303   4.434  0.5291 -1.5519  0.6809
 4954TIP3   OH236276   1.216   1.938   0.638 -0.4259 -0.0812  0.5439
 4954TIP3    H136277   1.304   1.905   0.659  0.7969  2.1640 -0.8684
 4954TIP3    H236278   1.167   1.929   0.720  0.6011 -2.8436  0.9351
 4955TIP3   OH236279   5.926   1.967   5.405 -0.1133 -0.3416  0.2023
 4955TIP3    H136280   5.970   1.949   5.488 -2.4915  0.2668  1.6098
 4955TIP3    H236281   5.841   1.925   5.413 -0.8261  0.7464 -1.4501
 4956TIP3   OH236282   2.752   3.939  14.133 -0.6499 -0.1806  0.9116
 4956TIP3    H136283   2.705   3.859  14.159  1.5829 -1.4607  1.1742
 4956TIP3    H236284   2.746   3.940  14.037  1.0953 -1.8640  0.7442
 4957TIP3   OH236285   0.116   0.844  10.502  0.4160 -0.0340 -0.5143
 4957TIP3    H136286   0.139   0.933  10.477  0.9100 -0.0555 -0.1469
 4957TIP3    H236287   0.150   0.790  10.430 -1.8008  0.2507 -1.8022
 4958TIP3   OH236288   3.689   0.749   5.350  0.4406  0.0461 -0.1205
 4958TIP3    H136289   3.707   0.804   5.274  1.3628 -0.5246 -0.3214
 4958TIP3    H236290   3.741   0.787   5.421 -0.3647  0.5370  0.2076
 4959TIP3   OH236291   4.032   4.344   4.985 -0.2051 -0.2723  0.7950
 4959TIP3    H136292   4.005   4.326   5.075  0.8157  1.0199  1.3904
 4959TIP3    H236293   3.967   4.407   4.953  0.5518  0.8084  1.3301
 4960TIP3   OH236294   6.462   3.119   5.797 -0.4541  0.0947 -0.3981
 4960TIP3    H136295   6.510   3.073   5.729 -0.9774  2.5520 -2.5340
 4960TIP3    H236296   6.487   3.076   5.879  1.4448 -1.8720 -1.9731
 4961TIP3   OH236297   3.750   3.513   0.551  0.0145 -0.4557  0.3973
 4961TIP3    H136298   3.839   3.544   0.535  0.0447  1.4859  3.8079
 4961TIP3    H236299   3.695   3.570   0.499  0.5740  0.3142  0.6438
 4962TIP3   OH236300   6.063   0.279  10.548  0.0522  0.5307 -0.1710
 4962TIP3    H136301   6.107   0.346  10.496  1.7436  0.0769  0.6331
 4962TIP3    H236302   6.057   0.317  10.636 -0.3638  0.2385 -0.0733
 4963TIP3   OH236303   2.748   0.425  13.008 -0.2972  0.4542 -0.3496
 4963TIP3    H136304   2.754   0.506  13.058 -1.3682 -0.4437  1.2780
 4963TIP3    H236305   2.756   0.452  12.916  2.4150  2.0549  0.3007
 4964TIP3   OH236306   0.246   6.676  16.211 -0.0699  0.0067  0.2716
 4964TIP3    H136307   0.255   6.710  16.300  1.7181  0.8229 -0.2191
 4964TIP3    H236308   0.276   6.585  16.217  2.1888  0.7296  0.0382
 4965TIP3   OH236309   1.442   6.154   3.433 -0.1435  0.8685  0.2992
 4965TIP3    H136310   1.399   6.136   3.517  0.7559 -2.2850  0.1335
 4965TIP3    H236311   1.534   6.162   3.455  0.1000 -0.0148 -0.4024
 4966TIP3   OH236312   2.683   0.412  16.781  0.3227 -0.1596  0.2996
 4966TIP3    H136313   2.722   0.456  16.705 -1.1874  0.2050 -0.2783
 4966TIP3    H236314   2.741   0.338  16.798  0.3077 -0.6419 -1.6508
 4967TIP3   OH236315   0.579   0.567  14.082  0.0166  0.1090  0.1079
 4967TIP3    H136316   0.611   0.657  14.078  0.3607  0.1209  2.5951
 4967TIP3    H236317   0.550   0.556  14.172 -2.2328 -1.5458 -0.7864
 4968TIP3   OH236318   1.941   3.932   3.442  0.2889  0.0099 -0.1033
 4968TIP3    H136319   1.908   3.945   3.531  0.9034 -1.3693  0.3343
 4968TIP3    H236320   2.020   3.985   3.438  1.9867 -2.3384  1.2059
 4969TIP3   OH236321   6.753   6.271   0.062  0.0269  0.6707 -0.0882
 4969TIP3    H136322   6.768   6.255  -0.031  0.2543 -1.9549  0.3848
 4969TIP3    H236323   6.821   6.333   0.087  1.7664 -0.8374 -1.0214
 4970TIP3   OH236324   6.255   3.780   3.307 -0.1637 -0.5331  0.3707
 4970TIP3    H136325   6.286   3.797   3.218  1.6109  0.1881  1.1126
 4970TIP3    H236326   6.254   3.685   3.314  1.4291 -0.5700  0.1720
 4971TIP3   OH236327   0.352   3.996  12.479  0.0969 -0.1070 -0.7255
 4971TIP3    H136328   0.367   4.034  12.392 -0.6271  3.5234  0.6616
 4971TIP3    H236329   0.257   3.990  12.486  0.1620 -0.6185 -0.2545
 4972TIP3   OH236330   4.755   0.408   5.539  0.0899 -0.0699 -0.0701
 4972TIP3    H136331   4.685   0.436   5.599  0.8823 -0.5588  1.0889
 4972TIP3    H236332   4.711   0.400   5.454 -1.3635 -0.7416  0.7206
 4973TIP3   OH236333   3.147   4.236  13.516  0.4325  0.3726 -0.5831
 4973TIP3    H136334   3.055   4.226  13.491 -0.3128 -0.9983  2.4398
 4973TIP3    H236335   3.150   4.321  13.560  0.6726  0.5488 -0.9417
 4974TIP3   OH236336   4.128   2.912  13.338 -0.2973  0.8405  0.8259
 4974TIP3    H136337   4.064   2.855  13.381 -0.4374  0.7921  0.5573
 4974TIP3    H236338   4.080   2.950  13.265 -0.2520  1.4459  1.1122
 4975TIP3   OH236339   4.464   5.808  14.108  0.3657  0.2239 -0.3271
 4975TIP3    H136340   4.437   5.743  14.173 -0.3757  0.3313 -0.5246
 4975TIP3    H236341   4.556   5.825  14.128  0.3358 -0.2753  0.2447
 4976TIP3   OH236342   6.057   4.516   2.529  0.0795  0.1324 -0.8882
 4976TIP3    H136343   6.080   4.505   2.437 -0.5327  0.2668 -1.0583
 4976TIP3    H236344   5.986   4.580   2.529 -1.2929 -1.3661 -0.4840
 4977TIP3   OH236345   2.418   1.181   5.687 -0.2299  0.1781  0.1138
 4977TIP3    H136346   2.397   1.161   5.778 -0.6180  1.7560  0.3835
 4977TIP3    H236347   2.487   1.247   5.693 -0.4353  0.4730 -0.7388
 4978TIP3   OH236348   4.781   5.767  16.414 -0.4485 -0.2513  0.5235
 4978TIP3    H136349   4.817   5.685  16.447  1.7763 -0.4596 -2.2742
 4978TIP3    H236350   4.719   5.741  16.346 -0.7755  0.3373  0.5938
 4979TIP3   OH236351   2.381   3.279   3.923 -0.2633  0.0136  0.1546
 4979TIP3    H136352   2.454   3.262   3.983  1.4219  0.1430 -1.7822
 4979TIP3    H236353   2.376   3.374   3.918 -0.6616  0.0047  0.4013
 4980TIP3   OH236354   2.439   0.117  14.824  0.5402 -0.3301 -0.1103
 4980TIP3    H136355   2.437   0.185  14.890  3.3746 -0.2067 -0.0986
 4980TIP3    H236356   2.430   0.164  14.741  0.2412 -0.1812  0.0044
 4981TIP3   OH236357   5.305   2.959   0.566 -0.5023 -0.7682 -0.0707
 4981TIP3    H136358   5.283   3.048   0.595  1.2194 -0.7776  1.3386
 4981TIP3    H236359   5.244   2.903   0.614  0.0994 -0.5283  0.9851
 4982TIP3   OH236360   0.548   1.958  15.780 -0.5861 -0.2494  0.5682
 4982TIP3    H136361   0.596   2.028  15.825 -1.8372 -0.5195  2.4070
 4982TIP3    H236362   0.455   1.979  15.796 -1.0172 -1.1308 -0.7276
 4983TIP3   OH236363   4.615   6.627  12.908 -0.3932 -0.0713  0.1255
 4983TIP3    H136364   4.548   6.603  12.973  1.1468 -0.3608  1.6598
 4983TIP3    H236365   4.583   6.708  12.869 -1.7929 -0.3732  0.6187
 4984TIP3   OH236366   2.872   2.451  15.594 -0.4125  0.2396 -0.2405
 4984TIP3    H136367   2.789   2.409  15.573  1.0951 -2.3472 -1.3022
 4984TIP3    H236368   2.855   2.502  15.673 -2.9063 -0.4934 -0.2739
 4985TIP3   OH236369   5.688   4.771   5.409 -0.3322 -0.1639 -0.2898
 4985TIP3    H136370   5.737   4.804   5.334  0.8835 -0.0761  0.5160
 4985TIP3    H236371   5.697   4.839   5.476  1.9977 -1.9466  1.3004
 4986TIP3   OH236372   2.480   2.958   4.223  0.0779  0.5266 -0.2618
 4986TIP3    H136373   2.385   2.954   4.221  0.0872 -1.9826  1.9486
 4986TIP3    H236374   2.500   3.042   4.265 -1.1946  0.3536  0.7072
 4987TIP3   OH236375   5.344   4.268  12.502  0.0883 -0.2192 -0.2246
 4987TIP3    H136376   5.415   4.256  12.439 -0.0349  0.1455 -0.4392
 4987TIP3    H236377   5.313   4.179  12.520  0.3097 -0.3494 -0.4661
 4988TIP3   OH236378   2.166   4.316   3.760  0.6461  0.2950 -0.2997
 4988TIP3    H136379   2.259   4.312   3.781 -0.0906  0.9773  3.3564
 4988TIP3    H236380   2.149   4.409   3.745  0.4989  0.1786 -0.8875
 4989TIP3   OH236381   4.660   4.712  14.750  0.4117 -0.4465  0.2921
 4989TIP3    H136382   4.690   4.638  14.802 -0.4899 -1.6832 -0.9077
 4989TIP3    H236383   4.611   4.766  14.811  1.8720 -0.3330  1.3969
 4990TIP3   OH236384   0.484   1.590  12.119 -0.0952 -0.0245  0.3320
 4990TIP3    H136385   0.413   1.653  12.132 -0.1177 -0.0971  0.5675
 4990TIP3    H236386   0.522   1.579  12.206  0.0657 -0.1501  0.2440
 4991TIP3   OH236387   4.695   2.802  17.220 -0.2937 -0.6672  0.0470
 4991TIP3    H136388   4.774   2.769  17.263 -0.3031 -0.5712  0.1381
 4991TIP3    H236389   4.626   2.742  17.248 -0.2282 -0.8328 -0.1412
 4992TIP3   OH236390   1.238   2.210  10.942 -0.7349  0.4377 -0.2045
 4992TIP3    H136391   1.176   2.188  10.872 -0.5181 -1.9642  0.3179
 4992TIP3    H236392   1.239   2.133  10.999  0.1904  1.7841  1.6675
 4993TIP3   OH236393   4.984   4.863  14.471 -0.4742 -0.2825  0.0253
 4993TIP3    H136394   4.956   4.880  14.381  0.3046  0.4267 -0.1026
 4993TIP3    H236395   5.030   4.944  14.496 -1.8151  0.0306  1.5142
 4994TIP3   OH236396   1.466   5.750   4.408 -0.0631 -0.6637 -0.2441
 4994TIP3    H136397   1.495   5.679   4.352  0.8089 -1.3807  1.0860
 4994TIP3    H236398   1.542   5.808   4.414  0.4937 -1.5412  1.6626
 4995TIP3   OH236399   2.646   5.502  12.163 -0.0993 -1.0342  0.2320
 4995TIP3    H136400   2.561   5.468  12.134  0.0798 -0.4392 -0.9978
 4995TIP3    H236401   2.626   5.589  12.198  0.1507 -0.4978 -0.9581
 4996TIP3   OH236402   2.355   5.999   3.476  0.1745 -0.2224  0.6104
 4996TIP3    H136403   2.441   6.037   3.458  0.1449  0.0439  1.0330
 4996TIP3    H236404   2.292   6.064   3.445  0.1099 -1.1288 -1.2378
 4997TIP3   OH236405   4.176   0.793   0.784  0.2181  0.1002 -0.3873
 4997TIP3    H136406   4.099   0.741   0.807  0.4903 -0.9213 -1.7274
 4997TIP3    H236407   4.241   0.729   0.757  0.0710  1.1873 -3.4845
 4998TIP3   OH236408   5.046   6.646   1.354 -0.2956  0.4678 -0.0176
 4998TIP3    H136409   5.117   6.706   1.329  0.3037 -0.3893 -0.3889
 4998TIP3    H236410   4.989   6.644   1.278  0.1413 -0.0948 -0.3368
 4999TIP3   OH236411   4.573   3.731  16.382 -0.4817 -0.3187 -0.4968
 4999TIP3    H136412   4.527   3.730  16.299  1.6184 -0.9206 -1.6839
 4999TIP3    H236413   4.642   3.797  16.371  1.2246 -1.9773 -0.0715
 5000TIP3   OH236414   3.843   5.512   2.146 -0.1934  0.1372  0.3358
 5000TIP3    H136415   3.768   5.489   2.201  0.6422 -2.4195  0.4786
 5000TIP3    H236416   3.914   5.526   2.208 -0.4510  2.3016  0.1833
 5001TIP3   OH236417   1.310   0.087   5.368  0.6321 -0.6014  0.8114
 5001TIP3    H136418   1.323   0.055   5.278 -1.1105 -2.7023  1.2574
 5001TIP3    H236419   1.277   0.011   5.416  0.2372  0.8538  2.9160
 5002TIP3   OH236420   3.885   0.191   4.738  0.0286 -0.2188  0.7689
 5002TIP3    H136421   3.796   0.219   4.757  0.2858  0.2081  1.3646
 5002TIP3    H236422   3.937   0.228   4.809  0.3964 -2.0411  1.4948
 5003TIP3   OH236423   1.261   0.301  16.290 -0.3533  0.3220 -0.0471
 5003TIP3    H136424   1.319   0.258  16.228 -1.0799  0.1875 -0.6445
 5003TIP3    H236425   1.318   0.360  16.340  0.3507 -0.0800 -0.3771
 5004TIP3   OH236426   3.601   3.214   1.973 -0.5791  0.1775  0.3285
 5004TIP3    H136427   3.525   3.163   1.946 -0.2381  0.1738 -0.6658
 5004TIP3    H236428   3.564   3.295   2.008 -1.0972 -0.5212  1.4206
 5005TIP3   OH236429   1.609   3.974   3.509  0.2617  0.0964  0.1899
 5005TIP3    H136430   1.684   3.984   3.568  0.8099  0.7698 -0.6147
 5005TIP3    H236431   1.643   3.996   3.423 -0.8319  0.2563 -0.2059
 5006TIP3   OH236432   5.882   4.200   5.279 -0.3708 -0.9730  0.1696
 5006TIP3    H136433   5.940   4.211   5.355 -0.0157 -2.3140  0.1021
 5006TIP3    H236434   5.931   4.238   5.206 -0.6836  0.2533  0.5842
 5007TIP3   OH236435   4.452   3.365   5.472  0.0702 -0.3946  0.1092
 5007TIP3    H136436   4.424   3.383   5.382 -0.4002 -1.5184  0.0189
 5007TIP3    H236437   4.534   3.317   5.462 -0.5058 -1.4262  0.2413
 5008TIP3   OH236438   4.332   1.453  16.102  0.1331 -0.2606  0.3998
 5008TIP3    H136439   4.338   1.381  16.166 -1.9498  0.5956  1.6397
 5008TIP3    H236440   4.413   1.502  16.113  0.3181 -0.8074  1.5628
 5009TIP3   OH236441   2.928   3.056  12.557 -0.4632  0.0587  0.0796
 5009TIP3    H136442   2.883   2.981  12.597 -2.2014  0.6265 -0.7338
 5009TIP3    H236443   2.864   3.092  12.496  0.3070  2.2888  0.5381
 5010TIP3   OH236444   5.058   3.234  12.811  0.3534 -0.0134  0.3906
 5010TIP3    H136445   5.108   3.297  12.759  1.1580 -0.0525  1.1014
 5010TIP3    H236446   4.994   3.198  12.751 -0.4660  1.8921  0.0985
 5011TIP3   OH236447   6.043   0.892  14.854 -0.8336  0.0817  0.3500
 5011TIP3    H136448   5.984   0.865  14.783 -0.5353 -0.4996  0.3273
 5011TIP3    H236449   6.044   0.988  14.848  1.3135 -0.0102 -2.2025
 5012TIP3   OH236450   3.304   3.678   2.007 -0.9611 -0.1037 -0.0412
 5012TIP3    H136451   3.272   3.695   1.918 -1.5862  1.1772  0.4189
 5012TIP3    H236452   3.227   3.686   2.063 -1.1707 -3.9156  0.3132
 5013TIP3   OH236453   3.078   1.626  11.795 -0.0040 -0.0770 -0.3358
 5013TIP3    H136454   3.002   1.570  11.812 -1.0397  0.6750 -2.2834
 5013TIP3    H236455   3.113   1.647  11.881 -0.8836 -1.9688  0.5100
 5014TIP3   OH236456   3.033   0.735   5.688  0.0257 -0.4716  0.1498
 5014TIP3    H136457   2.947   0.747   5.728  1.3603  1.2998  2.6130
 5014TIP3    H236458   3.050   0.642   5.694 -0.7090 -0.5010  1.8074
 5015TIP3   OH236459   2.955   3.560   1.031  0.1112  0.3550 -0.2024
 5015TIP3    H136460   2.862   3.555   1.054  0.0457  0.8557 -0.3563
 5015TIP3    H236461   2.998   3.590   1.111  0.1361  0.1583 -0.1420
 5016TIP3   OH236462   3.726   2.209   1.246  0.5797  0.1933  0.0017
 5016TIP3    H136463   3.681   2.272   1.304 -1.1261 -0.1354 -0.9285
 5016TIP3    H236464   3.814   2.245   1.236  0.0466  1.7307  0.5802
 5017TIP3   OH236465   6.120   1.882  16.560 -0.1988  0.4096  0.0395
 5017TIP3    H136466   6.118   1.888  16.655 -0.1234  0.5297  0.0349
 5017TIP3    H236467   6.028   1.891  16.534 -0.0720  1.7720  0.0262
 5018TIP3   OH236468   5.983   6.533  15.841 -0.1587  0.1460  0.6481
 5018TIP3    H136469   5.972   6.614  15.792  1.2050  1.2197  2.0495
 5018TIP3    H236470   5.895   6.496  15.847 -0.4368  0.3177 -1.9974
 5019TIP3   OH236471   6.570   0.248  13.375  0.4202 -0.0472 -0.3321
 5019TIP3    H136472   6.504   0.318  13.376  0.2695 -0.1941  0.1002
 5019TIP3    H236473   6.599   0.241  13.466 -1.0906 -1.9931  0.0299
 5020TIP3   OH236474   4.787   0.665   4.730  0.3579  0.1631  0.1554
 5020TIP3    H136475   4.833   0.737   4.687  0.0785 -0.9789 -2.1331
 5020TIP3    H236476   4.843   0.589   4.716 -0.2455 -0.4309  0.9341
 5021TIP3   OH236477   5.621   5.276   5.982  0.7455 -0.1535  0.0640
 5021TIP3    H136478   5.658   5.234   5.904  0.8709  1.3680 -0.7098
 5021TIP3    H236479   5.620   5.207   6.048  0.8940 -1.3892 -1.2033
 5022TIP3   OH236480   4.010   1.021   4.621 -0.2462  0.8314  0.0102
 5022TIP3    H136481   4.039   0.964   4.551 -0.8912  1.0066 -0.4009
 5022TIP3    H236482   3.963   0.964   4.681 -1.2710  1.0024 -0.6219
 5023TIP3   OH236483   3.306   6.297  11.670  0.3372  0.4029 -0.3991
 5023TIP3    H136484   3.241   6.259  11.728  1.0632 -0.6246 -0.2411
 5023TIP3    H236485   3.261   6.370  11.628 -0.8928 -0.2562 -0.2463
 5024TIP3   OH236486   1.571   5.780   4.097  0.4266  0.5797  0.1762
 5024TIP3    H136487   1.551   5.863   4.140  1.6356  1.2087 -0.4516
 5024TIP3    H236488   1.516   5.780   4.019  2.4412  2.0963 -1.3000
 5025TIP3   OH236489   5.759   2.172  12.046 -0.5302 -0.3096  0.1091
 5025TIP3    H136490   5.695   2.237  12.017 -0.7078 -0.8808 -0.8148
 5025TIP3    H236491   5.709   2.112  12.102 -0.1879  0.7951  1.6268
 5026TIP3   OH236492   0.278   0.973  11.996 -0.3340  0.3488  0.0606
 5026TIP3    H136493   0.183   0.986  11.992 -0.3428 -0.0520 -1.5275
 5026TIP3    H236494   0.313   1.031  11.927  0.6526  1.1168  1.1800
 5027TIP3   OH236495   3.324   2.610   5.217  0.3830 -0.0182 -0.6220
 5027TIP3    H136496   3.249   2.612   5.158 -0.3619 -0.7365  0.2832
 5027TIP3    H236497   3.396   2.579   5.163 -0.5002 -1.6152 -0.9319
 5028TIP3   OH236498   2.555   1.517  12.593  0.4172 -0.0634  0.1517
 5028TIP3    H136499   2.511   1.498  12.510 -0.5057 -1.8015  0.9935
 5028TIP3    H236500   2.603   1.598  12.577  0.7064 -0.6528 -2.2355
 5029TIP3   OH236501   2.926   1.571  12.981  0.2735  0.1660 -0.3322
 5029TIP3    H136502   2.836   1.602  12.976  0.6921  1.3746 -0.4514
 5029TIP3    H236503   2.920   1.478  12.961 -1.0643  0.0447  0.5309
 5030TIP3   OH236504   1.549   5.254   4.993 -0.9572  0.4619  0.1023
 5030TIP3    H136505   1.502   5.307   4.929 -0.2055  0.7793 -0.1784
 5030TIP3    H236506   1.558   5.168   4.952  0.1857  0.8764 -0.5246
 5031TIP3   OH236507   4.579   0.950  11.915 -0.7217  0.3906  0.3193
 5031TIP3    H136508   4.615   0.917  11.997  0.7730  0.9386 -0.1149
 5031TIP3    H236509   4.498   0.900  11.903  0.8154 -2.2092  0.3348
 5032TIP3   OH236510   6.469   1.954  11.541 -0.1620  0.0529  0.3752
 5032TIP3    H136511   6.515   2.032  11.572  0.6283 -0.5838  0.8375
 5032TIP3    H236512   6.538   1.888  11.531 -0.6154 -0.1779 -1.3626
 5033TIP3   OH236513   3.004   1.078  11.390  0.0278 -0.3653 -0.3605
 5033TIP3    H136514   3.032   1.152  11.444 -0.0629 -1.3495  1.0665
 5033TIP3    H236515   2.967   1.118  11.311 -1.0080  1.1433  0.8704
 5034TIP3   OH236516   5.687   2.240   5.679 -0.3646 -0.1633  0.9594
 5034TIP3    H136517   5.662   2.281   5.596  0.2119 -1.8141 -0.0430
 5034TIP3    H236518   5.648   2.296   5.746  0.5324  2.1167 -0.3697
 5035TIP3   OH236519   1.255   2.916   5.929  0.2362  0.3984 -0.1525
 5035TIP3    H136520   1.232   2.847   5.867  0.0634 -0.8459  1.2795
 5035TIP3    H236521   1.220   2.996   5.890 -0.2232 -0.4250 -1.4595
 5036TIP3   OH236522   1.969   0.092   0.908  0.2732 -0.6751 -0.2602
 5036TIP3    H136523   1.926   0.015   0.869 -1.5958 -1.3343  2.9213
 5036TIP3    H236524   2.017   0.057   0.984  0.5086  1.1017  0.4409
 5037TIP3   OH236525   2.688   3.306  14.283  0.1140 -0.4562 -0.6826
 5037TIP3    H136526   2.771   3.348  14.303 -1.1186  2.3898 -1.3515
 5037TIP3    H236527   2.623   3.376  14.288 -2.0405 -2.2952 -1.7636
 5038TIP3   OH236528   5.478   3.714  16.670 -0.8917  0.5035 -0.0613
 5038TIP3    H136529   5.451   3.749  16.585 -0.0334  2.0812  0.2970
 5038TIP3    H236530   5.568   3.683  16.656 -0.7973  0.6394  0.2347
 5039TIP3   OH236531   4.284   2.650   3.520 -0.2738  0.2079 -0.1159
 5039TIP3    H136532   4.195   2.680   3.502 -0.5643 -0.8947 -0.5761
 5039TIP3    H236533   4.294   2.571   3.467  0.6683 -0.1875  0.6273
 5040TIP3   OH236534   1.249   1.394  10.703 -0.2244  0.5812 -0.4037
 5040TIP3    H136535   1.298   1.466  10.744 -1.0972  0.6263  0.6101
 5040TIP3    H236536   1.159   1.426  10.700  0.0043  1.0691 -3.5585
 5041TIP3   OH236537   4.708   4.798  14.385 -0.0908 -0.2806 -0.5894
 5041TIP3    H136538   4.773   4.809  14.454 -1.7406 -0.1633  0.9750
 5041TIP3    H236539   4.653   4.726  14.414 -2.2515  1.2863 -0.6076
 5042TIP3   OH236540   6.478   2.785   4.358 -0.1025 -0.5692  0.8394
 5042TIP3    H136541   6.484   2.843   4.434  0.5868 -0.7265  0.9081
 5042TIP3    H236542   6.514   2.837   4.286 -0.2060 -0.6300  0.7445
 5043TIP3   OH236543   3.119   1.321  15.375  0.2604 -0.3217 -0.1278
 5043TIP3    H136544   3.200   1.294  15.331 -1.4707  0.1893 -3.8047
 5043TIP3    H236545   3.131   1.414  15.394  0.7604 -0.3746 -0.1935
 5044TIP3   OH236546   5.059   1.437   6.303  0.1776  0.1266  0.0052
 5044TIP3    H136547   5.146   1.426   6.341 -0.2616  0.2245  1.0429
 5044TIP3    H236548   5.055   1.372   6.233  1.2500  0.4228 -0.3361
 5045TIP3   OH236549   2.138   5.725  14.731 -0.0281  0.2306  0.5121
 5045TIP3    H136550   2.108   5.731  14.640  1.3515  1.6798  0.1396
 5045TIP3    H236551   2.114   5.810  14.770  0.7260  0.1883  1.0804
 5046TIP3   OH236552   5.628   1.729   4.712 -0.2529  0.3433 -0.3032
 5046TIP3    H136553   5.537   1.756   4.706  0.0519  0.9716 -2.3922
 5046TIP3    H236554   5.624   1.635   4.728 -1.2699  0.3240 -0.6474
 5047TIP3   OH236555   3.245   5.546   4.454  0.2513 -0.6642  0.4125
 5047TIP3    H136556   3.223   5.466   4.406  0.5877 -0.3008 -0.3493
 5047TIP3    H236557   3.318   5.584   4.405 -0.3410  0.4594  0.3979
 5048TIP3   OH236558   0.359   4.318   3.353  0.1613 -0.3170  0.7584
 5048TIP3    H136559   0.340   4.310   3.259 -0.9324  2.0414  0.7429
 5048TIP3    H236560   0.453   4.302   3.360  0.2983 -0.2374 -0.7724
 5049TIP3   OH236561   1.633   1.768  14.946  0.2755  0.3858 -0.1259
 5049TIP3    H136562   1.586   1.734  14.871 -0.3174 -0.2111  0.5110
 5049TIP3    H236563   1.591   1.728  15.022  0.2085  1.7596  0.5818
 5050TIP3   OH236564   1.056   0.463  15.961 -0.2343  0.8264 -0.3238
 5050TIP3    H136565   0.972   0.470  15.914 -0.0111  1.3793 -0.6487
 5050TIP3    H236566   1.049   0.528  16.030 -0.9366 -0.6407  1.0077
 5051TIP3   OH236567   3.152   4.587   5.991  0.2296  0.5859  0.0331
 5051TIP3    H136568   3.222   4.632   5.945  0.3657 -0.3725 -0.7200
 5051TIP3    H236569   3.166   4.494   5.971 -0.4457  0.2719  0.9883
 5052TIP3   OH236570   6.729   1.890   0.817 -0.0870  0.8516 -0.0583
 5052TIP3    H136571   6.666   1.835   0.772 -1.9618 -0.0709  3.4801
 5052TIP3    H236572   6.693   1.979   0.812 -0.0282  0.8337 -0.7849
 5053TIP3   OH236573   2.712   2.072   0.896 -0.2098  0.3219 -0.6829
 5053TIP3    H136574   2.633   2.020   0.883 -0.5439  0.7798 -0.4798
 5053TIP3    H236575   2.699   2.150   0.843 -0.7998  1.3565  0.9503
 5054TIP3   OH236576   0.546   5.180   5.140  0.3390 -0.3429 -0.7681
 5054TIP3    H136577   0.492   5.259   5.133  1.6899  0.6519 -0.2298
 5054TIP3    H236578   0.521   5.128   5.064 -0.8432  0.4276 -0.9364
 5055TIP3   OH236579   0.315   3.391   1.287 -0.1326  0.5197  0.0884
 5055TIP3    H136580   0.286   3.408   1.197 -3.2752 -0.8962  0.7697
 5055TIP3    H236581   0.344   3.477   1.320 -3.3377  1.9889 -0.7710
 5056TIP3   OH236582   1.514   5.552  13.353  0.6022  0.1555 -0.0934
 5056TIP3    H136583   1.473   5.517  13.432  1.3257  0.4595  0.4271
 5056TIP3    H236584   1.535   5.474  13.301 -0.3855 -0.0123 -0.2459
 5057TIP3   OH236585   5.912   6.351   0.593  0.2560 -0.0971  0.3922
 5057TIP3    H136586   5.827   6.392   0.613  0.4160  1.3016 -1.7104
 5057TIP3    H236587   5.958   6.415   0.539  3.0776 -0.4431  2.2901
 5058TIP3   OH236588   1.255   6.133  15.085  0.2402  0.4365  0.0787
 5058TIP3    H136589   1.308   6.195  15.136  2.9157 -0.7014 -1.1997
 5058TIP3    H236590   1.236   6.180  15.004 -0.3337  0.6730  0.3468
 5059TIP3   OH236591   3.435   3.372   5.741  0.1499  0.5386  0.2341
 5059TIP3    H136592   3.365   3.341   5.798  0.6634 -0.1467  0.5020
 5059TIP3    H236593   3.451   3.300   5.680 -1.3114  1.7627 -1.6658
 5060TIP3   OH236594   1.959   0.106   4.506  0.1470  0.3830 -0.4866
 5060TIP3    H136595   1.863   0.105   4.507  0.1491 -0.6336  2.5524
 5060TIP3    H236596   1.981   0.185   4.458 -2.2266  1.7399  0.5696
 5061TIP3   OH236597   3.804   0.362   4.019  0.0303  0.0561 -0.0199
 5061TIP3    H136598   3.720   0.376   4.063  0.9928  2.2354  1.2415
 5061TIP3    H236599   3.804   0.269   3.997 -2.8720  0.0884 -0.4214
 5062TIP3   OH236600   5.943   0.958   3.180 -0.0075 -0.4128 -0.4598
 5062TIP3    H136601   5.950   0.923   3.091 -1.1462  1.0019 -1.1267
 5062TIP3    H236602   5.914   0.883   3.232 -0.3005 -1.0163 -1.4686
 5063TIP3   OH236603   1.523   4.501   2.434  0.4224 -0.3181 -0.3397
 5063TIP3    H136604   1.593   4.562   2.411  1.3809 -0.1253  2.8280
 5063TIP3    H236605   1.559   4.415   2.416  0.4536 -0.1007 -1.3210
 5064TIP3   OH236606   1.251   6.001   0.544 -0.0797 -0.0712 -0.1725
 5064TIP3    H136607   1.336   6.039   0.570  0.4501 -1.8521  0.7622
 5064TIP3    H236608   1.205   5.989   0.627  0.0725 -2.1745 -0.3796
 5065TIP3   OH236609   0.679   1.675  16.680  0.2962 -0.7257  0.8057
 5065TIP3    H136610   0.659   1.759  16.639  0.2582 -1.4229 -0.6324
 5065TIP3    H236611   0.647   1.684  16.770 -0.3623  0.5487  0.4561
 5066TIP3   OH236612   2.515   2.425  14.409  0.2556 -0.5699 -0.0443
 5066TIP3    H136613   2.575   2.351  14.398  0.2841 -0.3498 -1.4267
 5066TIP3    H236614   2.559   2.482  14.471  1.6106 -0.2851 -1.2493
 5067TIP3   OH236615   1.784   1.886   3.981  0.0521 -0.2341  0.2928
 5067TIP3    H136616   1.703   1.917   4.022 -2.5829 -1.8524 -3.3266
 5067TIP3    H236617   1.794   1.797   4.013  0.6236  0.1034  1.0507
 5068TIP3   OH236618   6.664   3.354   2.865 -0.6440  0.7400 -0.3049
 5068TIP3    H136619   6.727   3.318   2.803 -2.3129 -1.5871 -0.7154
 5068TIP3    H236620   6.603   3.405   2.811 -2.3450 -1.6326 -0.7147
 5069TIP3   OH236621   4.435   1.104  16.509  0.2116 -0.0297  0.1780
 5069TIP3    H136622   4.477   1.096  16.424  0.3362 -1.3275  0.3502
 5069TIP3    H236623   4.507   1.096  16.572 -0.1071 -0.9773  0.4408
 5070TIP3   OH236624   6.688   1.952  11.343 -0.0756 -0.1595  0.1456
 5070TIP3    H136625   6.614   1.987  11.293 -0.0888  2.6133  2.0100
 5070TIP3    H236626   6.705   2.018  11.411  2.9391 -1.5960  0.8837
 5071TIP3   OH236627   6.399   0.904   5.000 -0.5950 -0.8034  0.5162
 5071TIP3    H136628   6.443   0.822   4.977  0.2437 -0.7751  1.9421
 5071TIP3    H236629   6.404   0.907   5.096 -0.7208  0.8634  0.4733
 5072TIP3   OH236630   3.670   0.151  14.857 -0.4955 -0.5325  0.2157
 5072TIP3    H136631   3.610   0.078  14.871 -0.0347 -0.9930 -0.1696
 5072TIP3    H236632   3.727   0.121  14.785  0.0737 -0.0341  0.4611
 5073TIP3   OH236633   5.367   3.969   4.888 -0.0337 -0.2299  0.4982
 5073TIP3    H136634   5.361   3.894   4.829  0.3569  1.1774 -1.3768
 5073TIP3    H236635   5.416   3.936   4.963 -1.2413 -2.2711  0.4251
 5074TIP3   OH236636   2.531   4.403   2.851 -0.1945 -0.2394 -0.2887
 5074TIP3    H136637   2.580   4.439   2.925  0.1893 -0.8881 -0.2235
 5074TIP3    H236638   2.557   4.457   2.777 -1.8817  1.5222  0.3621
 5075TIP3   OH236639   0.664   1.811  11.787  0.5943  0.1538 -0.6003
 5075TIP3    H136640   0.707   1.825  11.703  0.7387 -0.2051 -0.5880
 5075TIP3    H236641   0.570   1.811  11.766  0.6339 -0.0657 -0.7812
 5076TIP3   OH236642   1.179   3.056   1.863 -0.6883 -0.5175  0.7615
 5076TIP3    H136643   1.124   3.116   1.813  0.6241 -0.5417 -0.7337
 5076TIP3    H236644   1.194   3.101   1.947  0.4988  1.3940 -0.4413
 5077TIP3   OH236645   4.148   1.546   6.451  0.2027 -0.0215  0.3967
 5077TIP3    H136646   4.152   1.464   6.402 -0.4598 -0.7115  1.4708
 5077TIP3    H236647   4.201   1.530   6.529 -1.8801 -0.2752  1.8024
 5078TIP3   OH236648   2.437   4.904  15.564 -0.3185 -0.3639  0.0390
 5078TIP3    H136649   2.403   4.991  15.541 -1.1416  0.5662  4.2126
 5078TIP3    H236650   2.530   4.918  15.581 -0.0664 -0.6905 -1.0546
 5079TIP3   OH236651   4.586   1.150   4.376  1.0817  0.2457  0.4297
 5079TIP3    H136652   4.505   1.114   4.412  1.2241 -0.1641  0.3504
 5079TIP3    H236653   4.591   1.116   4.287  2.0558 -0.9304  0.9078
 5080TIP3   OH236654   1.745   1.071  16.558 -0.6843 -0.3674 -0.6200
 5080TIP3    H136655   1.654   1.101  16.562 -0.5991 -0.2516  0.6227
 5080TIP3    H236656   1.783   1.097  16.642  0.3838 -0.7886 -0.9600
 5081TIP3   OH236657   4.986   1.473   4.535  0.2507 -0.3452 -0.0417
 5081TIP3    H136658   4.952   1.562   4.547  1.3668  0.1203 -0.2789
 5081TIP3    H236659   4.908   1.418   4.537 -0.4701  0.6479 -0.0030
 5082TIP3   OH236660   5.511   2.898   2.963 -0.1339 -0.1683 -0.1197
 5082TIP3    H136661   5.433   2.874   3.013  0.6338  1.8729  2.1753
 5082TIP3    H236662   5.480   2.960   2.897 -0.5975 -0.1127  0.1500
 5083TIP3   OH236663   4.660   5.551   5.747 -0.1850  0.4536  0.4875
 5083TIP3    H136664   4.591   5.491   5.775 -1.8295  1.5377 -1.0601
 5083TIP3    H236665   4.685   5.518   5.660 -1.8224  2.5132 -0.8256
 5084TIP3   OH236666   1.961   0.207  12.001 -0.5408 -0.7932 -0.5788
 5084TIP3    H136667   1.937   0.280  12.058  0.6579 -0.9425  0.1266
 5084TIP3    H236668   1.888   0.146  12.007 -0.7051 -0.5130  0.2928
 5085TIP3   OH236669   6.087   6.229  15.947  0.2064 -0.1918 -0.2110
 5085TIP3    H136670   6.008   6.225  15.894  0.6312 -1.9012 -0.7471
 5085TIP3    H236671   6.057   6.258  16.033 -0.6242  1.6513 -1.1059
 5086TIP3   OH236672   0.145   3.793  16.553  0.0463  0.1272  0.7707
 5086TIP3    H136673   0.236   3.770  16.573  0.5002  1.0317 -0.2083
 5086TIP3    H236674   0.113   3.720  16.500 -0.2604 -0.8897  2.3358
 5087TIP3   OH236675   2.512   0.576  14.992 -0.5212  0.0882 -0.3302
 5087TIP3    H136676   2.460   0.630  15.052 -0.8793  0.1880 -0.7267
 5087TIP3    H236677   2.602   0.595  15.016 -0.6645 -0.1440  0.4181
 5088TIP3   OH236678   0.895   2.773  11.260 -0.2850 -0.3159  0.2261
 5088TIP3    H136679   0.897   2.729  11.175  0.6104 -0.3190  0.2499
 5088TIP3    H236680   0.840   2.717  11.314 -0.8261 -0.3332 -0.3383
 5089TIP3   OH236681   3.543   6.019   3.622 -0.8525 -0.2299 -0.1099
 5089TIP3    H136682   3.552   5.991   3.713 -1.7021  0.9199  0.3403
 5089TIP3    H236683   3.577   5.945   3.571 -2.4595 -1.8420  1.0528
 5090TIP3   OH236684   5.328   2.881   5.916  0.5694 -0.1686  0.1229
 5090TIP3    H136685   5.295   2.840   5.836  0.6135 -1.5551  0.8021
 5090TIP3    H236686   5.272   2.846   5.985  0.5593  0.9858  0.7097
 5091TIP3   OH236687   4.829   1.037   6.012  0.1810  0.5995  0.1173
 5091TIP3    H136688   4.876   0.970   5.963  1.7301  1.8597 -0.1437
 5091TIP3    H236689   4.783   0.989   6.081  1.5432 -0.6751  0.1453
 5092TIP3   OH236690   4.365   2.543   5.741 -0.3946  0.4356  0.1496
 5092TIP3    H136691   4.345   2.627   5.700  0.3298 -0.2217 -1.6216
 5092TIP3    H236692   4.306   2.538   5.816 -3.0549  0.9368 -1.8053
 5093TIP3   OH236693   1.350   6.434   4.559  0.1144 -0.2514 -1.2543
 5093TIP3    H136694   1.283   6.498   4.583 -0.5922 -1.2532 -0.4648
 5093TIP3    H236695   1.310   6.350   4.580  0.8893 -0.9653 -2.6329
 5094TIP3   OH236696   5.893   1.695   2.044  0.8809  0.4189  0.1101
 5094TIP3    H136697   5.824   1.754   2.014 -1.1659 -1.0232  1.9125
 5094TIP3    H236698   5.916   1.727   2.131 -1.2608 -2.2558  1.7154
 5095TIP3   OH236699   5.581   3.475  14.584  0.0224 -0.2896 -0.0181
 5095TIP3    H136700   5.522   3.458  14.657 -0.8861  0.5062 -0.5557
 5095TIP3    H236701   5.572   3.568  14.566  2.7509  0.2317  1.0114
 5096TIP3   OH236702   5.854   1.131  16.408  0.5740 -0.0426  0.1219
 5096TIP3    H136703   5.925   1.194  16.394 -0.7175  1.9263  2.0194
 5096TIP3    H236704   5.820   1.113  16.320  2.0657  0.5861 -0.6074
 5097TIP3   OH236705   2.648   6.273   5.487 -0.1718  0.7665 -0.7862
 5097TIP3    H136706   2.726   6.216   5.485 -2.5973 -2.7479 -0.4425
 5097TIP3    H236707   2.626   6.279   5.579 -1.7054 -0.3137 -1.0689
 5098TIP3   OH236708   3.172   1.399  15.946 -0.0921 -0.5567  0.5817
 5098TIP3    H136709   3.259   1.437  15.939 -0.3007 -0.1554  0.1673
 5098TIP3    H236710   3.164   1.344  15.868 -0.4539 -0.0922  0.2890
 5099TIP3   OH236711   4.735   2.703   4.282 -0.0932  0.4524  0.1577
 5099TIP3    H136712   4.735   2.610   4.257  0.9841  0.2274  0.9423
 5099TIP3    H236713   4.672   2.708   4.354 -1.3841  0.6501 -0.9632
 5100TIP3   OH236714   0.076   2.962   4.252 -0.2175  0.7309  0.0263
 5100TIP3    H136715   0.116   3.010   4.180  0.1114  1.5315  0.7235
 5100TIP3    H236716   0.002   3.017   4.279 -1.5099 -0.4933 -0.9352
 5101TIP3   OH236717   1.271   0.073   5.082  0.4066  0.3109 -0.0891
 5101TIP3    H136718   1.238   0.087   4.993  1.2375 -0.3196 -0.5068
 5101TIP3    H236719   1.205   0.112   5.139 -0.9631 -0.7766 -0.9087
 5102TIP3   OH236720   5.672   3.917   0.514  0.1699  0.6790  0.5347
 5102TIP3    H136721   5.697   3.950   0.428 -2.2824  1.2875  0.0130
 5102TIP3    H236722   5.745   3.943   0.572  0.5332  2.7830 -0.7942
 5103TIP3   OH236723   0.294   2.227   2.156  0.0733  0.0067  0.0453
 5103TIP3    H136724   0.218   2.242   2.213  0.0449 -2.6033  0.7270
 5103TIP3    H236725   0.368   2.263   2.206 -0.2363 -0.4686  0.8562
 5104TIP3   OH236726   6.335   2.341   6.170 -0.3232 -0.1233  0.0605
 5104TIP3    H136727   6.334   2.245   6.173 -3.1389 -0.1119  0.4217
 5104TIP3    H236728   6.346   2.362   6.077 -2.5574 -0.8291 -0.3861
 5105TIP3   OH236729   1.935   6.529   3.791 -0.2041  0.4952 -0.9258
 5105TIP3    H136730   2.027   6.554   3.786  0.2503 -0.8817  0.2225
 5105TIP3    H236731   1.926   6.458   3.727  0.5805 -2.3048  1.9058
 5106TIP3   OH236732   4.055   6.785   4.657 -0.4714  0.3644 -0.4749
 5106TIP3    H136733   3.988   6.847   4.687 -1.1104 -0.1973 -0.7509
 5106TIP3    H236734   4.084   6.741   4.737 -0.0028  1.0313 -0.2755
 5107TIP3   OH236735   1.486   5.835  12.262  0.2456  0.3195  0.2935
 5107TIP3    H136736   1.537   5.792  12.331  1.2657  1.1256  0.0475
 5107TIP3    H236737   1.395   5.826  12.291  0.5739 -0.4211  1.1385
 5108TIP3   OH236738   6.503   2.486  15.701 -0.2664  0.3175 -0.5684
 5108TIP3    H136739   6.563   2.515  15.769 -0.5605  0.4461 -0.3654
 5108TIP3    H236740   6.507   2.555  15.634 -1.4945  1.1714  0.2273
 5109TIP3   OH236741   5.461   0.174  14.442 -0.4914  0.3272 -0.3205
 5109TIP3    H136742   5.374   0.138  14.458 -0.6600  1.1771  0.7247
 5109TIP3    H236743   5.457   0.210  14.354 -0.5092 -1.6282 -1.1567
 5110TIP3   OH236744   0.484   3.758  14.101 -0.7032 -0.1574  0.2739
 5110TIP3    H136745   0.404   3.810  14.104  0.2055  1.2788  0.0826
 5110TIP3    H236746   0.554   3.823  14.106  0.4576 -1.2759 -1.3091
 5111TIP3   OH236747   5.576   0.340   5.109 -0.6798 -0.5037 -0.0010
 5111TIP3    H136748   5.484   0.317   5.119 -0.8162  0.3060  0.6272
 5111TIP3    H236749   5.577   0.414   5.049 -0.5578  0.3754  1.0624
 5112TIP3   OH236750   6.085   4.266   5.484 -0.4184 -0.0707  0.0591
 5112TIP3    H136751   6.090   4.361   5.498 -0.9144 -0.2144  1.2115
 5112TIP3    H236752   6.090   4.228   5.571 -0.4459 -1.1016 -0.3810
 5113TIP3   OH236753   6.540   2.146   2.708 -0.2936  0.2182 -0.0755
 5113TIP3    H136754   6.499   2.060   2.695 -0.5688  0.3275  0.0616
 5113TIP3    H236755   6.598   2.157   2.632 -0.5220  0.0642 -0.2727
 5114TIP3   OH236756   0.133   4.538  13.854 -0.2926 -0.1195 -0.3867
 5114TIP3    H136757   0.072   4.545  13.781 -0.4328  0.5485 -0.2130
 5114TIP3    H236758   0.158   4.629  13.873  0.7920 -0.3929 -0.4849
 5115TIP3   OH236759   3.208   2.122   5.714  0.5155  0.0800 -0.1337
 5115TIP3    H136760   3.247   2.094   5.796  1.4707  0.8438 -0.3180
 5115TIP3    H236761   3.279   2.165   5.667 -0.5303  1.4532 -0.4884
 5116TIP3   OH236762   4.245   2.314   0.713 -0.0050  0.5432 -0.5926
 5116TIP3    H136763   4.291   2.284   0.791 -0.3244 -2.2700 -1.4061
 5116TIP3    H236764   4.315   2.340   0.653  0.2612  2.1896  0.4117
 5117TIP3   OH236765   3.872   2.929   5.014 -0.0062  0.1934 -0.2744
 5117TIP3    H136766   3.961   2.894   5.017 -0.2728 -0.4276  1.2185
 5117TIP3    H236767   3.816   2.852   5.025 -0.6398  0.8688  1.4465
 5118TIP3   OH236768   3.701   4.946  15.463  0.0448  0.4179 -0.1408
 5118TIP3    H136769   3.791   4.915  15.463 -0.7150 -1.9072 -0.7043
 5118TIP3    H236770   3.707   5.039  15.443  2.1212 -0.3229 -3.2671
 5119TIP3   OH236771   2.694   4.386   3.599  0.5722  0.8798 -0.0795
 5119TIP3    H136772   2.627   4.373   3.665 -0.7769  1.0084 -1.3908
 5119TIP3    H236773   2.719   4.298   3.572  0.7687  0.8330  0.2687
 5120TIP3   OH236774   5.763   3.475   1.284 -0.1234 -0.3832  0.1817
 5120TIP3    H136775   5.797   3.490   1.196 -0.3429 -1.1188 -0.0296
 5120TIP3    H236776   5.841   3.472   1.339  0.0695 -0.7493 -0.1083
 5121TIP3   OH236777   2.333   3.767   2.907  0.2556 -0.1615 -0.6844
 5121TIP3    H136778   2.369   3.794   2.823  1.5446 -0.9195 -0.3932
 5121TIP3    H236779   2.396   3.704   2.941 -0.5179 -0.2585  0.6119
 5122TIP3   OH236780   4.785   3.759   0.355  0.3653  0.0177  0.3514
 5122TIP3    H136781   4.704   3.791   0.317 -0.5954 -2.1335  0.5174
 5122TIP3    H236782   4.854   3.798   0.302 -0.7876  1.3520 -0.1899
 5123TIP3   OH236783   5.052   0.702   1.575 -0.2055 -0.1565  0.2695
 5123TIP3    H136784   5.099   0.672   1.653  0.5904  1.3151  0.3679
 5123TIP3    H236785   5.121   0.725   1.513 -0.7139  3.3351  0.9027
 5124TIP3   OH236786   4.489   2.384   1.380 -0.0417 -0.3246 -0.2095
 5124TIP3    H136787   4.451   2.450   1.437  0.6076  0.8475 -1.1256
 5124TIP3    H236788   4.452   2.301   1.411 -0.6062  0.4297  1.1384
 5125TIP3   OH236789   1.812   3.090  16.989  0.1049 -0.3360 -0.7974
 5125TIP3    H136790   1.733   3.105  16.936 -0.5393 -0.7077  0.0416
 5125TIP3    H236791   1.855   3.016  16.947 -0.9997 -1.3613 -0.1581
 5126TIP3   OH236792   0.130   2.621  16.461  0.2168 -0.9086  0.0474
 5126TIP3    H136793   0.114   2.659  16.547  0.3718  0.4742 -0.5168
 5126TIP3    H236794   0.071   2.668  16.402 -0.8193 -2.7146 -0.4180
 5127TIP3   OH236795   5.950   0.228   4.781  0.1550 -0.1430 -0.2494
 5127TIP3    H136796   5.903   0.229   4.864  0.6777  2.5424  0.0718
 5127TIP3    H236797   5.987   0.316   4.774  1.3499 -0.7994 -2.6303
 5128TIP3   OH236798   2.058   2.806   1.058  0.4986  0.2970  1.2327
 5128TIP3    H136799   2.105   2.884   1.030  1.5932 -1.1230 -0.9764
 5128TIP3    H236800   1.972   2.839   1.086 -0.0511  2.0324 -2.2227
 5129TIP3   OH236801   5.996   4.411   6.250 -0.0389  0.1053 -0.1035
 5129TIP3    H136802   5.996   4.350   6.324  1.6026  0.9015  0.5753
 5129TIP3    H236803   6.071   4.383   6.196 -0.8789 -0.1135 -1.1741
 5130TIP3   OH236804   2.508   5.279   3.429 -0.1670  0.1394  0.0719
 5130TIP3    H136805   2.471   5.321   3.506 -1.0497 -0.6399  0.0790
 5130TIP3    H236806   2.485   5.338   3.357 -1.2516 -0.2461  0.1020
 5131TIP3   OH236807   4.439   2.381  13.097 -0.4325  0.4901 -0.2100
 5131TIP3    H136808   4.415   2.338  13.179  1.8032 -3.1344 -1.3671
 5131TIP3    H236809   4.401   2.325  13.029  0.7466  1.5135 -1.7347
 5132TIP3   OH236810   4.207   0.485  12.012 -0.0938 -0.2744 -0.5131
 5132TIP3    H136811   4.276   0.419  12.020  2.0453  2.0046  0.4464
 5132TIP3    H236812   4.192   0.493  11.918 -0.1937 -1.9488 -0.6430
 5133TIP3   OH236813   0.430   5.774   3.347  0.2363  0.6658 -0.2350
 5133TIP3    H136814   0.353   5.830   3.332 -0.0307  0.1707 -0.7422
 5133TIP3    H236815   0.401   5.687   3.320  0.7577  0.3446  0.2412
 5134TIP3   OH236816   4.760   0.371  12.210  0.1288 -0.2638 -0.0508
 5134TIP3    H136817   4.736   0.452  12.255  0.9225 -0.0293 -0.0301
 5134TIP3    H236818   4.696   0.307  12.240 -0.3654  0.3000  0.1143
 5135TIP3   OH236819   1.011   3.615   3.287  0.2294  0.6364  0.4626
 5135TIP3    H136820   0.971   3.575   3.364  0.4185 -0.0344  0.2169
 5135TIP3    H236821   0.996   3.709   3.298 -1.8434  0.3805  0.1429
 5136TIP3   OH236822   1.166   5.885  15.163  0.1005  0.3001  0.5255
 5136TIP3    H136823   1.175   5.976  15.136 -0.3665  0.5696  1.2706
 5136TIP3    H236824   1.079   5.860  15.133  0.8028 -0.3771 -1.0332
 5137TIP3   OH236825   1.108   3.614  11.992 -0.1305 -1.1257  0.3553
 5137TIP3    H136826   1.109   3.693  12.046 -0.1907 -0.8208 -0.0885
 5137TIP3    H236827   1.153   3.639  11.911 -1.3835 -1.1226 -0.3574
 5138TIP3   OH236828   2.385   5.775  13.664  0.4133 -0.1426  0.3250
 5138TIP3    H136829   2.446   5.709  13.629  2.0459  1.6817 -0.3720
 5138TIP3    H236830   2.424   5.801  13.748 -1.5828 -1.8644  1.8472
 5139TIP3   OH236831   0.750   6.278   5.436 -0.1747 -0.3146  0.1511
 5139TIP3    H136832   0.710   6.365   5.433 -2.2990 -1.2975 -2.1148
 5139TIP3    H236833   0.695   6.229   5.497  1.7371  0.2103  2.3713
 5140TIP3   OH236834   0.179   6.572   3.247 -0.1355  0.1686  0.1108
 5140TIP3    H136835   0.112   6.563   3.315 -0.2706 -0.3096 -0.0748
 5140TIP3    H236836   0.128   6.576   3.165  0.0501  0.0398 -0.0116
 5141TIP3   OH236837   2.799   1.081   1.077  0.7707 -0.0698  0.2449
 5141TIP3    H136838   2.743   1.130   1.139  0.3825  0.5739 -0.5979
 5141TIP3    H236839   2.809   0.995   1.117 -0.4677 -0.0490  0.6381
 5142TIP3   OH236840   2.093   0.549   5.243 -0.0393 -0.0487 -0.3254
 5142TIP3    H136841   2.170   0.520   5.292 -0.1936 -1.0534 -0.6699
 5142TIP3    H236842   2.064   0.628   5.289  1.0343  0.1844 -0.0375
 5143TIP3   OH236843   6.128   0.302  13.933 -0.5641 -0.2943  0.6650
 5143TIP3    H136844   6.213   0.329  13.968 -1.1904  2.6489  0.0273
 5143TIP3    H236845   6.066   0.324  14.002 -0.8905 -2.0667  0.9615
 5144TIP3   OH236846   1.507   5.373   1.467  0.4648  0.2067  0.3314
 5144TIP3    H136847   1.503   5.469   1.470  0.5858  0.1911  0.9251
 5144TIP3    H236848   1.520   5.353   1.374  1.2065  0.7951  0.3069
 5145TIP3   OH236849   3.175   3.374  16.043  0.3425 -0.0531 -0.0781
 5145TIP3    H136850   3.157   3.426  16.121 -2.3529 -1.3532  0.2327
 5145TIP3    H236851   3.252   3.415  16.004 -0.0434  2.4419  1.6409
 5146TIP3   OH236852   2.862   1.131   0.286  0.2574 -0.1817 -0.1186
 5146TIP3    H136853   2.882   1.170   0.372 -1.0066 -0.2693  0.2249
 5146TIP3    H236854   2.920   1.055   0.281  1.2696  0.5576  0.0907
 5147TIP3   OH236855   4.953   4.649   4.967  0.4231  0.5542 -0.5539
 5147TIP3    H136856   4.974   4.742   4.956 -0.7031  0.7739 -0.8731
 5147TIP3    H236857   4.983   4.608   4.886  0.4580  0.7133 -0.6221
 5148TIP3   OH236858   2.705   4.650  13.854  0.4482 -0.2291  0.4248
 5148TIP3    H136859   2.760   4.643  13.932  0.9246 -0.7033  0.0513
 5148TIP3    H236860   2.675   4.561  13.837 -0.4991  0.0382  0.6645
 5149TIP3   OH236861   6.586   3.987  10.969  0.6545  0.2043  0.6256
 5149TIP3    H136862   6.533   3.957  10.895  0.0497 -2.4058  2.0331
 5149TIP3    H236863   6.541   4.065  11.002 -0.9295 -0.5249  0.2446
 5150TIP3   OH236864   1.451   4.819   4.050 -0.3304  0.2608  0.3369
 5150TIP3    H136865   1.437   4.737   4.003 -1.3887  0.7835 -0.2917
 5150TIP3    H236866   1.458   4.885   3.980  0.5259  0.7051  0.8336
 5151TIP3   OH236867   5.522   3.433   5.188 -0.3273  0.6453  0.2110
 5151TIP3    H136868   5.529   3.426   5.093  0.9574  1.5741  0.2233
 5151TIP3    H236869   5.435   3.399   5.209 -0.0794 -0.8594 -1.1544
 5152TIP3   OH236870   2.833   4.081  12.267  0.1418  0.0782 -0.2725
 5152TIP3    H136871   2.749   4.119  12.294 -0.4571 -0.6626 -1.0446
 5152TIP3    H236872   2.860   4.027  12.341 -0.3423 -0.1067 -0.2255
 5153TIP3   OH236873   0.964   0.248  15.002  0.3117  0.5529  0.2653
 5153TIP3    H136874   0.946   0.168  14.952  0.1391  2.0610 -2.1114
 5153TIP3    H236875   1.032   0.293  14.953  0.0796  2.1277  1.3592
 5154TIP3   OH236876   1.846   5.076  15.624 -0.1516  0.5610  0.2342
 5154TIP3    H136877   1.786   5.001  15.620 -1.6316  1.7614 -0.3433
 5154TIP3    H236878   1.803   5.144  15.572  1.3999  1.6705  0.3754
 5155TIP3   OH236879   2.089   5.637   0.281 -0.0772 -0.4125  0.0376
 5155TIP3    H136880   2.160   5.692   0.248  0.0766  0.4286  1.7334
 5155TIP3    H236881   2.129   5.585   0.351 -0.5475 -1.7223 -0.6492
 5156TIP3   OH236882   0.503   4.360  16.044 -0.1203  0.0918 -0.1883
 5156TIP3    H136883   0.584   4.393  16.007  0.1540 -0.8549 -0.4575
 5156TIP3    H236884   0.501   4.395  16.133  0.6046  0.0834 -0.1639
 5157TIP3   OH236885   3.557   5.913   4.669  0.0952 -0.5359 -0.5868
 5157TIP3    H136886   3.557   5.818   4.663  0.1800 -0.6557  1.1345
 5157TIP3    H236887   3.514   5.942   4.588  0.4606 -2.0093 -1.3253
 5158TIP3   OH236888   5.624   6.197  12.873  0.4226  0.1997 -0.1347
 5158TIP3    H136889   5.577   6.193  12.956 -0.3739  0.6420 -0.5647
 5158TIP3    H236890   5.569   6.149  12.811 -0.0982  1.7918 -0.9341
 5159TIP3   OH236891   5.527   0.029   0.645 -0.2059 -0.0839  0.6096
 5159TIP3    H136892   5.554   0.015   0.736 -1.4863  1.5304  1.2561
 5159TIP3    H236893   5.433   0.045   0.650 -0.2117  0.4230 -0.9614
 5160TIP3   OH236894   2.795   2.107   4.404 -0.1790  0.8740  0.0779
 5160TIP3    H136895   2.726   2.148   4.456  0.9763  2.9292  0.0499
 5160TIP3    H236896   2.834   2.180   4.355  0.8821 -0.5262 -1.1837
 5161TIP3   OH236897   1.285   0.385  12.153  0.5062 -0.0723  0.3487
 5161TIP3    H136898   1.266   0.372  12.060 -0.1456 -2.4882  0.8033
 5161TIP3    H236899   1.380   0.381  12.159  0.6120  1.0347 -0.3239
 5162TIP3   OH236900   6.364   3.798  13.994  0.2968  0.3177  0.0241
 5162TIP3    H136901   6.442   3.808  13.939 -0.4139  0.0033 -1.0763
 5162TIP3    H236902   6.365   3.706  14.019  1.2870  0.7460  1.5707
 5163TIP3   OH236903   4.871   3.495  17.208  0.4267  0.5018  0.2955
 5163TIP3    H136904   4.913   3.473  17.124  1.4049  0.4853  0.7787
 5163TIP3    H236905   4.889   3.589  17.220 -1.1624  0.9010 -0.3171
 5164TIP3   OH236906   5.955   2.141  16.394 -0.5086 -0.2614 -0.7277
 5164TIP3    H136907   6.029   2.117  16.451 -2.2995 -0.9858  1.3421
 5164TIP3    H236908   5.955   2.237  16.393 -1.1064 -0.2182  1.4005
 5165TIP3   OH236909   5.548   3.928   2.190 -0.7824 -0.4212  0.4188
 5165TIP3    H136910   5.638   3.949   2.217 -0.8809  0.9747 -0.2781
 5165TIP3    H236911   5.511   3.880   2.264 -0.1175  0.8116  1.5739
 5166TIP3   OH236912   4.236   0.584   1.557 -0.1287 -0.3251  0.6021
 5166TIP3    H136913   4.178   0.647   1.515  1.0318 -0.3599 -1.1051
 5166TIP3    H236914   4.241   0.613   1.648 -1.3265  0.7602  0.3384
 5167TIP3   OH236915   0.797   1.676   0.388 -0.1689 -0.1070  0.0999
 5167TIP3    H136916   0.877   1.638   0.352  0.6233  0.9599  0.7084
 5167TIP3    H236917   0.738   1.684   0.312  0.7184  0.1783 -0.5697
 5168TIP3   OH236918   1.309   1.048  10.593  0.1649 -0.2815  0.0686
 5168TIP3    H136919   1.218   1.075  10.594 -0.1057 -1.0025 -2.2287
 5168TIP3    H236920   1.330   1.031  10.685 -1.3096  2.0984  0.8860
 5169TIP3   OH236921   0.020   1.533  12.041 -0.4849 -0.2124  0.2584
 5169TIP3    H136922  -0.051   1.588  12.010 -0.7940 -0.4895  0.4786
 5169TIP3    H236923   0.037   1.563  12.130 -0.8327 -0.6494  0.4742
 5170TIP3   OH236924   1.419   3.313   3.036 -0.0005  0.5143  0.0311
 5170TIP3    H136925   1.399   3.327   2.944 -0.3958 -0.4648 -0.0429
 5170TIP3    H236926   1.346   3.352   3.083 -0.3552  0.0230 -0.1126
 5171TIP3   OH236927   1.240   5.563  16.490 -0.3176  0.0204 -0.2185
 5171TIP3    H136928   1.299   5.570  16.415 -0.2196  1.0009 -0.0580
 5171TIP3    H236929   1.266   5.482  16.534  1.6739  1.0368  0.5058
 5172TIP3   OH236930   3.931   1.911  13.235  0.9131 -0.1063 -0.0706
 5172TIP3    H136931   3.946   1.820  13.209  0.9402  0.6991 -3.1117
 5172TIP3    H236932   3.853   1.937  13.185  1.3127  1.7269  0.2388
 5173TIP3   OH236933   3.801   5.269  12.824 -0.2801 -0.9526 -0.1725
 5173TIP3    H136934   3.867   5.320  12.872 -1.0641 -3.1749  3.4915
 5173TIP3    H236935   3.737   5.334  12.795  1.8150  0.8382 -0.8680
 5174TIP3   OH236936   3.791   6.667   2.628  0.4174  0.0877 -0.1025
 5174TIP3    H136937   3.796   6.582   2.673  0.2563  0.5382  0.7889
 5174TIP3    H236938   3.698   6.691   2.632  0.3721  0.0470 -0.8479
 5175TIP3   OH236939   2.402   6.628   2.663 -0.1436  0.4178  0.0388
 5175TIP3    H136940   2.311   6.631   2.632  0.0087  2.4355 -0.3124
 5175TIP3    H236941   2.429   6.720   2.664  2.4430 -0.2733 -1.4846
 5176TIP3   OH236942   3.014   2.079  11.777 -0.0228 -0.0843  0.4730
 5176TIP3    H136943   3.092   2.041  11.738  1.8584  0.4819  3.5278
 5176TIP3    H236944   2.967   2.004  11.814  0.9866 -0.0737  1.8380
 5177TIP3   OH236945   1.508   5.563  11.432  0.3612 -0.1851  0.1675
 5177TIP3    H136946   1.461   5.528  11.356  0.1540 -0.2611  0.3316
 5177TIP3    H236947   1.595   5.522  11.427  0.2926 -0.3180  0.0657
 5178TIP3   OH236948   3.072   6.704   2.384  0.2394  0.4604  0.5363
 5178TIP3    H136949   3.088   6.778   2.326  1.6908 -0.3880 -0.1700
 5178TIP3    H236950   3.072   6.742   2.472  1.1164  1.2864  0.1856
 5179TIP3   OH236951   5.744   5.745   2.665 -0.3286  0.0875 -0.1885
 5179TIP3    H136952   5.831   5.761   2.629  0.0568 -0.7891  0.3344
 5179TIP3    H236953   5.758   5.734   2.759 -0.1826 -5.5097 -0.6717
 5180TIP3   OH236954   4.883   1.464   2.717 -0.2082 -0.3935 -0.0036
 5180TIP3    H136955   4.861   1.394   2.656  2.2493  0.3338 -1.7897
 5180TIP3    H236956   4.973   1.446   2.744  0.2513  1.7151 -0.0233
 5181TIP3   OH236957   4.586   3.250  14.506  0.0730  0.0558  0.1092
 5181TIP3    H136958   4.560   3.186  14.573 -0.4283  0.6421  0.4750
 5181TIP3    H236959   4.505   3.271  14.460 -0.0077  1.4321  0.8623
 5182TIP3   OH236960   3.948   3.542   1.264  0.1322 -0.4148  0.2599
 5182TIP3    H136961   4.015   3.580   1.321  1.7857 -2.4708 -0.2337
 5182TIP3    H236962   3.962   3.585   1.179  0.6010 -0.5802  0.2513
 5183TIP3   OH236963   2.592   1.858   0.227  0.0663 -0.0378  0.2611
 5183TIP3    H136964   2.606   1.765   0.206 -1.5485  0.2355 -2.2731
 5183TIP3    H236965   2.679   1.891   0.249  1.0527 -1.6458 -1.0774
 5184TIP3   OH236966   5.156   2.111  14.405 -0.3480  0.4211 -0.3870
 5184TIP3    H136967   5.100   2.162  14.346  0.2795  2.5236  0.7702
 5184TIP3    H236968   5.209   2.057  14.346 -1.5295  0.5725 -1.6253
 5185TIP3   OH236969   5.770   1.292  15.216 -0.2649 -0.2292 -0.3470
 5185TIP3    H136970   5.838   1.225  15.224  1.1001  1.0066 -1.3109
 5185TIP3    H236971   5.796   1.360  15.278 -0.2404  0.5451 -1.1884
 5186TIP3   OH236972   3.558   1.982  16.486  0.1545  0.1350  0.2151
 5186TIP3    H136973   3.475   1.973  16.439  0.0563  3.3299 -0.3938
 5186TIP3    H236974   3.625   1.964  16.420 -0.0358 -1.3942  0.4317
 5187TIP3   OH236975   0.925   6.062   1.563 -0.3160 -0.4221  0.0517
 5187TIP3    H136976   0.884   6.043   1.647  0.8014 -1.2512  0.4138
 5187TIP3    H236977   1.019   6.066   1.582 -0.1836  0.9681 -0.8635
 5188TIP3   OH236978   1.586   3.299   4.580  0.3947 -0.3749 -0.0603
 5188TIP3    H136979   1.674   3.322   4.549  0.4507 -0.2008  0.2291
 5188TIP3    H236980   1.575   3.349   4.660 -0.2184  0.0891 -0.4347
 5189TIP3   OH236981   6.262   3.968  13.331 -0.0829 -0.2005  0.7917
 5189TIP3    H136982   6.326   3.987  13.400 -0.0988 -1.1993  1.0914
 5189TIP3    H236983   6.305   3.904  13.275  0.2798  1.3007 -0.6794
 5190TIP3   OH236984   2.618   3.604  16.459 -0.1139 -0.0084 -0.5051
 5190TIP3    H136985   2.558   3.531  16.440 -0.0325  0.1720 -1.4677
 5190TIP3    H236986   2.660   3.622  16.375  1.2337 -0.0746  0.1533
 5191TIP3   OH236987   3.889   4.801  14.806  0.1918 -0.4665  0.3367
 5191TIP3    H136988   3.808   4.827  14.762  0.0877 -0.4190  0.5561
 5191TIP3    H236989   3.942   4.881  14.809  0.5500 -0.6676 -0.4611
 5192TIP3   OH236990   5.885   3.353   2.285  0.1194 -0.2897 -0.6727
 5192TIP3    H136991   5.795   3.373   2.259  0.1153  1.4122  0.5089
 5192TIP3    H236992   5.876   3.297   2.362  0.0182  0.9864  0.2725
 5193TIP3   OH236993   1.122   6.312  12.459 -0.2999  0.4860 -0.3010
 5193TIP3    H136994   1.079   6.372  12.398  0.5843  1.5119  0.0726
 5193TIP3    H236995   1.092   6.339  12.546 -1.0459 -0.5575 -0.2255
 5194TIP3   OH236996   3.383   4.313  15.182 -0.5549  0.6795  0.4542
 5194TIP3    H136997   3.369   4.408  15.190  0.3072  0.8947 -0.4414
 5194TIP3    H236998   3.461   4.296  15.234 -0.9874  0.3753  1.0081
 5195TIP3   OH236999   5.835   2.137  14.476 -0.0864 -0.2552  0.6788
 5195TIP3    H137000   5.900   2.083  14.521  0.7166 -0.5506 -0.7830
 5195TIP3    H237001   5.783   2.177  14.546  0.4853 -1.4790  1.8198
 5196TIP3   OH237002   0.870   1.453  12.112  0.3465 -0.3678 -0.2136
 5196TIP3    H137003   0.874   1.544  12.082  1.3319 -0.3803 -0.1313
 5196TIP3    H237004   0.876   1.459  12.208  0.7464 -0.5433 -0.2282
 5197TIP3   OH237005   5.260   3.894   2.556 -0.0775 -0.1220 -0.1332
 5197TIP3    H137006   5.220   3.918   2.639  1.0164  0.5691  0.2136
 5197TIP3    H237007   5.294   3.977   2.522 -0.5265 -0.3954 -1.2794
 5198TIP3   OH237008   1.364   4.623  13.628  0.3741 -0.2355 -0.0928
 5198TIP3    H137009   1.337   4.645  13.717  2.6264  0.1786  0.5120
 5198TIP3    H237010   1.386   4.530  13.632 -0.6901 -0.5195 -0.5345
 5199TIP3   OH237011   2.623   2.252   2.106 -0.2225  0.0215 -0.1818
 5199TIP3    H137012   2.634   2.342   2.136  1.5702 -1.0914  2.6713
 5199TIP3    H237013   2.712   2.217   2.100 -0.9137 -1.6698 -0.8500
 5200TIP3   OH237014   5.633   0.138  15.013  0.3128 -0.1273  0.1046
 5200TIP3    H137015   5.645   0.217  14.961  1.7749  0.0426  0.6821
 5200TIP3    H237016   5.717   0.124  15.056 -0.0811 -1.7333  0.3845
 5201TIP3   OH237017   3.915   3.085  16.854  0.4233 -0.3843 -0.6758
 5201TIP3    H137018   3.917   2.989  16.855  1.7384 -0.3617  0.0692
 5201TIP3    H237019   3.930   3.110  16.946 -0.8186  0.5236 -0.7057
 5202TIP3   OH237020   1.487   0.186  16.114 -0.9895  0.6499  0.3431
 5202TIP3    H137021   1.498   0.147  16.027 -1.7099 -0.5954  0.7884
 5202TIP3    H237022   1.543   0.263  16.113 -0.6071  0.3772 -1.0579
 5203TIP3   OH237023   6.425   3.663  13.352 -0.9157  0.2656  0.3528
 5203TIP3    H137024   6.376   3.671  13.270 -1.1541 -2.7909  0.1054
 5203TIP3    H237025   6.363   3.625  13.414  0.6922 -2.3946  0.4208
 5204TIP3   OH237026   0.108   5.278   4.859 -0.1259 -0.3619  0.2877
 5204TIP3    H137027   0.120   5.184   4.867 -1.1760 -0.4772  0.6055
 5204TIP3    H237028   0.144   5.300   4.773  1.4322 -0.8152  0.8151
 5205TIP3   OH237029   1.551   3.555   2.856  0.2743  0.4429  0.6178
 5205TIP3    H137030   1.575   3.520   2.771 -0.1486  1.4079  0.1019
 5205TIP3    H237031   1.622   3.529   2.914  0.9572  0.4852 -0.1989
 5206TIP3   OH237032   2.791   0.319  11.326 -0.4285  0.0691 -0.2185
 5206TIP3    H137033   2.844   0.301  11.404  2.1593  0.1014 -1.9173
 5206TIP3    H237034   2.764   0.233  11.294  0.4702 -0.0748 -0.5979
 5207TIP3   OH237035   1.778   3.514   5.033  0.2186  0.4006 -0.1912
 5207TIP3    H137036   1.835   3.512   5.109 -0.2788  1.0956  0.2062
 5207TIP3    H237037   1.826   3.566   4.968  1.2964 -1.4390 -0.8959
 5208TIP3   OH237038   2.887   1.415   3.855  0.3103  0.1001  0.4820
 5208TIP3    H137039   2.953   1.385   3.917  0.8373  1.3178  0.5375
 5208TIP3    H237040   2.810   1.432   3.909  0.9650  1.7749  0.9311
 5209TIP3   OH237041   1.196   2.174   2.475  0.1825  0.0431  0.1126
 5209TIP3    H137042   1.158   2.200   2.559 -0.8298  0.2919 -0.4127
 5209TIP3    H237043   1.121   2.142   2.424  0.7950 -0.1440 -0.6797
 5210TIP3   OH237044   5.151   3.975   0.441 -0.5423 -0.3706  0.6556
 5210TIP3    H137045   5.128   3.939   0.355 -2.6630 -0.5290  1.2842
 5210TIP3    H237046   5.242   3.948   0.454 -0.1289 -0.1620 -1.6352
 5211TIP3   OH237047   1.320   6.522   3.141 -0.0842  0.2526  0.4723
 5211TIP3    H137048   1.243   6.516   3.084  0.5808 -0.3104 -0.3842
 5211TIP3    H237049   1.360   6.435   3.137 -0.7978 -0.2365  2.9332
 5212TIP3   OH237050   3.996   4.814   2.444  0.2316 -0.5559 -0.2309
 5212TIP3    H137051   3.921   4.873   2.447  1.5315  1.0698  1.4219
 5212TIP3    H237052   3.968   4.737   2.494 -0.7769 -0.4949 -0.6979
 5213TIP3   OH237053   3.017   2.500  13.360 -0.4702 -0.7611 -0.3111
 5213TIP3    H137054   3.046   2.425  13.308 -2.9319 -0.7590 -1.7695
 5213TIP3    H237055   3.098   2.544  13.386  0.9322 -2.6991 -1.2251
 5214TIP3   OH237056   1.546   1.542   3.686 -0.4650 -1.1205 -0.2604
 5214TIP3    H137057   1.627   1.489   3.687  0.4229  0.2254  0.6157
 5214TIP3    H237058   1.514   1.534   3.597  1.6436 -0.1796 -1.1394
 5215TIP3   OH237059   4.821   1.292   6.426  0.0456  0.1524 -0.2424
 5215TIP3    H137060   4.784   1.231   6.362 -0.7913  0.1510  0.2456
 5215TIP3    H237061   4.913   1.264   6.435  0.1976  0.2018 -1.4960
 5216TIP3   OH237062   2.289   0.396   2.965 -0.0767  0.3375 -0.4291
 5216TIP3    H137063   2.367   0.422   3.014  0.1790 -1.2608  0.0145
 5216TIP3    H237064   2.322   0.364   2.881 -0.3831  1.2216 -0.8965
 5217TIP3   OH237065   6.260   0.575   4.034 -0.3342 -0.2612  0.6466
 5217TIP3    H137066   6.283   0.507   4.097  0.8513 -0.8836 -0.4473
 5217TIP3    H237067   6.296   0.545   3.951 -1.7617  0.6087 -0.3207
 5218TIP3   OH237068   6.774   4.344   1.397 -0.1094  0.6893  0.3266
 5218TIP3    H137069   6.747   4.382   1.314  0.9925 -1.8495 -1.2593
 5218TIP3    H237070   6.866   4.319   1.384 -0.6122 -1.9917  1.4231
 5219TIP3   OH237071   1.969   1.997  15.301 -0.5853  0.2674  0.3606
 5219TIP3    H137072   1.876   1.983  15.288 -0.0331 -3.5705  0.1110
 5219TIP3    H237073   2.008   1.910  15.295  2.8079  1.5496  2.2810
 5220TIP3   OH237074   6.032   0.254  12.065  0.3895  0.1709  0.4964
 5220TIP3    H137075   5.940   0.229  12.080  0.2802  1.1986  1.5907
 5220TIP3    H237076   6.068   0.181  12.015 -1.0040 -0.2900  0.1259
 5221TIP3   OH237077   6.046   2.162   5.997 -0.8293 -0.1448  0.3809
 5221TIP3    H137078   6.038   2.067   6.002  0.2295 -0.2868 -0.6026
 5221TIP3    H237079   6.121   2.178   5.940 -1.3365  1.2902  0.0822
 5222TIP3   OH237080   4.971   6.555   1.648  0.1455  0.1931 -0.3956
 5222TIP3    H137081   4.880   6.582   1.650  0.3428  0.9514 -1.1646
 5222TIP3    H237082   4.983   6.502   1.727 -1.1429 -0.5268 -0.6731
 5223TIP3   OH237083   4.210   2.985   0.360  0.8304  0.3507  0.1091
 5223TIP3    H137084   4.138   2.922   0.370  1.2305 -0.0859  0.2698
 5223TIP3    H237085   4.167   3.070   0.357  0.3854  0.1872  1.3830
 5224TIP3   OH237086   3.044   2.930   4.556  0.4725  0.0232  0.9278
 5224TIP3    H137087   2.964   2.970   4.589  0.8904  1.2823  0.4446
 5224TIP3    H237088   3.057   2.970   4.470  1.0058 -1.0230  0.5069
 5225TIP3   OH237089   1.184   4.978   2.483  0.6964  0.4107  0.1663
 5225TIP3    H137090   1.107   4.936   2.447  0.3456  0.3682  0.9639
 5225TIP3    H237091   1.155   5.066   2.507  1.2473  0.8786 -0.8258
 5226TIP3   OH237092   6.566   3.947   6.100 -0.4049 -0.2237 -0.0774
 5226TIP3    H137093   6.569   3.902   6.016 -1.8017  2.0067 -1.3804
 5226TIP3    H237094   6.535   3.880   6.161 -2.7399 -0.9792 -2.0036
 5227TIP3   OH237095   3.970   4.614  13.713  0.0869 -0.5911  0.1657
 5227TIP3    H137096   3.972   4.604  13.618 -1.5502 -0.3870  0.1067
 5227TIP3    H237097   3.983   4.708  13.727 -1.4380 -0.3616  0.0714
 5228TIP3   OH237098   4.507   0.183   5.459 -0.2251  0.4512  0.0535
 5228TIP3    H137099   4.513   0.212   5.550 -0.2264  2.2146 -0.4920
 5228TIP3    H237100   4.572   0.113   5.453  1.0772  1.5332  0.9732
 5229TIP3   OH237101   1.578   1.232  11.543  0.4234  0.3436 -0.4196
 5229TIP3    H137102   1.600   1.322  11.519  1.4900 -0.2985 -1.9075
 5229TIP3    H237103   1.524   1.200  11.472  2.7618 -1.2425 -1.5686
 5230TIP3   OH237104   5.342   0.923  14.421 -0.6031  0.4217  0.1923
 5230TIP3    H137105   5.397   0.927  14.500  0.8736  0.7030 -0.8298
 5230TIP3    H237106   5.252   0.920  14.454  0.0591 -1.1391  1.9270
 5231TIP3   OH237107   3.420   1.824  14.965  0.6590  0.1558 -0.1379
 5231TIP3    H137108   3.381   1.901  15.006  1.1186  0.5894 -0.4989
 5231TIP3    H237109   3.506   1.854  14.934  1.0998 -0.6641  0.2720
 5232TIP3   OH237110   4.247   1.445  12.266 -0.3377  0.1327  0.6495
 5232TIP3    H137111   4.155   1.470  12.271 -0.3541  0.3781 -0.5625
 5232TIP3    H237112   4.291   1.522  12.229 -0.1599 -1.0594 -1.7201
 5233TIP3   OH237113   1.314   0.378  15.851 -0.0400  0.3981  0.5981
 5233TIP3    H137114   1.229   0.419  15.869 -0.5365 -0.6355  0.6588
 5233TIP3    H237115   1.295   0.314  15.782  0.7210  0.2809  0.5014
 5234TIP3   OH237116   5.140   1.188  14.450 -0.2037 -0.0622 -0.4744
 5234TIP3    H137117   5.197   1.261  14.424 -0.7283  0.0773 -1.2707
 5234TIP3    H237118   5.066   1.230  14.494  0.3228 -0.2456  0.5870
 5235TIP3   OH237119   6.089   1.294  16.820 -0.0415 -0.0194  0.0631
 5235TIP3    H137120   6.025   1.349  16.776 -3.0281 -3.4908 -0.2431
 5235TIP3    H237121   6.161   1.286  16.758 -0.6202  1.6082 -0.8461
 5236TIP3   OH237122   3.806   6.371   0.919 -0.2943 -0.0643 -0.6051
 5236TIP3    H137123   3.758   6.425   0.856  0.7355  0.5142 -0.9171
 5236TIP3    H237124   3.844   6.300   0.867 -1.5288 -1.0129 -0.2178
 5237TIP3   OH237125   3.506   4.239   3.941  0.0399  1.0963 -0.5013
 5237TIP3    H137126   3.459   4.209   4.019 -0.2622  0.7749 -0.8069
 5237TIP3    H237127   3.554   4.162   3.910  0.5897  1.3635 -0.3217
 5238TIP3   OH237128   5.469   3.666  15.516  0.2075 -0.2462  0.0347
 5238TIP3    H137129   5.409   3.665  15.590  1.0228  1.8221  0.7619
 5238TIP3    H237130   5.471   3.758  15.488  0.2245 -0.9196 -2.2982
 5239TIP3   OH237131   6.036   4.820  15.148 -0.2701 -0.1294 -0.3558
 5239TIP3    H137132   5.958   4.770  15.124  0.1021 -1.1626  0.5759
 5239TIP3    H237133   6.003   4.910  15.159 -1.1644 -0.3868 -0.8249
 5240TIP3   OH237134   3.851   5.697   3.254 -0.2530  0.3230  0.0931
 5240TIP3    H137135   3.866   5.660   3.166 -0.6199  0.6163 -0.0970
 5240TIP3    H237136   3.802   5.778   3.237  2.4815  2.0695  0.3628
 5241TIP3   OH237137   3.026   3.471   0.774 -0.2705 -0.1028 -0.4578
 5241TIP3    H137138   2.946   3.456   0.725 -0.0658  1.4429 -1.2891
 5241TIP3    H237139   2.999   3.523   0.849  0.1343  1.5138 -1.4120
 5242TIP3   OH237140   5.064   1.248  12.353  0.3444 -0.4348  0.4974
 5242TIP3    H137141   4.992   1.200  12.310  0.6367 -1.1402  0.7795
 5242TIP3    H237142   5.028   1.275  12.437  0.0867  0.0880  0.2194
 5243TIP3   OH237143   6.426   5.432  15.387  0.3183  0.6868 -0.0275
 5243TIP3    H137144   6.367   5.491  15.434  1.1205  1.8409 -0.4439
 5243TIP3    H237145   6.504   5.428  15.441  0.1644 -0.2225  0.1360
 5244TIP3   OH237146   6.269   3.048   1.399 -0.0478  0.0553 -0.0090
 5244TIP3    H137147   6.265   2.978   1.464  2.7199 -1.5408 -1.4703
 5244TIP3    H237148   6.184   3.092   1.407 -2.8724 -4.8405 -0.5372
 5245TIP3   OH237149   6.082   4.881  14.646  0.0241 -0.2357  0.4568
 5245TIP3    H137150   6.133   4.808  14.613  0.1026 -1.4851  3.2444
 5245TIP3    H237151   5.992   4.848  14.652 -0.1577  0.2715  0.6059
 5246TIP3   OH237152   5.646   0.070  12.013 -0.1376  0.1528 -0.1801
 5246TIP3    H137153   5.608  -0.002  11.964  0.4773 -0.9099  0.8958
 5246TIP3    H237154   5.740   0.049  12.017  0.1675  1.3818 -0.4870
 5247TIP3   OH237155   5.394   3.452  13.682 -0.2558  0.2158  0.4431
 5247TIP3    H137156   5.455   3.380  13.664 -0.7812 -0.4405  1.2256
 5247TIP3    H237157   5.430   3.496  13.759  0.4535  1.2391 -0.4784
 5248TIP3   OH237158   0.495   2.890   5.097  0.3210 -0.0311  0.1707
 5248TIP3    H137159   0.559   2.873   5.167 -0.4650 -1.8328  0.4612
 5248TIP3    H237160   0.445   2.809   5.090 -2.2792  1.5309  0.2857
 5249TIP3   OH237161   5.177   2.167   2.522 -0.0017  0.1708 -0.1972
 5249TIP3    H137162   5.190   2.114   2.443  0.5711  1.0523 -0.7082
 5249TIP3    H237163   5.240   2.238   2.513 -0.8181  0.9855  0.4454
 5250TIP3   OH237164   2.917   6.032  16.128  0.0177 -0.1601  0.2200
 5250TIP3    H137165   2.859   6.066  16.197 -0.0651 -1.8014  0.9692
 5250TIP3    H237166   2.860   6.021  16.052 -0.2930 -0.1842  0.4580
 5251TIP3   OH237167   3.784   6.216  14.115  0.2045 -0.6718 -0.2747
 5251TIP3    H137168   3.727   6.156  14.162 -0.2804  0.0463  0.0649
 5251TIP3    H237169   3.865   6.217  14.166 -0.5516  0.6169  0.9566
 5252TIP3   OH237170   3.337   4.359   6.059  0.2057 -0.0124  0.0208
 5252TIP3    H137171   3.362   4.283   6.111  1.5187  0.0619 -0.4776
 5252TIP3    H237172   3.278   4.324   5.992  1.5002 -0.7408 -0.7415
 5253TIP3   OH237173   2.632   3.425   4.885 -0.2220 -0.2095 -0.6394
 5253TIP3    H137174   2.696   3.459   4.948  1.0430 -2.5613 -0.6072
 5253TIP3    H237175   2.614   3.499   4.827 -0.1588  1.5151  1.4877
 5254TIP3   OH237176   2.521   5.415   0.834 -0.1403  0.3772 -0.3519
 5254TIP3    H137177   2.609   5.416   0.798  0.1190 -2.0057  0.1373
 5254TIP3    H237178   2.469   5.368   0.769 -0.5033 -0.4584  0.5302
 5255TIP3   OH237179   4.548   6.247  11.706  0.4482  0.3419  0.4793
 5255TIP3    H137180   4.582   6.327  11.747  1.2567  0.1321  0.2237
 5255TIP3    H237181   4.506   6.277  11.625  1.7404  0.3929 -0.1903
 5256TIP3   OH237182   0.997   6.566   2.037 -0.3694  0.0731 -0.2836
 5256TIP3    H137183   0.979   6.607   1.952  0.5734  0.3463 -0.3509
 5256TIP3    H237184   0.976   6.634   2.101 -1.8299 -0.3840 -0.2454
 5257TIP3   OH237185   3.878   0.706   4.256  0.2002 -0.3198 -0.1118
 5257TIP3    H137186   3.898   0.744   4.341  1.5920 -0.2670 -0.4433
 5257TIP3    H237187   3.903   0.774   4.193 -1.5430 -0.0539 -0.5491
 5258TIP3   OH237188   4.806   2.744  16.969  0.5876 -0.2665 -0.0320
 5258TIP3    H137189   4.840   2.829  16.940  0.4081 -0.8953 -2.1603
 5258TIP3    H237190   4.835   2.737  17.060 -2.0818  3.4910  1.2944
 5259TIP3   OH237191   5.951   5.050  14.849  0.3779 -0.0661 -0.1182
 5259TIP3    H137192   5.905   4.978  14.807  1.1854 -1.3229  1.1079
 5259TIP3    H237193   6.015   5.079  14.784 -0.2679 -0.1433 -0.7892
 5260TIP3   OH237194   5.990   2.837  12.102 -0.1400  0.4387  0.6137
 5260TIP3    H137195   5.950   2.771  12.159  1.6939 -0.4048  0.9555
 5260TIP3    H237196   6.039   2.786  12.038  1.0766  1.4657  0.7185
 5261TIP3   OH237197   5.689   0.151   2.299  0.0597 -0.0282  0.4478
 5261TIP3    H137198   5.702   0.059   2.277  1.0452  0.3036 -0.4514
 5261TIP3    H237199   5.650   0.189   2.220 -0.5120  0.2811  0.8794
 5262TIP3   OH237200   0.973   2.074   5.071  0.2158 -0.1222 -0.0064
 5262TIP3    H137201   1.039   2.107   5.010  0.3012  0.0536  0.1820
 5262TIP3    H237202   1.022   2.056   5.151  0.0295  0.0300  0.1418
 5263TIP3   OH237203   3.343   0.139   0.344 -0.2214  0.2914  0.4499
 5263TIP3    H137204   3.265   0.083   0.348 -2.2286  3.0331  1.1344
 5263TIP3    H237205   3.371   0.147   0.436 -0.9508  1.6849  0.5775
 5264TIP3   OH237206   2.629   1.410  16.671  0.3466  0.6791  0.3330
 5264TIP3    H137207   2.673   1.495  16.670 -0.2352  0.9777 -1.2089
 5264TIP3    H237208   2.552   1.422  16.615  0.0607 -0.7555  0.4017
 5265TIP3   OH237209   5.953   3.750  12.140 -0.4901 -0.1159  0.2652
 5265TIP3    H137210   5.957   3.703  12.223  0.6907 -0.8908 -0.2146
 5265TIP3    H237211   5.987   3.837  12.160  1.1768 -0.7601  0.2961
 5266TIP3   OH237212   6.096   5.860   5.559  0.7686 -0.8550 -0.0446
 5266TIP3    H137213   6.019   5.901   5.520  2.5081  1.0180 -1.6414
 5266TIP3    H237214   6.063   5.820   5.640 -1.9053 -0.3441 -0.8197
 5267TIP3   OH237215   2.366   5.752  10.899 -0.1932 -0.8522  0.2247
 5267TIP3    H137216   2.393   5.717  10.814 -0.2815 -0.8143  0.1806
 5267TIP3    H237217   2.374   5.847  10.890 -0.8116 -0.8129  0.0505
 5268TIP3   OH237218   5.367   3.656   1.889 -0.1107 -0.4723 -0.2733
 5268TIP3    H137219   5.355   3.593   1.818 -1.4857 -1.3122  0.6721
 5268TIP3    H237220   5.442   3.622   1.938 -1.0761 -1.6028  0.4455
 5269TIP3   OH237221   3.015   0.567   3.252 -0.1258  0.3075 -0.2847
 5269TIP3    H137222   2.936   0.621   3.257  0.3898  1.1453 -0.9958
 5269TIP3    H237223   2.984   0.480   3.229 -0.9238  0.4117  0.3807
 5270TIP3   OH237224   6.161   4.799   1.828 -0.2508 -0.2057  0.2902
 5270TIP3    H137225   6.185   4.861   1.897  0.3218  0.0583 -0.1491
 5270TIP3    H237226   6.104   4.848   1.770 -1.5383 -0.7129  1.1027
 5271TIP3   OH237227   3.292   3.183   6.284  0.5042  0.0905  0.7049
 5271TIP3    H137228   3.306   3.277   6.273 -0.3261 -0.0359 -1.5796
 5271TIP3    H237229   3.197   3.172   6.283  0.6135 -0.8643  0.1744
 5272TIP3   OH237230   4.348   5.485  11.394 -0.7636  0.3032  0.0319
 5272TIP3    H137231   4.275   5.448  11.344 -0.5318  1.5592 -1.2601
 5272TIP3    H237232   4.308   5.556  11.444 -1.1969 -1.6005  2.4634
 5273TIP3   OH237233   5.340   1.135   4.506 -0.2525  0.0565 -0.2404
 5273TIP3    H137234   5.377   1.177   4.584  1.8102 -1.2001 -0.4930
 5273TIP3    H237235   5.297   1.207   4.459  1.9927  1.6781  0.0438
 5274TIP3   OH237236   3.745   2.493   1.206 -0.5106 -0.3792  0.2136
 5274TIP3    H137237   3.769   2.586   1.211  0.8137 -0.7904  1.6946
 5274TIP3    H237238   3.659   2.489   1.248 -0.6350  0.1997  0.0181
 5275TIP3   OH237239   2.505   1.492   1.918 -0.3432 -0.0610 -0.6234
 5275TIP3    H137240   2.426   1.485   1.864 -1.0579  2.6309 -0.0370
 5275TIP3    H237241   2.576   1.502   1.854 -0.8074  0.0277 -1.1365
 5276TIP3   OH237242   5.398   5.179   0.774 -0.0778 -0.3966 -0.1451
 5276TIP3    H137243   5.456   5.183   0.698  0.6839  0.3646  0.4648
 5276TIP3    H237244   5.364   5.090   0.774 -0.9321 -0.0911 -2.0126
 5277TIP3   OH237245   2.555   4.454  12.208  0.4699 -0.5384  0.0975
 5277TIP3    H137246   2.584   4.545  12.220 -0.4179 -0.0909 -1.0516
 5277TIP3    H237247   2.636   4.405  12.194  0.7408  0.6051 -2.4811
 5278TIP3   OH237248   4.341   5.524   5.758  0.2687  0.3283  0.0084
 5278TIP3    H137249   4.273   5.562   5.702 -0.1942 -0.8377 -0.2382
 5278TIP3    H237250   4.302   5.442   5.789  0.9583  0.4218  1.1353
 5279TIP3   OH237251   5.234   2.672   6.108 -0.7828 -0.3967 -0.1092
 5279TIP3    H137252   5.205   2.592   6.152 -0.7558 -0.3624 -0.0284
 5279TIP3    H237253   5.155   2.727   6.102 -0.5200  0.1218  1.0338
 5280TIP3   OH237254   3.690   6.275  14.903  0.0753  0.3014  0.3350
 5280TIP3    H137255   3.655   6.187  14.897 -0.5141  0.5149  0.6284
 5280TIP3    H237256   3.710   6.287  14.996 -1.3838  1.0625  0.5642
 5281TIP3   OH237257   0.937   4.850  11.687 -0.0428 -0.4284 -0.1526
 5281TIP3    H137258   1.012   4.791  11.695 -0.1422 -0.4667  0.5553
 5281TIP3    H237259   0.949   4.893  11.603  2.9165  2.4863  1.6546
 5282TIP3   OH237260   3.175   1.592   2.491 -0.3892 -0.4655 -0.3863
 5282TIP3    H137261   3.162   1.498   2.487 -2.4413 -0.1447 -1.4757
 5282TIP3    H237262   3.092   1.627   2.523  0.9775  0.8438  1.9478
 5283TIP3   OH237263   2.194   6.515   5.495  0.0595  0.2755 -0.0587
 5283TIP3    H137264   2.236   6.448   5.442  3.3092  1.1392  1.2581
 5283TIP3    H237265   2.205   6.485   5.585 -2.0780  0.6162  0.3404
 5284TIP3   OH237266   2.330   3.940  14.558 -0.6372 -0.5415 -0.1117
 5284TIP3    H137267   2.240   3.923  14.529 -0.3308 -1.9578 -0.2346
 5284TIP3    H237268   2.384   3.880  14.507  0.7072  2.1821 -2.0593
 5285TIP3   OH237269   4.327   0.529   0.166  0.0433  0.0988  0.1765
 5285TIP3    H137270   4.388   0.496   0.232  2.5959  2.2348 -1.0258
 5285TIP3    H237271   4.302   0.616   0.198 -2.0767 -0.5884  0.4408
 5286TIP3   OH237272   6.385   2.086   4.042  0.0231  0.0803  0.1502
 5286TIP3    H137273   6.327   2.088   3.965 -0.9485  0.9413  0.8791
 5286TIP3    H237274   6.341   2.027   4.103  1.1275 -1.1182 -0.1944
 5287TIP3   OH237275   6.469   4.361   3.647  0.0300 -0.1068  0.4251
 5287TIP3    H137276   6.501   4.353   3.557  0.1037 -2.5183  0.6541
 5287TIP3    H237277   6.546   4.349   3.701 -0.0263  1.2803  0.8415
 5288TIP3   OH237278   0.296   6.021  11.595 -0.2750  0.2440 -0.1499
 5288TIP3    H137279   0.319   6.089  11.532 -1.5577 -0.1032 -1.0025
 5288TIP3    H237280   0.380   5.981  11.619  0.5418  2.3972  0.7006
 5289TIP3   OH237281   0.148   4.888  15.671 -0.2722  0.9728  0.5785
 5289TIP3    H137282   0.114   4.817  15.726  0.4646  0.1977  0.0409
 5289TIP3    H237283   0.169   4.846  15.588  0.6187  1.7322  0.4169
 5290TIP3   OH237284   5.199   0.998  16.802  0.0785  0.4890 -0.5466
 5290TIP3    H137285   5.288   0.970  16.782  0.8076  4.0142 -2.6952
 5290TIP3    H237286   5.210   1.069  16.866 -1.3689 -0.6281  0.9873
 5291TIP3   OH237287   0.999   0.242  12.013  0.5125 -0.5076  0.3835
 5291TIP3    H137288   0.936   0.272  11.948  0.9050 -2.1531 -0.7792
 5291TIP3    H237289   0.972   0.286  12.094 -1.6476 -0.5457 -0.2672
 5292TIP3   OH237290   4.970   0.838   5.879 -0.7760  0.1022  0.5921
 5292TIP3    H137291   4.926   0.811   5.799  1.0164  0.8005 -0.6700
 5292TIP3    H237292   4.967   0.761   5.935 -1.6421 -0.5470 -0.3219
 5293TIP3   OH237293   4.808   5.354  13.063  0.4645  0.5250  0.6950
 5293TIP3    H137294   4.889   5.368  13.113 -0.3006 -1.1225  2.4890
 5293TIP3    H237295   4.775   5.270  13.096 -0.8820  0.1636 -1.5329
 5294TIP3   OH237296   3.598   1.570  13.166  0.0945 -0.0589  0.1797
 5294TIP3    H137297   3.630   1.489  13.205 -0.9452 -2.0205 -2.8843
 5294TIP3    H237298   3.677   1.620  13.147  0.9136 -1.5389 -0.3725
 5295TIP3   OH237299   1.064   4.555  15.874  0.3303 -0.0355  0.3334
 5295TIP3    H137300   1.124   4.503  15.927  0.3078 -0.0080  0.3859
 5295TIP3    H237301   0.999   4.587  15.936  1.6148  1.9334  0.7197
 5296TIP3   OH237302   2.882   1.780   3.502 -0.1997 -0.4350 -0.2071
 5296TIP3    H137303   2.956   1.745   3.451  1.3003  1.7019  0.4295
 5296TIP3    H237304   2.899   1.751   3.591 -0.2620 -0.1244 -0.0960
 5297TIP3   OH237305   6.708   4.763   5.083  0.2277 -0.8667 -0.1195
 5297TIP3    H137306   6.705   4.783   4.989 -1.9906 -1.3501 -0.1942
 5297TIP3    H237307   6.795   4.727   5.098  0.9874  0.2287 -1.7783
 5298TIP3   OH237308   3.162   4.708   0.327  0.4350  0.1034  0.6475
 5298TIP3    H137309   3.209   4.645   0.381 -0.3576 -0.5697  0.5723
 5298TIP3    H237310   3.072   4.706   0.360  0.1936  0.5027  0.0369
 5299TIP3   OH237311   6.721   4.678   2.831  0.0000 -0.2683 -0.1484
 5299TIP3    H137312   6.697   4.637   2.748 -1.2997  1.4954 -0.6759
 5299TIP3    H237313   6.677   4.624   2.897 -0.4574 -0.6024 -0.7168
 5300TIP3   OH237314   6.259   1.967   1.765 -0.1897 -0.0435  0.1425
 5300TIP3    H137315   6.199   1.892   1.765 -0.1229 -0.1060 -1.4292
 5300TIP3    H237316   6.226   2.024   1.696 -1.1988  2.1779  2.3992
 5301TIP3   OH237317   4.939   4.864  13.317  0.6983  0.6783 -0.6076
 5301TIP3    H137318   4.873   4.909  13.369  0.6802 -0.8212  0.7026
 5301TIP3    H237319   4.894   4.839  13.237 -0.1941  0.0922  0.0664
 5302TIP3   OH237320   6.444   6.721   4.662 -0.2594  0.3929 -0.4103
 5302TIP3    H137321   6.353   6.735   4.690 -0.0244  1.0647  0.0375
 5302TIP3    H237322   6.492   6.707   4.743  0.4684  2.5881 -0.4220
 5303TIP3   OH237323   4.168   2.221  16.556  0.3080  0.4987 -0.3293
 5303TIP3    H137324   4.247   2.198  16.506  0.9947  0.3856  0.8027
 5303TIP3    H237325   4.198   2.226  16.647 -1.3629 -1.3105  0.3421
 5304TIP3   OH237326   1.898   3.574  16.485  0.6794 -0.1752 -0.2137
 5304TIP3    H137327   1.972   3.554  16.427  1.0883 -1.0566  0.6108
 5304TIP3    H237328   1.863   3.488  16.510 -0.5052  0.2262 -0.4349
 5305TIP3   OH237329   0.169   6.402  12.913  0.3635  0.3337 -0.1216
 5305TIP3    H137330   0.104   6.425  12.847 -1.0651  0.0885  1.1759
 5305TIP3    H237331   0.253   6.413  12.869 -0.5920 -0.9050 -2.3318
 5306TIP3   OH237332   6.365   4.032  15.610 -0.0539 -0.2222  0.0622
 5306TIP3    H137333   6.280   3.990  15.623  0.1665  0.0396  2.6084
 5306TIP3    H237334   6.368   4.053  15.517 -2.7026 -0.3829 -0.0746
 5307TIP3   OH237335   6.464   0.533  12.305  0.5533  0.1399 -0.6697
 5307TIP3    H137336   6.444   0.531  12.398 -0.1997 -2.4848 -0.8256
 5307TIP3    H237337   6.559   0.523  12.300  0.5590 -0.0741 -0.1740
 5308TIP3   OH237338   2.639   5.952   2.005 -0.1858 -0.4399  0.2494
 5308TIP3    H137339   2.616   5.913   2.089  0.8580  1.1683  1.2953
 5308TIP3    H237340   2.627   6.046   2.018 -0.5258 -0.2060 -1.5716
 5309TIP3   OH237341   1.761   4.404  14.120  0.1202  0.5468  0.0671
 5309TIP3    H137342   1.678   4.408  14.167  0.1902  2.1655  0.0999
 5309TIP3    H237343   1.812   4.477  14.155  0.7207  0.9182 -1.5037
 5310TIP3   OH237344   5.434   6.640   1.383 -0.1760 -0.3631  0.0726
 5310TIP3    H137345   5.425   6.573   1.315  0.1639 -0.0697 -0.2681
 5310TIP3    H237346   5.362   6.701   1.367 -0.2874 -0.4681  0.1750
 5311TIP3   OH237347   2.194   0.263  11.183  0.2138 -0.8582  0.1658
 5311TIP3    H137348   2.275   0.312  11.194  0.6319 -1.1548 -1.3706
 5311TIP3    H237349   2.206   0.184  11.235 -0.4155  0.5736  2.5552
 5312TIP3   OH237350   4.206   1.188  10.415  0.1441 -0.2304 -0.4586
 5312TIP3    H137351   4.192   1.124  10.485  0.0623  0.7444  0.4187
 5312TIP3    H237352   4.168   1.147  10.337  0.7851 -1.5793 -0.0689
 5313TIP3   OH237353   4.787   2.208  12.069  0.4403  0.5641  0.3022
 5313TIP3    H137354   4.855   2.201  12.136  0.5259 -0.4979  0.1111
 5313TIP3    H237355   4.763   2.301  12.068  1.4048  0.8186  0.8435
 5314TIP3   OH237356   2.272   6.082   6.579  0.7952  0.3020  0.1194
 5314TIP3    H137357   2.208   6.020   6.611  0.7357 -0.1778 -0.9256
 5314TIP3    H237358   2.284   6.144   6.652 -0.2259 -0.0752  0.6087
 5315TIP3   OH237359   5.903   4.120  15.121 -0.7573  0.1900  0.2761
 5315TIP3    H137360   5.989   4.128  15.162 -1.4951 -0.9592  2.0886
 5315TIP3    H237361   5.901   4.191  15.057  1.5249  0.2534  0.2253
 5316TIP3   OH237362   0.191   2.972   5.072  0.3054 -0.1955  0.1003
 5316TIP3    H137363   0.217   2.979   5.164  0.3428  1.5795 -0.0159
 5316TIP3    H237364   0.118   2.910   5.071  0.1855 -0.0745  1.3576
 5317TIP3   OH237365   5.054   0.753  12.298  0.4265  0.1456  0.4936
 5317TIP3    H137366   5.114   0.731  12.369  0.3287  0.6426  0.7303
 5317TIP3    H237367   5.112   0.775  12.225  0.5254 -0.0002  0.5263
 5318TIP3   OH237368   4.970   4.072  16.740 -0.6415 -0.1824  0.6056
 5318TIP3    H137369   4.918   4.116  16.673  0.2233 -0.5854 -0.3484
 5318TIP3    H237370   5.013   4.143  16.788  1.3350  0.0412 -1.3961
 5319TIP3   OH237371   0.848   0.992   2.821 -0.0390  0.4643  0.5543
 5319TIP3    H137372   0.808   0.991   2.734  0.9249  0.1892  0.1111
 5319TIP3    H237373   0.830   1.080   2.854  0.6123  0.9780 -0.4089
 5320TIP3   OH237374   5.396   6.328   3.632  0.0446  0.1715  0.2678
 5320TIP3    H137375   5.434   6.414   3.650 -0.2576  0.6051 -1.1213
 5320TIP3    H237376   5.462   6.283   3.579  0.3642 -0.5957  1.3095
 5321TIP3   OH237377   0.246   5.699  12.371 -0.4145  0.1701 -0.2628
 5321TIP3    H137378   0.302   5.715  12.295  0.4311 -1.5594 -0.0307
 5321TIP3    H237379   0.294   5.738  12.444 -0.6033  0.6896 -0.4167
 5322TIP3   OH237380   1.923   5.885   4.906 -0.1464  0.6140 -0.1061
 5322TIP3    H137381   1.999   5.943   4.911 -0.7798  1.3403  1.6941
 5322TIP3    H237382   1.923   5.840   4.991 -0.3214 -1.1816 -1.0440
 5323TIP3   OH237383   5.156   5.268   3.108 -0.1980 -0.6054 -0.1470
 5323TIP3    H137384   5.063   5.283   3.126  0.1214  0.4794  0.6676
 5323TIP3    H237385   5.159   5.241   3.017 -1.4455 -2.0136  0.2062
 5324TIP3   OH237386   2.097   2.614  11.780 -0.1661 -1.1623  0.1936
 5324TIP3    H137387   2.102   2.674  11.855 -0.1046  1.2548 -1.7009
 5324TIP3    H237388   2.170   2.554  11.793 -0.3671 -1.0151  2.2540
 5325TIP3   OH237389   2.903   6.597   0.779  0.0761  0.1215  0.5570
 5325TIP3    H137390   2.997   6.585   0.795 -0.1088 -0.0029  1.6027
 5325TIP3    H237391   2.863   6.517   0.813 -0.4052  0.1609  0.0838
 5326TIP3   OH237392   0.280   2.261  15.334 -0.1506 -0.2854 -0.2302
 5326TIP3    H137393   0.185   2.267  15.330 -0.1186 -0.9230 -2.7944
 5326TIP3    H237394   0.302   2.185  15.280  1.6876 -1.6746  2.3668
 5327TIP3   OH237395   2.777   2.515  13.557 -0.2558  0.1691  0.6635
 5327TIP3    H137396   2.853   2.563  13.590  0.0408  0.0349  0.1847
 5327TIP3    H237397   2.806   2.424  13.551  0.3429  0.4820 -1.8133
 5328TIP3   OH237398   1.250   5.864   1.411 -0.4580 -0.8495  0.1092
 5328TIP3    H137399   1.306   5.942   1.410  0.4155 -1.4579  0.4776
 5328TIP3    H237400   1.197   5.872   1.332 -0.4972  0.2080  0.2385
 5329TIP3   OH237401   3.999   1.660  13.723  0.2768  0.2865  0.0450
 5329TIP3    H137402   3.951   1.607  13.659  0.7274 -1.4288  1.0875
 5329TIP3    H237403   4.091   1.637  13.710  0.6595  2.0456 -0.5668
 5330TIP3   OH237404   6.368   1.835   1.282 -0.0451 -0.6659  0.0936
 5330TIP3    H137405   6.399   1.882   1.359 -2.7814  0.9572  0.2730
 5330TIP3    H237406   6.430   1.858   1.213  1.9246 -1.4398  1.5554
 5331TIP3   OH237407   5.457   5.046  11.393 -0.5886  0.1012  0.3161
 5331TIP3    H137408   5.412   4.983  11.338 -0.6842  0.7326 -0.3310
 5331TIP3    H237409   5.550   5.037  11.369 -0.5918  0.1360  0.2915
 5332TIP3   OH237410   4.898   2.884   5.518 -0.2671  0.5225  0.3837
 5332TIP3    H137411   4.865   2.795   5.530  0.0487  0.0675 -1.8093
 5332TIP3    H237412   4.847   2.937   5.579 -1.7439 -0.8914  0.4212
 5333TIP3   OH237413   3.905   3.327   3.384  0.1367  0.0709 -0.1303
 5333TIP3    H137414   3.964   3.397   3.412  0.1421 -0.1851  0.5113
 5333TIP3    H237415   3.833   3.330   3.448 -0.0970 -0.1988 -0.3792
 5334TIP3   OH237416   5.142   3.055   1.564  0.9575 -0.2921  0.4896
 5334TIP3    H137417   5.186   3.035   1.646  2.5830  0.0998 -0.2696
 5334TIP3    H237418   5.209   3.044   1.497  0.2876  1.6913 -0.5483
 5335TIP3   OH237419   0.961   0.831   4.711  0.1688  0.2373  0.1798
 5335TIP3    H137420   1.056   0.823   4.722  0.4075  2.5727  0.1466
 5335TIP3    H237421   0.932   0.876   4.791 -0.8446 -0.1234  0.0107
 5336TIP3   OH237422   0.962   5.503  14.375 -0.0455  0.8056 -0.4494
 5336TIP3    H137423   0.934   5.492  14.466  2.8352  0.7780  0.4858
 5336TIP3    H237424   0.905   5.444  14.325  1.1744 -2.4700  1.8610
 5337TIP3   OH237425   2.279   4.041  12.388  0.0514  0.0179 -0.9168
 5337TIP3    H137426   2.241   4.108  12.445  0.4327 -0.7648  0.2964
 5337TIP3    H237427   2.359   4.014  12.434 -0.1604 -1.3364 -1.3227
 5338TIP3   OH237428   2.178   2.018  10.404  0.5654 -0.5988 -0.4445
 5338TIP3    H137429   2.173   1.961  10.481 -0.4408 -0.5988 -0.4967
 5338TIP3    H237430   2.271   2.041  10.397  0.6418 -0.4514  0.8629
 5339TIP3   OH237431   3.079   0.452   1.587 -0.6566 -0.2165  0.1042
 5339TIP3    H137432   3.099   0.540   1.619  1.0711 -0.5174 -0.0997
 5339TIP3    H237433   3.044   0.406   1.664  0.5242 -0.0063  0.7691
 5340TIP3   OH237434   5.238   6.709  11.624 -0.1315 -0.4060  0.7162
 5340TIP3    H137435   5.270   6.768  11.692  0.2613 -0.0595  0.2286
 5340TIP3    H237436   5.260   6.752  11.542 -1.5617 -0.3121  0.3639
 5341TIP3   OH237437   2.496   3.702   1.173 -0.3482  0.0676 -0.1622
 5341TIP3    H137438   2.420   3.681   1.119  0.4827  2.1417 -2.2255
 5341TIP3    H237439   2.471   3.782   1.220 -0.3976 -0.7126  1.1582
 5342TIP3   OH237440   0.326   1.895   3.002  0.2380  0.3990 -0.3367
 5342TIP3    H137441   0.251   1.896   3.062 -0.2887 -1.0389 -0.9440
 5342TIP3    H237442   0.391   1.839   3.046  0.3965  0.4814 -0.4677
 5343TIP3   OH237443   0.105   1.225  17.186 -0.4093  0.1868 -0.2393
 5343TIP3    H137444   0.089   1.223  17.281 -0.3087 -0.2509 -0.2324
 5343TIP3    H237445   0.198   1.248  17.179 -0.2500 -0.4551 -0.2178
 5344TIP3   OH237446   2.666   1.752  10.777  0.1304  0.0445 -0.3176
 5344TIP3    H137447   2.693   1.701  10.854  0.3133 -1.1881 -1.1855
 5344TIP3    H237448   2.742   1.749  10.719 -1.1781 -1.9258 -2.0070
 5345TIP3   OH237449   2.147   5.610   3.318  0.1294 -0.3687 -0.5958
 5345TIP3    H137450   2.118   5.665   3.245 -0.3581  0.4015  0.1701
 5345TIP3    H237451   2.069   5.559   3.341 -0.4447  1.2109  1.0239
 5346TIP3   OH237452   0.211   0.016  16.756  0.6818  0.2554 -0.3565
 5346TIP3    H137453   0.154   0.057  16.821 -0.1631  1.1561 -1.6241
 5346TIP3    H237454   0.163  -0.061  16.727  0.5093  0.5169 -0.7731
 5347TIP3   OH237455   5.033   4.336   2.301 -0.0852 -0.1404 -0.5671
 5347TIP3    H137456   5.054   4.356   2.392 -0.8559  0.2012 -0.4662
 5347TIP3    H237457   4.984   4.254   2.305 -0.3728  0.0279 -0.6513
 5348TIP3   OH237458   2.654   4.780  14.700 -0.4443 -0.2976  0.0433
 5348TIP3    H137459   2.668   4.859  14.647  1.4303 -0.3981  0.3509
 5348TIP3    H237460   2.562   4.784  14.725 -0.2796  1.9949  0.3753
 5349TIP3   OH237461   4.038   4.770   3.642  0.3533 -0.5390  0.4326
 5349TIP3    H137462   4.058   4.850   3.592  1.9372 -1.3860 -0.3029
 5349TIP3    H237463   4.088   4.779   3.723 -0.3355 -0.2853  0.8367
 5350TIP3   OH237464   0.146   6.720   5.228 -0.3427  0.0958  0.5845
 5350TIP3    H137465   0.217   6.753   5.282  0.0569  1.1530 -0.5579
 5350TIP3    H237466   0.100   6.799   5.199 -0.8463 -0.4834 -0.2033
 5351TIP3   OH237467   3.150   5.738  11.590  0.2048 -0.3762  0.3357
 5351TIP3    H137468   3.150   5.820  11.539  0.9664 -0.0342  0.8886
 5351TIP3    H237469   3.079   5.687  11.551 -1.7653  1.4435  1.3998
 5352TIP3   OH237470   3.231   3.169  13.602 -0.2157 -0.2130  0.0178
 5352TIP3    H137471   3.274   3.142  13.683 -0.3916  0.6220  0.4006
 5352TIP3    H237472   3.140   3.141  13.613 -0.6707  1.6018  0.9317
 5353TIP3   OH237473   3.202   3.983  16.115 -0.6338 -0.7563  0.4007
 5353TIP3    H137474   3.199   4.050  16.183 -0.2210 -0.2514 -0.0708
 5353TIP3    H237475   3.139   3.916  16.144 -2.8636  0.9681 -0.2861
 5354TIP3   OH237476   5.479   1.048  11.398  0.0559 -0.4140  0.3013
 5354TIP3    H137477   5.385   1.033  11.403  0.2868 -2.2627 -0.4442
 5354TIP3    H237478   5.490   1.106  11.322 -0.3963 -1.0801 -0.2750
 5355TIP3   OH237479   0.031   2.169   1.863  0.2355  0.0599 -0.0203
 5355TIP3    H137480   0.091   2.110   1.908 -0.3807  0.3103  1.1392
 5355TIP3    H237481  -0.056   2.134   1.881 -0.0563  0.5323 -0.4734
 5356TIP3   OH237482   4.778   4.958  16.343 -0.2769  0.4173  0.1877
 5356TIP3    H137483   4.835   4.902  16.396  0.0449 -0.5473 -1.1434
 5356TIP3    H237484   4.817   4.956  16.256 -1.7590  0.5818 -0.4915
 5357TIP3   OH237485   1.263   1.882  13.636 -0.3352  0.0437 -0.3437
 5357TIP3    H137486   1.318   1.833  13.575  0.1706 -0.1224  0.2494
 5357TIP3    H237487   1.197   1.924  13.580 -1.0108 -1.6228 -0.8186
 5358TIP3   OH237488   1.252   2.456   0.233  0.5722  0.3282  0.0337
 5358TIP3    H137489   1.221   2.455   0.324  0.8356 -0.7164  0.1200
 5358TIP3    H237490   1.231   2.544   0.202  1.2337  0.9766  1.3652
 5359TIP3   OH237491   6.478   0.141   4.262 -0.2455  0.3931 -0.7317
 5359TIP3    H137492   6.530   0.199   4.207 -0.4875  1.2677 -0.0593
 5359TIP3    H237493   6.412   0.199   4.302 -0.9032 -0.4587 -0.5567
 5360TIP3   OH237494   5.783   0.478  14.540 -0.3850  0.2439 -0.9975
 5360TIP3    H137495   5.778   0.574  14.543 -1.4476  0.1319  1.4841
 5360TIP3    H237496   5.847   0.460  14.471 -0.1892  2.7300 -1.5139
 5361TIP3   OH237497   5.245   5.834   1.285 -0.5649 -0.1822 -0.6728
 5361TIP3    H137498   5.234   5.787   1.203 -0.2462 -1.8096  0.1895
 5361TIP3    H237499   5.339   5.829   1.304 -0.5672  0.5606 -0.4233
 5362TIP3   OH237500   3.271   6.310   6.511  0.8372  0.5635 -0.6905
 5362TIP3    H137501   3.294   6.217   6.509  3.6021  1.1597  0.9275
 5362TIP3    H237502   3.340   6.354   6.462  0.6953  1.9523  0.3058
 5363TIP3   OH237503   1.780   0.923   4.169  0.7964 -0.3047 -0.0315
 5363TIP3    H137504   1.770   0.890   4.080 -1.3232  1.7594 -0.6019
 5363TIP3    H237505   1.691   0.945   4.197  1.7413  1.7745  1.5206
 5364TIP3   OH237506   2.560   2.120  14.374  0.0532  0.3634  0.0891
 5364TIP3    H137507   2.497   2.139  14.304 -0.4006 -2.1294 -0.2091
 5364TIP3    H237508   2.624   2.062  14.334  1.9064  1.9051  0.7383
 5365TIP3   OH237509   3.017   6.547   3.973  0.0081  0.4962  0.1342
 5365TIP3    H137510   2.930   6.517   3.944 -0.8098  1.9615  1.0260
 5365TIP3    H237511   3.001   6.588   4.058  1.8481 -0.6326  1.0533
 5366TIP3   OH237512   4.666   6.527  14.106  0.7655 -0.4502 -0.3552
 5366TIP3    H137513   4.594   6.493  14.053  0.2804 -1.9579  1.2304
 5366TIP3    H237514   4.623   6.573  14.178  1.4156  2.6289 -1.8363
 5367TIP3   OH237515   0.837   2.188  12.556  0.4792  0.6555 -0.0251
 5367TIP3    H137516   0.770   2.160  12.495  1.1539  0.0913 -0.5210
 5367TIP3    H237517   0.838   2.120  12.624  0.6732  0.5705 -0.1138
 5368TIP3   OH237518   0.121   5.388   2.055 -0.0677  0.0520 -0.1631
 5368TIP3    H137519   0.182   5.353   1.991 -0.7264 -1.2120 -0.1160
 5368TIP3    H237520   0.154   5.476   2.075  0.7214  0.0546 -1.4489
 5369TIP3   OH237521   1.437   0.405   0.070 -0.0751 -0.6657 -0.1460
 5369TIP3    H137522   1.440   0.395  -0.025  1.0711  0.4676 -0.2523
 5369TIP3    H237523   1.411   0.496   0.083 -1.5058 -1.1792  0.6438
 5370TIP3   OH237524   0.716   5.582   2.256  0.1151 -0.3072  0.1627
 5370TIP3    H137525   0.712   5.651   2.322 -1.9532 -0.5576  0.3389
 5370TIP3    H237526   0.784   5.610   2.195  1.3734  0.3915  1.8800
 5371TIP3   OH237527   3.099   5.341  15.240  0.2544  0.3855  0.3949
 5371TIP3    H137528   3.065   5.286  15.170  0.2306  0.1181  0.6187
 5371TIP3    H237529   3.144   5.280  15.299 -0.0909  0.5598  0.8315
 5372TIP3   OH237530   6.416   1.975   3.499  0.0374 -0.3850  0.1474
 5372TIP3    H137531   6.338   2.028   3.480  0.7694  0.2298 -1.2183
 5372TIP3    H237532   6.415   1.907   3.432 -0.1574 -1.3214  1.0786
 5373TIP3   OH237533   2.886   2.200  15.136  0.6281 -0.2967 -0.0129
 5373TIP3    H137534   2.845   2.276  15.095  1.5104  0.8710  1.2395
 5373TIP3    H237535   2.902   2.227  15.226 -1.2406 -2.8264  1.1336
 5374TIP3   OH237536   6.602   3.797   1.555  0.0590 -0.1160  0.7332
 5374TIP3    H137537   6.660   3.858   1.601 -0.7789  1.3264 -0.0901
 5374TIP3    H237538   6.551   3.853   1.496 -1.1442 -1.5512  0.4055
 5375TIP3   OH237539   6.492   3.634  15.093  0.0455  0.1225 -0.0450
 5375TIP3    H137540   6.578   3.635  15.136 -0.5825  0.0011  1.2154
 5375TIP3    H237541   6.452   3.552  15.120 -1.5961  1.4369  1.6110
 5376TIP3   OH237542   2.395   1.636  14.495 -0.1962 -0.5643  0.4204
 5376TIP3    H137543   2.357   1.722  14.481  0.6672 -0.0848  0.9598
 5376TIP3    H237544   2.343   1.577  14.440  0.4384  0.6006 -1.4896
 5377TIP3   OH237545   6.626   5.148   2.346 -0.3498  0.2610  0.0978
 5377TIP3    H137546   6.549   5.092   2.352 -1.3399  1.4964 -0.9296
 5377TIP3    H237547   6.642   5.159   2.252  1.3975 -0.3875  0.2827
 5378TIP3   OH237548   3.694   5.848  14.600 -0.0507  0.1793  0.1412
 5378TIP3    H137549   3.740   5.768  14.627 -0.0049 -0.5959 -2.1029
 5378TIP3    H237550   3.730   5.867  14.513 -1.8245  1.2592 -0.3734
 5379TIP3   OH237551   3.404   1.629  12.520 -0.2229  0.2253  0.0147
 5379TIP3    H137552   3.321   1.618  12.566  0.3849  3.3093  2.0528
 5379TIP3    H237553   3.413   1.550  12.468 -3.0958 -1.4403  1.8554
 5380TIP3   OH237554   4.781   4.186  12.809  0.1019 -0.2985  0.0029
 5380TIP3    H137555   4.724   4.117  12.843 -2.2831 -0.6986 -4.4899
 5380TIP3    H237556   4.866   4.144  12.797  0.0053 -1.0787  1.8581
 5381TIP3   OH237557   5.978   3.492  14.857 -0.6435  0.4190 -0.0632
 5381TIP3    H137558   6.019   3.444  14.929 -1.0820 -1.3773 -0.9832
 5381TIP3    H237559   6.008   3.583  14.869 -0.1641  0.0257  1.9641
 5382TIP3   OH237560   5.556   3.504   4.517  0.9758 -0.3095 -0.1668
 5382TIP3    H137561   5.589   3.568   4.454  1.9958  0.6728  1.3625
 5382TIP3    H237562   5.622   3.435   4.518  1.8457  0.5258  1.1324
 5383TIP3   OH237563   1.905   4.649   4.393 -0.0590  0.6735 -0.6621
 5383TIP3    H137564   1.950   4.588   4.334 -1.2360 -1.4161  0.5532
 5383TIP3    H237565   1.851   4.703   4.335  0.3902  0.0473 -1.6670
 5384TIP3   OH237566   1.034   0.294  11.026  0.6506 -0.2381  0.2574
 5384TIP3    H137567   1.048   0.278  10.933 -0.6518 -0.7224  0.1468
 5384TIP3    H237568   1.087   0.372  11.044  0.4617  0.2035 -1.0146
 5385TIP3   OH237569   5.584   5.563  15.302  0.1843 -0.5131 -0.0112
 5385TIP3    H137570   5.652   5.508  15.262  0.0218 -0.8366  0.1569
 5385TIP3    H237571   5.531   5.502  15.353  0.2074 -0.1483  0.4517
 5386TIP3   OH237572   0.883   5.848   0.311  0.0264 -0.2306 -0.9974
 5386TIP3    H137573   0.930   5.892   0.241  1.6945 -0.7572 -0.2456
 5386TIP3    H237574   0.898   5.755   0.295 -1.1967 -0.4278 -1.0329
 5387TIP3   OH237575   1.393   5.079  14.877  0.1999 -0.6046  0.5823
 5387TIP3    H137576   1.378   5.086  14.782  1.6249 -1.6932  0.2571
 5387TIP3    H237577   1.473   5.129  14.892  1.5285 -2.7408  0.7592
 5388TIP3   OH237578   3.538   4.787   0.273  0.1325 -0.6303 -0.4999
 5388TIP3    H137579   3.468   4.834   0.227  1.0813 -0.1423 -1.4598
 5388TIP3    H237580   3.556   4.711   0.219 -0.5666 -1.4748  0.4380
 5389TIP3   OH237581   0.267   0.328  14.678 -0.4346 -0.3846  0.2576
 5389TIP3    H137582   0.347   0.351  14.631 -1.3535  0.0279 -1.1270
 5389TIP3    H237583   0.251   0.236  14.655 -0.9934 -0.1243 -0.3864
 5390TIP3   OH237584   5.918   2.581  14.209  0.3175  0.8716 -0.0949
 5390TIP3    H137585   5.847   2.575  14.145  0.6267  1.4731 -0.5012
 5390TIP3    H237586   5.982   2.640  14.169  1.7833 -0.8800 -0.4244
 5391TIP3   OH237587   4.073   0.281   4.918  0.6863 -0.4459 -0.1848
 5391TIP3    H137588   4.077   0.376   4.922  1.8053 -0.4540 -1.0394
 5391TIP3    H237589   4.048   0.254   5.007 -2.6854  0.7839 -0.6819
 5392TIP3   OH237590   0.762   2.973   2.205 -0.0333  0.1898 -0.4116
 5392TIP3    H137591   0.796   3.061   2.220 -0.7959  0.5484 -0.7627
 5392TIP3    H237592   0.812   2.941   2.130  2.2805 -0.7920  1.4703
 5393TIP3   OH237593   2.522   0.868   4.267 -0.4510  0.2772  0.4837
 5393TIP3    H137594   2.428   0.861   4.251  0.1663 -1.1481 -2.8454
 5393TIP3    H237595   2.556   0.780   4.251  1.8479  1.4369 -1.2746
 5394TIP3   OH237596   3.298   0.168  11.567 -0.3474 -0.0827  0.2080
 5394TIP3    H137597   3.260   0.231  11.506  0.1860  0.9068  0.8807
 5394TIP3    H237598   3.347   0.221  11.630 -0.8818 -1.0837  1.4954
 5395TIP3   OH237599   4.074   3.074  14.051 -0.2740 -0.0459  0.2554
 5395TIP3    H137600   4.145   3.011  14.059 -0.1749 -0.0995 -1.0087
 5395TIP3    H237601   4.105   3.152  14.098  0.4503 -0.2086  0.0408
 5396TIP3   OH237602   6.316   1.185  14.002  0.3125  0.5890 -0.1619
 5396TIP3    H137603   6.344   1.098  13.972 -0.7013  0.4579 -0.7316
 5396TIP3    H237604   6.395   1.239  13.994  0.8048 -0.1455 -0.3312
 5397TIP3   OH237605   4.146   5.560   2.985 -0.2892 -0.0714  0.1313
 5397TIP3    H137606   4.084   5.487   2.975 -2.7884  2.2975 -2.6781
 5397TIP3    H237607   4.094   5.631   3.022  1.4652  1.1212  0.3424
 5398TIP3   OH237608   3.849   1.020  15.897 -0.3360  0.3338  0.6805
 5398TIP3    H137609   3.895   1.104  15.904  0.3154  0.0459 -0.0463
 5398TIP3    H237610   3.870   0.973  15.977 -0.5116  0.7709  0.9814
 5399TIP3   OH237611   1.267   3.954   2.550  0.3890  0.0930 -0.0839
 5399TIP3    H137612   1.207   3.891   2.510 -1.4219  0.9791  1.1759
 5399TIP3    H237613   1.271   3.929   2.642  1.2037  0.6451  0.0415
 5400TIP3   OH237614   4.291   2.575  12.067  0.4567  0.2010 -0.2658
 5400TIP3    H137615   4.237   2.639  12.113  0.7439 -0.6602  1.3148
 5400TIP3    H237616   4.370   2.623  12.043 -0.1756  0.9562 -0.8805
 5401TIP3   OH237617   3.733   1.251   4.645 -0.1179 -0.1201  0.6818
 5401TIP3    H137618   3.782   1.330   4.666 -1.4402  0.9908 -0.3395
 5401TIP3    H237619   3.720   1.207   4.729  0.7859  0.6494  1.2250
 5402TIP3   OH237620   4.474   5.025   0.608 -0.2923  0.1061  0.1696
 5402TIP3    H137621   4.392   5.042   0.655 -1.2832 -1.0061 -1.1032
 5402TIP3    H237622   4.480   5.096   0.544 -1.0639 -0.6566 -0.7627
 5403TIP3   OH237623   2.222   1.498  10.753  0.0925  0.6013  0.1295
 5403TIP3    H137624   2.247   1.463  10.838  0.1073  1.3575  0.4389
 5403TIP3    H237625   2.282   1.571  10.738 -0.2650  0.8164 -0.2818
 5404TIP3   OH237626   5.779   3.122  15.653 -0.2936  0.1180 -1.0849
 5404TIP3    H137627   5.758   3.038  15.611  1.2461 -1.0805  0.4845
 5404TIP3    H237628   5.732   3.120  15.736  0.9171  0.1416 -0.3811
 5405TIP3   OH237629   5.072   3.682  13.565 -0.3276  0.0571  0.5313
 5405TIP3    H137630   5.138   3.615  13.581 -0.4484 -0.0626  0.5276
 5405TIP3    H237631   5.075   3.697  13.470  0.0876  0.4582  0.6096
 5406TIP3   OH237632   6.143   1.263  16.348  0.5747  0.2479  0.4028
 5406TIP3    H137633   6.196   1.183  16.340  1.3382  0.9302 -1.6816
 5406TIP3    H237634   6.207   1.334  16.354 -0.1007  0.8696  0.3828
 5407TIP3   OH237635   0.399   3.433  12.285  0.8330  0.3636  0.0061
 5407TIP3    H137636   0.357   3.492  12.348  0.1158  0.5128 -0.6130
 5407TIP3    H237637   0.330   3.410  12.223  0.9427 -1.6010  0.5690
 5408TIP3   OH237638   0.122   4.301   4.585  0.3601 -0.1101 -0.2294
 5408TIP3    H137639   0.068   4.339   4.516  1.5250 -1.5306 -1.9735
 5408TIP3    H237640   0.209   4.291   4.545  1.3551  0.1122  1.8187
 5409TIP3   OH237641   0.690   2.951   1.160  0.1031  0.5283 -0.2477
 5409TIP3    H137642   0.602   2.985   1.175 -0.0443  0.8739 -1.7953
 5409TIP3    H237643   0.685   2.909   1.074  1.6631  1.3120 -0.7311
 5410TIP3   OH237644   0.115   6.173   6.620  0.1485  0.1055  0.0093
 5410TIP3    H137645   0.175   6.132   6.558  1.4767 -0.5504  1.6759
 5410TIP3    H237646   0.027   6.149   6.590  0.8746 -3.4915  0.5927
 5411TIP3   OH237647   3.141   6.164   0.097  0.3370  0.1578  1.0518
 5411TIP3    H137648   3.092   6.115   0.032 -0.9874  1.0192  1.3978
 5411TIP3    H237649   3.228   6.177   0.058  0.2941 -1.3535  0.4456
 5412TIP3   OH237650   1.679   3.364  16.282  0.3131  0.4086 -0.4646
 5412TIP3    H137651   1.651   3.324  16.199 -0.2318  0.6343 -0.3934
 5412TIP3    H237652   1.724   3.444  16.256  1.7338 -0.4263 -0.6220
 5413TIP3   OH237653   0.673   1.453   4.843  0.3423  0.6872 -1.0605
 5413TIP3    H137654   0.617   1.526   4.872  0.4629 -0.0004  0.9821
 5413TIP3    H237655   0.700   1.478   4.755 -1.5371  2.0021 -1.3012
 5414TIP3   OH237656   5.552   2.593   0.382  0.0454  0.4488 -0.3232
 5414TIP3    H137657   5.585   2.536   0.452 -1.1646 -0.3479 -0.3881
 5414TIP3    H237658   5.515   2.668   0.429 -2.9709 -1.2107  0.0787
 5415TIP3   OH237659   1.471   5.926   0.743 -0.2855 -0.8119  0.4227
 5415TIP3    H137660   1.454   5.881   0.660 -1.6639 -1.4459  1.0247
 5415TIP3    H237661   1.561   5.902   0.766  0.2748 -0.2565 -1.1052
 5416TIP3   OH237662   2.975   3.665  11.353 -0.7136 -0.5167  0.1891
 5416TIP3    H137663   3.067   3.638  11.349 -0.3592  0.5565  0.8222
 5416TIP3    H237664   2.929   3.599  11.302  0.0146 -2.7757  2.3519
 5417TIP3   OH237665   6.559   5.305  15.811 -0.4978 -0.2654  0.0421
 5417TIP3    H137666   6.482   5.248  15.817 -0.2925 -0.3869  1.6938
 5417TIP3    H237667   6.527   5.384  15.768 -1.4604 -0.4752  0.3610
 5418TIP3   OH237668   3.846   0.047   5.086 -0.4147 -0.2569 -0.4518
 5418TIP3    H137669   3.892   0.125   5.116 -0.9587 -0.8170  1.9941
 5418TIP3    H237670   3.912  -0.021   5.085 -0.5566 -0.4084  0.2422
 5419TIP3   OH237671   5.089   4.505   2.524 -0.4381 -0.1630  0.1986
 5419TIP3    H137672   5.033   4.543   2.592 -0.7793 -0.5670  0.1465
 5419TIP3    H237673   5.153   4.454   2.572 -1.0480 -0.9420  0.2006
 5420TIP3   OH237674   1.100   4.106  14.076  0.0347  0.2076 -0.2335
 5420TIP3    H137675   1.139   4.087  14.161  1.3499  0.6354 -0.7189
 5420TIP3    H237676   1.085   4.019  14.037  2.4116  0.0340 -0.8537
 5421TIP3   OH237677   1.107   4.851  17.106  0.2171 -0.0496 -0.3759
 5421TIP3    H137678   1.082   4.943  17.120  0.7750  0.0644 -0.1179
 5421TIP3    H237679   1.167   4.831  17.177  1.9399  0.0924 -1.7570
 5422TIP3   OH237680   1.723   6.069  15.501  0.3130  0.3667  0.5556
 5422TIP3    H137681   1.749   6.055  15.592  0.0936  1.2756  0.7661
 5422TIP3    H237682   1.636   6.030  15.494  1.6843 -2.6803 -0.1426
 5423TIP3   OH237683   6.521   5.823   2.596  0.0950 -0.1655  0.7130
 5423TIP3    H137684   6.508   5.820   2.501  0.0446  1.1659  0.6618
 5423TIP3    H237685   6.506   5.733   2.625 -0.2208 -0.5206 -0.4986
 5424TIP3   OH237686   0.477   0.492   4.847  0.6143  0.3860  0.3651
 5424TIP3    H137687   0.548   0.435   4.876  0.9432  0.5048 -0.1961
 5424TIP3    H237688   0.505   0.580   4.870  0.8347  0.4712 -0.2270
 5425TIP3   OH237689   3.178   6.315  13.150  0.0584  0.6660  0.5444
 5425TIP3    H137690   3.243   6.357  13.206 -0.2407  1.6944  0.1262
 5425TIP3    H237691   3.136   6.250  13.206  1.7367 -0.3295  0.7157
 5426TIP3   OH237692   2.354   1.012   1.171  0.1108 -0.0247  0.1683
 5426TIP3    H137693   2.427   0.959   1.203  0.7844 -0.4177 -1.9375
 5426TIP3    H237694   2.276   0.959   1.188  0.6138 -0.9210 -0.3038
 5427TIP3   OH237695   2.018   0.369  13.014 -0.1566 -0.6344  0.4223
 5427TIP3    H137696   2.102   0.364  12.968 -0.2419  0.1656  0.1745
 5427TIP3    H237697   1.969   0.436  12.967 -0.2040  0.2841  1.7531
 5428TIP3   OH237698   1.006   3.623  12.322 -0.2698  0.0946 -0.4042
 5428TIP3    H137699   0.962   3.540  12.305  0.7356 -0.1406 -1.9187
 5428TIP3    H237700   1.094   3.599  12.349 -0.6213  0.6121  1.2177
 5429TIP3   OH237701   2.494   0.630  11.968 -0.0328 -0.0312  0.2732
 5429TIP3    H137702   2.581   0.625  11.927  0.4582  0.1948  1.2693
 5429TIP3    H237703   2.440   0.676  11.904  0.3534 -0.9609 -0.7309
 5430TIP3   OH237704   5.154   2.426   1.032 -0.1666  0.2456  0.5076
 5430TIP3    H137705   5.210   2.499   1.060  0.3645  1.2614 -2.8784
 5430TIP3    H237706   5.216   2.358   1.004 -0.5991  0.4193 -0.9327
 5431TIP3   OH237707   1.283   4.747  14.759  0.7785 -0.6846  0.1720
 5431TIP3    H137708   1.242   4.812  14.702 -0.4752 -0.9551  0.7502
 5431TIP3    H237709   1.265   4.778  14.848  2.8803 -0.1604  0.4630
 5432TIP3   OH237710   0.250   3.342   0.466 -0.3099  0.4081  0.4411
 5432TIP3    H137711   0.300   3.423   0.471  1.7771 -0.8087  0.2893
 5432TIP3    H237712   0.284   3.288   0.537 -0.2109 -1.0697 -0.6823
 5433TIP3   OH237713   5.341   3.580  15.276  0.1987 -0.3901 -0.8141
 5433TIP3    H137714   5.390   3.612  15.352 -1.7870 -1.7773  1.0965
 5433TIP3    H237715   5.403   3.526  15.228  1.0162 -0.7877  0.6715
 5434TIP3   OH237716   4.480   3.857   6.305  0.2027  0.0041  0.2020
 5434TIP3    H137717   4.497   3.795   6.376  0.8398  0.2165  0.2373
 5434TIP3    H237718   4.404   3.821   6.260 -1.0687  0.5839  1.8183
 5435TIP3   OH237719   5.220   4.777  12.407 -0.3913  0.2196  0.7103
 5435TIP3    H137720   5.278   4.813  12.474 -1.2312  0.1455  1.4838
 5435TIP3    H237721   5.140   4.828  12.415 -1.3194 -1.3052  1.3108
 5436TIP3   OH237722   4.717   5.457  12.274  0.3956  0.0016 -0.1956
 5436TIP3    H137723   4.634   5.451  12.322 -0.8332  0.8129 -2.1666
 5436TIP3    H237724   4.706   5.397  12.200  1.5287  0.2171 -0.5406
 5437TIP3   OH237725   2.579   2.661   3.471  0.4759 -0.6429 -0.3501
 5437TIP3    H137726   2.565   2.605   3.548  1.1944  1.0630  1.0404
 5437TIP3    H237727   2.529   2.741   3.489  1.7508  0.3330 -1.0454
 5438TIP3   OH237728   5.778   6.346   0.882  0.3719 -0.1641  0.2800
 5438TIP3    H137729   5.864   6.374   0.914 -0.0423 -0.2881  1.5511
 5438TIP3    H237730   5.718   6.365   0.954 -0.6335 -0.3022 -0.5020
 5439TIP3   OH237731   3.122   6.135  11.465  0.5367  0.1741  0.0481
 5439TIP3    H137732   3.164   6.221  11.462  0.6347  0.1297  0.1247
 5439TIP3    H237733   3.185   6.076  11.424  0.5146  0.1204  0.0907
 5440TIP3   OH237734   2.329   6.203   4.350  0.2362 -0.2808  0.7367
 5440TIP3    H137735   2.296   6.270   4.410 -0.6397 -1.4749  1.5881
 5440TIP3    H237736   2.250   6.167   4.308  0.6170 -1.5284  1.0755
 5441TIP3   OH237737   2.357   5.229   2.999 -0.1926 -0.2402  0.2497
 5441TIP3    H137738   2.331   5.154   3.054 -2.0606  0.3274  0.1604
 5441TIP3    H237739   2.278   5.253   2.952  0.8762  0.6341 -1.1241
 5442TIP3   OH237740   4.274   5.068  13.893 -0.3067 -0.0855  0.4402
 5442TIP3    H137741   4.259   5.038  13.803  1.5367  0.0595  0.0766
 5442TIP3    H237742   4.259   4.990  13.947  1.9820 -1.0600 -0.2848
 5443TIP3   OH237743   2.795   0.482  13.319 -0.5277 -0.2481 -0.0426
 5443TIP3    H137744   2.855   0.409  13.303  0.5444  0.4683  0.6241
 5443TIP3    H237745   2.716   0.441  13.354  0.1362 -1.0691  0.5050
 5444TIP3   OH237746   2.908   5.617   5.028  0.1848 -0.0041 -0.2151
 5444TIP3    H137747   2.833   5.621   4.969 -0.8457  0.1783  1.0643
 5444TIP3    H237748   2.874   5.651   5.111  1.6316 -0.1254  0.4351
 5445TIP3   OH237749   2.866   3.515   3.324  0.5783  0.5347  0.1038
 5445TIP3    H137750   2.903   3.427   3.318  0.4154  0.3889  1.1687
 5445TIP3    H237751   2.941   3.573   3.335  0.6219  0.4456  0.2671
 5446TIP3   OH237752   1.063   3.732   5.829  0.5062 -0.0710  0.5267
 5446TIP3    H137753   1.108   3.727   5.913 -0.6918 -0.5003  1.1555
 5446TIP3    H237754   1.118   3.790   5.776  0.1799  1.9579  2.3131
 5447TIP3   OH237755   0.394   1.254  11.066  0.0947 -0.0920 -0.0150
 5447TIP3    H137756   0.415   1.184  11.128 -0.4128 -1.0521 -0.9112
 5447TIP3    H237757   0.313   1.225  11.024  0.6282  0.3701 -1.3813
 5448TIP3   OH237758   2.146   1.354  14.675 -0.3896  0.4988 -0.9512
 5448TIP3    H137759   2.085   1.427  14.687 -0.7790  0.0507 -0.2015
 5448TIP3    H237760   2.223   1.378  14.726  0.1588  1.1714 -2.0841
 5449TIP3   OH237761   6.369   4.794  13.154  0.5545  0.1980  0.3434
 5449TIP3    H137762   6.306   4.789  13.082  0.1291  2.1977  0.5588
 5449TIP3    H237763   6.329   4.745  13.225 -1.4721  2.6930  0.9773
 5450TIP3   OH237764   2.266   3.776  13.659 -0.2081  0.7754 -0.1044
 5450TIP3    H137765   2.350   3.736  13.637 -0.1625  0.5987  0.3779
 5450TIP3    H237766   2.262   3.771  13.754 -1.1590 -0.0087 -0.1863
 5451TIP3   OH237767   5.543   6.394  15.286 -0.1936  0.1638  0.0263
 5451TIP3    H137768   5.538   6.325  15.220  1.6449  1.9482 -2.0962
 5451TIP3    H237769   5.455   6.430  15.291 -0.8774 -1.5056  0.2539
 5452TIP3   OH237770   4.537   4.395  17.016 -0.1913 -0.1498  0.3002
 5452TIP3    H137771   4.612   4.357  17.061 -1.0709 -2.1148  0.1738
 5452TIP3    H237772   4.568   4.480  16.984  1.1110  0.3444  2.6890
 5453TIP3   OH237773   5.943   4.351  15.908  0.1916 -0.4682  0.3187
 5453TIP3    H137774   5.863   4.374  15.860 -1.0386 -0.7260  2.2265
 5453TIP3    H237775   5.984   4.435  15.928  0.3303 -0.3293 -0.4912
 5454TIP3   OH237776   4.565   3.263   5.755  0.0120  0.5730 -0.5728
 5454TIP3    H137777   4.507   3.187   5.761 -0.6630  0.9718 -1.8264
 5454TIP3    H237778   4.506   3.339   5.756  0.4399  0.9670 -2.3656
 5455TIP3   OH237779   5.351   1.836   0.697  0.1783  0.8845 -0.2390
 5455TIP3    H137780   5.441   1.811   0.679 -0.2891 -3.7031  2.8319
 5455TIP3    H237781   5.299   1.791   0.630 -0.0149  0.6218  0.0783
 5456TIP3   OH237782   6.012   2.673  14.974  0.2392  0.1003  0.4534
 5456TIP3    H137783   6.068   2.734  15.022  0.9898 -0.7215  0.6358
 5456TIP3    H237784   6.070   2.636  14.908 -0.7838  1.2296 -1.1168
 5457TIP3   OH237785   3.063   1.447  13.913 -0.6924  0.0198  0.2566
 5457TIP3    H137786   3.128   1.381  13.938 -1.4261  0.4131  3.4133
 5457TIP3    H237787   3.099   1.529  13.947 -1.1833  0.8054 -1.0796
 5458TIP3   OH237788   6.494   0.114  11.241  0.2843  0.1623  0.1217
 5458TIP3    H137789   6.426   0.171  11.278  0.3339 -0.1752  0.7376
 5458TIP3    H237790   6.479   0.029  11.281  2.0809  0.4726  1.5337
 5459TIP3   OH237791   0.311   1.676  10.951  0.0782  0.3202 -0.4182
 5459TIP3    H137792   0.301   1.592  10.995 -0.1563 -0.1694 -1.3799
 5459TIP3    H237793   0.397   1.708  10.979 -0.8178  0.8950  1.8046
 5460TIP3   OH237794   6.654   1.135  10.839 -0.5043  0.3683  0.0798
 5460TIP3    H137795   6.658   1.201  10.908 -0.1663  0.5095 -0.0780
 5460TIP3    H237796   6.719   1.069  10.865  1.3932  1.6421 -1.3955
 5461TIP3   OH237797   5.247   6.456   1.159  0.0730 -0.0203 -0.4217
 5461TIP3    H137798   5.194   6.534   1.151  0.2996  0.1253 -0.5111
 5461TIP3    H237799   5.186   6.383   1.144 -0.1896  0.1272 -0.0727
 5462TIP3   OH237800   1.650   4.425  11.602  0.5991  0.1131 -0.2625
 5462TIP3    H137801   1.664   4.436  11.696 -0.4429 -2.2211  0.1910
 5462TIP3    H237802   1.699   4.346  11.580 -0.2488 -0.0978 -1.4245
 5463TIP3   OH237803   2.355   4.771  15.801 -0.8290 -0.1077 -0.2132
 5463TIP3    H137804   2.349   4.676  15.795  1.8112 -0.3642  0.4046
 5463TIP3    H237805   2.366   4.800  15.711  1.5414 -0.6881 -0.1359
 5464TIP3   OH237806   3.310   2.998   1.608 -0.0185  0.4993 -0.2554
 5464TIP3    H137807   3.306   3.067   1.542  0.7030  0.2459 -0.5693
 5464TIP3    H237808   3.232   2.945   1.591 -1.0895  1.7592  0.5837
 5465TIP3   OH237809   3.814   2.027  13.814 -0.5915  0.1274 -0.1976
 5465TIP3    H137810   3.826   1.941  13.853 -1.4109  0.0867 -0.0268
 5465TIP3    H237811   3.719   2.038  13.807 -0.5179  1.2994  0.4257
 5466TIP3   OH237812   5.149   2.457  11.231  0.6685 -0.0647  0.1873
 5466TIP3    H137813   5.116   2.386  11.176  1.3320 -1.4387  1.5246
 5466TIP3    H237814   5.071   2.490  11.276  0.5852 -1.0632  0.8006
 5467TIP3   OH237815   4.610   1.976   1.098 -0.2539 -0.1952  0.4136
 5467TIP3    H137816   4.545   2.022   1.046  0.0520 -0.8873 -0.5946
 5467TIP3    H237817   4.603   1.885   1.071  0.4862 -0.4273  0.9743
 5468TIP3   OH237818   4.278   0.344  14.997  0.0498 -0.3146  0.0629
 5468TIP3    H137819   4.257   0.252  14.982  0.6496 -0.7889  2.0048
 5468TIP3    H237820   4.348   0.363  14.935  1.1238 -1.6552  0.8391
 5469TIP3   OH237821   6.637   0.616  13.455 -0.5145 -0.1173 -0.0341
 5469TIP3    H137822   6.727   0.585  13.452 -0.9825 -1.7130  1.6777
 5469TIP3    H237823   6.631   0.679  13.383  0.9554 -2.6758 -2.4744
 5470TIP3   OH237824   0.537   1.505   0.402 -0.0964 -0.1233 -0.7427
 5470TIP3    H137825   0.593   1.452   0.458  1.0109 -0.1242 -1.8125
 5470TIP3    H237826   0.462   1.450   0.382 -0.4874 -0.1278  0.6995
 5471TIP3   OH237827   2.974   4.261   4.669 -0.6809  0.1768  0.2439
 5471TIP3    H137828   3.053   4.238   4.620  1.6332 -0.9216  4.2310
 5471TIP3    H237829   2.976   4.357   4.673  0.0700  0.1921 -0.2527
 5472TIP3   OH237830   4.790   1.746  12.530 -0.1146  0.5610 -0.2983
 5472TIP3    H137831   4.747   1.665  12.559 -1.1596  0.7233 -1.3623
 5472TIP3    H237832   4.881   1.721  12.515 -0.2878 -0.2690 -0.0022
 5473TIP3   OH237833   6.500   1.604  12.329  0.3177  0.7206 -0.2249
 5473TIP3    H137834   6.563   1.669  12.299 -0.0990  0.6008 -1.4106
 5473TIP3    H237835   6.523   1.525  12.280 -0.3636  0.5178 -0.2214
 5474TIP3   OH237836   5.910   6.474   4.962 -0.2748  0.2017  0.3454
 5474TIP3    H137837   5.980   6.417   4.994  0.9150  0.8559 -1.0520
 5474TIP3    H237838   5.835   6.416   4.951  0.8577 -1.0681 -0.8558
 5475TIP3   OH237839   1.336   4.929   0.400  0.2296 -0.2614  0.3246
 5475TIP3    H137840   1.384   4.925   0.317 -1.0111  0.8532 -0.4721
 5475TIP3    H237841   1.390   4.986   0.456  1.2806 -1.3498  0.4376
 5476TIP3   OH237842   0.127   6.577  14.434  0.4665 -0.3035  0.4981
 5476TIP3    H137843   0.108   6.483  14.425  0.7138 -0.1844 -1.6454
 5476TIP3    H237844   0.057   6.611  14.489 -2.0780 -1.0084 -2.1991
 5477TIP3   OH237845   0.867   0.783   1.022  0.4972 -0.0977  0.2763
 5477TIP3    H137846   0.888   0.803   1.113 -1.8040  0.5571  0.7128
 5477TIP3    H237847   0.883   0.689   1.014 -2.0688 -0.7722  2.2387
 5478TIP3   OH237848   6.208   1.408   5.202  0.1573  0.2515  1.1146
 5478TIP3    H137849   6.138   1.473   5.201 -1.1651 -1.1242  1.7862
 5478TIP3    H237850   6.163   1.324   5.189  1.9357 -0.4463 -1.0865
 5479TIP3   OH237851   2.894   2.022   3.059  0.0968  0.1201  0.5715
 5479TIP3    H137852   2.834   2.048   3.128  1.1999 -2.9655  2.7936
 5479TIP3    H237853   2.963   2.089   3.060 -0.9016  1.1574  1.0756
 5480TIP3   OH237854   5.731   0.172  12.592  0.4623 -0.2495  0.8724
 5480TIP3    H137855   5.657   0.132  12.637  0.1950  0.6995  1.2921
 5480TIP3    H237856   5.698   0.257  12.563  1.2941  0.0463  0.7799
 5481TIP3   OH237857   0.344   1.637   5.150 -0.0601 -0.3157 -0.5590
 5481TIP3    H137858   0.257   1.624   5.112 -0.8233  0.7203  0.8042
 5481TIP3    H237859   0.337   1.718   5.200  1.8621  0.0998 -0.9067
 5482TIP3   OH237860   5.326   1.346   0.954  0.7162  0.2365 -0.3907
 5482TIP3    H137861   5.367   1.374   0.872 -0.7448  1.0486 -0.8642
 5482TIP3    H237862   5.275   1.422   0.982 -1.1281 -1.0193 -0.2633
 5483TIP3   OH237863   3.921   3.087  15.237  0.1070 -0.1389 -0.1364
 5483TIP3    H137864   3.906   3.080  15.331  0.0981 -0.8422 -0.1859
 5483TIP3    H237865   3.875   3.011  15.200  0.0591  0.1671 -0.7101
 5484TIP3   OH237866   2.133   4.891   2.910  0.4783  0.5756  0.0452
 5484TIP3    H137867   2.118   4.966   2.853 -2.8176  0.3239  0.4322
 5484TIP3    H237868   2.082   4.911   2.989  2.1395 -0.6421  1.4660
 5485TIP3   OH237869   2.677   6.459  15.258 -0.2126 -0.4641  0.3297
 5485TIP3    H137870   2.597   6.510  15.264 -0.1717 -0.4390  0.6384
 5485TIP3    H237871   2.684   6.414  15.342 -1.1948 -2.3812 -0.5858
 5486TIP3   OH237872   0.134   3.705   3.254  0.4378  0.3328  0.0796
 5486TIP3    H137873   0.091   3.656   3.184 -0.2527  0.7816  0.1790
 5486TIP3    H237874   0.222   3.724   3.221  0.2451  0.1970 -0.5039
 5487TIP3   OH237875   0.292   4.814  11.502  0.1895 -0.3856 -1.0505
 5487TIP3    H137876   0.218   4.870  11.479 -0.3710 -1.1075 -0.9831
 5487TIP3    H237877   0.264   4.726  11.480  0.7048 -0.7602 -0.2278
 5488TIP3   OH237878   2.283   2.745   5.457  0.0148  0.1051  0.1275
 5488TIP3    H137879   2.240   2.732   5.541  0.4282 -1.0093  0.1685
 5488TIP3    H237880   2.243   2.825   5.422  1.1112  1.6110  2.1950
 5489TIP3   OH237881   6.294   0.673  12.765 -0.6172  0.2620 -0.2282
 5489TIP3    H137882   6.362   0.687  12.700  1.0245  0.6027  1.5313
 5489TIP3    H237883   6.218   0.721  12.731 -0.2905 -0.8438 -2.6250
 5490TIP3   OH237884   5.164   1.770  16.985  0.7456 -0.3904  0.0383
 5490TIP3    H137885   5.116   1.842  16.943  1.9539  1.2983  1.4740
 5490TIP3    H237886   5.129   1.767  17.074  2.7349  0.3634  0.8700
 5491TIP3   OH237887   6.356   1.661   3.721  0.0593 -0.0746 -0.1054
 5491TIP3    H137888   6.450   1.671   3.735  0.2630  0.1519 -1.5032
 5491TIP3    H237889   6.344   1.568   3.703  0.0492 -0.0732 -0.1060
 5492TIP3   OH237890   3.178   0.022  15.152  0.3844 -0.2741  0.0173
 5492TIP3    H137891   3.210   0.040  15.240 -0.0126 -2.2066  0.5915
 5492TIP3    H237892   3.098   0.074  15.144 -0.1036 -0.8180  1.1770
 5493TIP3   OH237893   2.119   6.275  17.176  0.2294 -0.1657 -0.3724
 5493TIP3    H137894   2.140   6.253  17.267  0.3233 -0.4545 -0.4635
 5493TIP3    H237895   2.199   6.254  17.127  1.0065  2.1856 -0.1873
 5494TIP3   OH237896   5.674   6.347   4.886 -0.2106  0.3703 -0.0289
 5494TIP3    H137897   5.670   6.375   4.794  2.0876 -0.4118 -0.4003
 5494TIP3    H237898   5.583   6.348   4.915 -1.0591 -0.1232 -2.5474
 5495TIP3   OH237899   0.782   2.086  15.273  0.1491  0.6212 -0.2946
 5495TIP3    H137900   0.766   2.152  15.341  1.1300 -0.0851  0.6569
 5495TIP3    H237901   0.867   2.111  15.236  1.5854 -1.3177  1.5722
 5496TIP3   OH237902   1.190   2.118   4.893 -1.0786 -0.4603  0.1811
 5496TIP3    H137903   1.258   2.050   4.892 -0.3411  0.2387  0.9814
 5496TIP3    H237904   1.135   2.099   4.817  0.5849 -0.4780 -1.0455
 5497TIP3   OH237905   4.697   2.716   6.139 -0.1059  0.3716 -0.3444
 5497TIP3    H137906   4.731   2.628   6.124 -1.0295  0.3098 -2.2096
 5497TIP3    H237907   4.630   2.705   6.206 -0.7359 -0.4723 -1.1062
 5498TIP3   OH237908   0.206   3.268   2.719 -0.1837  0.0910 -0.8722
 5498TIP3    H137909   0.155   3.349   2.718 -1.7012 -0.8515 -1.6684
 5498TIP3    H237910   0.151   3.204   2.764  1.2139 -0.3870  0.2084
 5499TIP3   OH237911   1.237   1.786  11.224 -0.2905  0.1588 -0.8198
 5499TIP3    H137912   1.241   1.701  11.181 -0.7246  0.2027 -0.9441
 5499TIP3    H237913   1.188   1.770  11.304  0.4287  0.0988 -0.3856
 5500TIP3   OH237914   0.531   3.175   2.320 -0.1470 -0.0772  0.0826
 5500TIP3    H137915   0.448   3.209   2.353  0.4187  0.1650  1.2896
 5500TIP3    H237916   0.527   3.081   2.334  0.0683  0.0188  0.8036
 5501TIP3   OH237917   5.951   3.728   0.990  0.7944 -0.0778  0.4282
 5501TIP3    H137918   5.997   3.709   0.909 -0.0491 -1.3055  0.2290
 5501TIP3    H237919   6.017   3.770   1.046  2.3645 -2.4374  0.4279
 5502TIP3   OH237920   5.985   1.670  17.075  0.2876  0.1214 -0.6647
 5502TIP3    H137921   5.980   1.594  17.132 -0.3616 -0.7256 -1.8312
 5502TIP3    H237922   5.895   1.683  17.044  0.2535  1.7779  0.0436
 5503TIP3   OH237923   2.567   3.065   4.820 -0.3598  0.4983 -0.1005
 5503TIP3    H137924   2.513   2.987   4.831  1.6985 -0.6384  2.6853
 5503TIP3    H237925   2.510   3.137   4.847 -2.2676  0.0296 -2.6739
 5504TIP3   OH237926   2.075   2.517  15.354 -0.9368 -0.0585  0.2543
 5504TIP3    H137927   2.091   2.581  15.284 -1.5181 -0.6658 -0.4452
 5504TIP3    H237928   2.089   2.432  15.313 -1.8151 -0.4438  0.7195
 5505TIP3   OH237929   0.882   4.496  17.221 -0.6716 -0.1622 -0.1401
 5505TIP3    H137930   0.907   4.519  17.310 -0.8639  2.3407 -0.7007
 5505TIP3    H237931   0.942   4.424  17.197 -0.1040 -0.3173  1.6989
 5506TIP3   OH237932   6.422   5.533   3.697  0.0716 -0.4200 -0.4396
 5506TIP3    H137933   6.510   5.557   3.668  0.1132  1.0094  0.8203
 5506TIP3    H237934   6.392   5.609   3.748 -0.8677 -1.9083  1.2963
 5507TIP3   OH237935   1.854   2.619  12.957 -0.8715  0.0780  0.1759
 5507TIP3    H137936   1.811   2.565  13.024  0.7085 -1.1474  0.2580
 5507TIP3    H237937   1.864   2.560  12.882  0.1666  0.4829 -0.0193
 5508TIP3   OH237938   1.045   6.586   1.264 -0.3515 -0.3973  0.6418
 5508TIP3    H137939   0.958   6.619   1.243 -1.2140 -1.6738  2.1125
 5508TIP3    H237940   1.031   6.495   1.291  1.5719 -0.9782 -0.2116
 5509TIP3   OH237941   2.217   6.779   5.857 -0.3604  0.3540  0.0142
 5509TIP3    H137942   2.266   6.862   5.857 -0.2176  0.2701  0.0971
 5509TIP3    H237943   2.267   6.722   5.915  0.0740 -0.0993 -0.8032
 5510TIP3   OH237944   0.911   4.470  15.239 -0.0788  0.3644  0.1510
 5510TIP3    H137945   0.873   4.538  15.294  0.3959  0.6027  0.1868
 5510TIP3    H237946   0.958   4.518  15.171 -1.2789  0.0742 -0.8941
 5511TIP3   OH237947   1.621   0.041  14.056 -0.0714 -0.5943 -0.1587
 5511TIP3    H137948   1.707   0.065  14.022 -0.0272 -2.0785 -1.1046
 5511TIP3    H237949   1.623   0.068  14.148  2.1626 -2.5380  0.3954
 5512TIP3   OH237950   4.125   5.360   1.263 -0.2386  0.4464 -0.2549
 5512TIP3    H137951   4.033   5.374   1.243  0.0554  1.1792 -1.1523
 5512TIP3    H237952   4.128   5.274   1.304 -0.9523 -0.9837 -3.0520
 5513TIP3   OH237953   5.425   0.159   1.717 -0.1529 -0.3374  0.2480
 5513TIP3    H137954   5.337   0.164   1.753 -1.2763 -1.0847 -2.2467
 5513TIP3    H237955   5.412   0.161   1.622  2.6092  0.9628 -0.1660
 5514TIP3   OH237956   2.092   5.989  17.004 -0.3883 -0.3627  0.1624
 5514TIP3    H137957   2.188   5.991  16.998 -0.3108 -1.2368  1.0352
 5514TIP3    H237958   2.067   6.082  17.009  0.5544 -0.1683  1.8780
 5515TIP3   OH237959   3.285   4.664  14.763  0.4888 -0.5180 -0.7328
 5515TIP3    H137960   3.221   4.732  14.742  2.8534  1.1896 -2.7118
 5515TIP3    H237961   3.280   4.603  14.689 -0.2637 -1.4589  0.0923
 5516TIP3   OH237962   1.941   4.390   2.444 -0.0098  0.3943 -0.4648
 5516TIP3    H137963   1.938   4.328   2.517 -0.3032 -1.1128 -1.7481
 5516TIP3    H237964   2.033   4.393   2.419 -0.3449 -1.5038 -2.0526
 5517TIP3   OH237965   2.842   2.753  13.295 -0.3951  0.0389  0.4741
 5517TIP3    H137966   2.764   2.741  13.241 -0.0882 -0.7734  0.2062
 5517TIP3    H237967   2.859   2.666  13.332  2.1190 -0.4952 -1.8402
 5518TIP3   OH237968   3.160   2.283   1.560  0.3071  0.4072 -0.4235
 5518TIP3    H137969   3.246   2.324   1.567 -0.4097  2.0624 -1.0806
 5518TIP3    H237970   3.158   2.220   1.632  2.6172 -0.7141 -1.2903
 5519TIP3   OH237971   0.958   4.114   1.433 -0.2141  0.0296  0.0235
 5519TIP3    H137972   0.976   4.041   1.493  1.0053  2.2258  2.4725
 5519TIP3    H237973   1.016   4.184   1.464 -0.8430  1.8080 -2.6956
 5520TIP3   OH237974   5.641   2.695   4.537  0.0409  0.0694  0.3458
 5520TIP3    H137975   5.718   2.745   4.510 -0.7298  0.8508 -0.4624
 5520TIP3    H237976   5.672   2.636   4.605  1.6922 -0.7347 -1.0839
 5521TIP3   OH237977   4.268   2.879  13.770 -0.1952 -0.1225  0.2774
 5521TIP3    H137978   4.334   2.912  13.832 -0.0730 -2.1737  1.2929
 5521TIP3    H237979   4.319   2.839  13.700 -0.3481  0.8566 -0.3982
 5522TIP3   OH237980   1.318   3.831   5.734  0.5448  0.2460  0.2138
 5522TIP3    H137981   1.383   3.894   5.705 -0.2979  0.4887 -1.2048
 5522TIP3    H237982   1.355   3.745   5.712  0.8905  0.3341  0.4604
 5523TIP3   OH237983   5.425   3.101  13.447 -0.1187  0.5252  0.0019
 5523TIP3    H137984   5.479   3.029  13.414 -0.5402  0.5034 -0.6648
 5523TIP3    H237985   5.335   3.078  13.421 -0.4191  0.6779  0.8843
 5524TIP3   OH237986   0.784   1.734   2.118  0.0462 -0.1073 -0.3396
 5524TIP3    H137987   0.818   1.823   2.115  0.0417 -0.1466 -1.6047
 5524TIP3    H237988   0.697   1.740   2.079 -1.1604 -0.1479  2.2070
 5525TIP3   OH237989   5.795   5.742   4.370 -0.1257 -0.1151  0.2369
 5525TIP3    H137990   5.732   5.699   4.312  0.0510 -0.4824  0.3143
 5525TIP3    H237991   5.742   5.796   4.428 -0.2961  0.3788 -0.3692
 5526TIP3   OH237992   1.606   1.267   1.047  0.9460 -0.0731 -0.5809
 5526TIP3    H137993   1.621   1.359   1.024  0.8829  0.3684  1.0408
 5526TIP3    H237994   1.515   1.250   1.023  0.0620  1.1555  1.7516
 5527TIP3   OH237995   0.425   4.799   5.074  0.3999 -0.9069 -0.2851
 5527TIP3    H137996   0.473   4.869   5.030 -1.5434 -0.8806 -2.4036
 5527TIP3    H237997   0.489   4.760   5.133  2.0624  1.3541 -0.5278
 5528TIP3   OH237998   4.865   1.880   3.449  0.2080  0.7272 -0.1183
 5528TIP3    H137999   4.817   1.895   3.368 -0.5797  1.4782  0.4782
 5528TIP3    H238000   4.933   1.817   3.426 -0.5063  0.3452 -1.1761
 5529TIP3   OH238001   3.846   4.024  14.830 -0.1102  0.3397 -0.4636
 5529TIP3    H138002   3.807   4.000  14.914  0.2956 -1.5808 -0.8039
 5529TIP3    H238003   3.800   4.104  14.805 -1.3867  0.0286  0.8110
 5530TIP3   OH238004   6.445   3.643   0.504  0.0539  0.0785 -0.0018
 5530TIP3    H138005   6.519   3.587   0.528 -0.2798 -0.4652 -0.2401
 5530TIP3    H238006   6.372   3.583   0.490 -1.3610  0.7994  3.5288
 5531TIP3   OH238007   2.756   4.763   4.930 -0.4766  0.0066 -0.3575
 5531TIP3    H138008   2.734   4.671   4.917 -1.9409  0.3677 -0.4688
 5531TIP3    H238009   2.799   4.790   4.849  1.6656 -1.0555  0.3697
 5532TIP3   OH238010   2.328   0.879  14.425 -0.3878 -0.2960 -0.2092
 5532TIP3    H138011   2.386   0.851  14.355  0.6543  1.3971 -0.0782
 5532TIP3    H238012   2.385   0.885  14.502 -1.2361 -0.8888  0.4689
 5533TIP3   OH238013   1.197   0.634   3.109 -0.2297 -0.1148  0.5737
 5533TIP3    H138014   1.116   0.591   3.082 -0.6469  0.0096  1.6256
 5533TIP3    H238015   1.252   0.631   3.031 -2.2689  2.3145 -1.0171
 5534TIP3   OH238016   5.464   5.437   3.753  0.8987  0.1569 -0.4612
 5534TIP3    H138017   5.436   5.511   3.698  0.3635 -0.2147 -0.6802
 5534TIP3    H238018   5.420   5.451   3.836  0.4909 -0.1377 -0.6320
 5535TIP3   OH238019   2.866   2.643   3.568  0.6279  0.1843 -0.1880
 5535TIP3    H138020   2.882   2.725   3.614 -0.7136  0.0249  0.5991
 5535TIP3    H238021   2.778   2.652   3.531  0.3313 -1.0065  0.1842
 5536TIP3   OH238022   4.633   1.781  11.961  0.5282  0.0870 -1.2868
 5536TIP3    H138023   4.650   1.871  11.935 -0.4823  0.3076 -1.2276
 5536TIP3    H238024   4.704   1.759  12.021  0.7244  0.8802 -1.2247
 5537TIP3   OH238025   6.526   6.047   0.615  0.2944  0.5860  0.1340
 5537TIP3    H138026   6.527   5.953   0.633  0.7119  0.4097 -0.7475
 5537TIP3    H238027   6.613   6.078   0.640  0.5677  0.5056 -0.6773
 5538TIP3   OH238028   4.389   3.780   5.379  0.0330 -0.1553  0.5626
 5538TIP3    H138029   4.435   3.799   5.461  0.0430  2.6035 -0.0292
 5538TIP3    H238030   4.430   3.700   5.347  3.4285  1.3848  0.7960
 5539TIP3   OH238031   5.430   3.140   5.292 -0.0836  0.3277  0.5644
 5539TIP3    H138032   5.371   3.119   5.220  0.0805 -1.7844  1.0067
 5539TIP3    H238033   5.516   3.151   5.251  0.2007 -1.8534  0.5157
 5540TIP3   OH238034   2.191   0.643   0.989 -0.3530  0.5142  0.0959
 5540TIP3    H138035   2.262   0.665   1.049 -1.4353  0.1256  1.5413
 5540TIP3    H238036   2.119   0.615   1.046 -1.2474 -0.2940 -1.4002
 5541TIP3   OH238037   2.698   6.505   1.424  0.2758 -0.3775 -0.4347
 5541TIP3    H138038   2.737   6.418   1.414 -1.4218 -1.1280 -0.7496
 5541TIP3    H238039   2.629   6.492   1.489  0.6572  0.9601  0.2408
 5542TIP3   OH238040   3.082   5.059   4.523  0.4616  0.3761 -0.0874
 5542TIP3    H138041   3.147   5.015   4.578  1.0458  1.6237  0.2383
 5542TIP3    H238042   3.026   4.988   4.490  1.5027 -0.6181  0.2661
 5543TIP3   OH238043   2.955   2.533  11.898  0.3258 -0.0594  0.7694
 5543TIP3    H138044   2.997   2.611  11.936  1.3604  0.4326 -1.3416
 5543TIP3    H238045   3.026   2.470  11.887 -0.3614 -1.0059  1.6483
 5544TIP3   OH238046   6.585   1.515   4.032  0.2541  0.7045 -0.4988
 5544TIP3    H138047   6.549   1.428   4.050  2.1570 -0.0727 -0.3578
 5544TIP3    H238048   6.513   1.575   4.053 -1.4813 -0.8787 -1.7364
 5545TIP3   OH238049   0.006   4.217  16.153 -0.1923  0.0577 -0.1482
 5545TIP3    H138050  -0.087   4.194  16.160 -0.3396  0.1376 -1.5888
 5545TIP3    H238051   0.050   4.133  16.143  0.0595 -0.0873  1.9652
 5546TIP3   OH238052   3.664   5.051   5.939  0.2697  0.3005 -0.0713
 5546TIP3    H138053   3.637   5.041   5.848 -0.9237  1.6489  0.1105
 5546TIP3    H238054   3.717   4.974   5.957 -0.3551 -0.5059 -1.5969
 5547TIP3   OH238055   0.897   6.709  12.759 -0.1206 -0.1236 -0.3183
 5547TIP3    H138056   0.920   6.672  12.845  2.0337  0.2118 -0.7239
 5547TIP3    H238057   0.880   6.801  12.777  2.3180  0.4080 -0.5181
 5548TIP3   OH238058   0.131   4.828  13.197 -0.1066  0.2063 -0.0261
 5548TIP3    H138059   0.175   4.743  13.204  2.5788  1.6158  0.8949
 5548TIP3    H238060   0.037   4.807  13.201  0.4636 -2.8282 -1.4092
 5549TIP3   OH238061   6.686   0.369   5.707  0.1176 -0.4418  0.6056
 5549TIP3    H138062   6.746   0.306   5.747 -0.5583 -0.0702  2.2376
 5549TIP3    H238063   6.617   0.382   5.772 -0.1866  1.3581 -0.0294
 5550TIP3   OH238064   5.883   4.862  14.080 -0.2320 -0.1061  0.3237
 5550TIP3    H138065   5.942   4.877  14.006 -0.3006 -1.5138 -0.0301
 5550TIP3    H238066   5.913   4.923  14.148 -0.1626  1.1764 -0.8495
 5551TIP3   OH238067   3.853   2.439  13.843 -0.5354 -0.0527  0.4267
 5551TIP3    H138068   3.822   2.406  13.758 -0.9974  1.1026  0.1458
 5551TIP3    H238069   3.926   2.380  13.865 -0.6560 -0.6052 -0.5811
 5552TIP3   OH238070   4.442   3.425   1.981  0.0707  0.0079  0.0077
 5552TIP3    H138071   4.439   3.371   1.902  1.0844  0.6014 -0.4483
 5552TIP3    H238072   4.448   3.515   1.948  1.1719  0.2198  0.7468
 5553TIP3   OH238073   5.707   6.110   6.567 -0.3581 -0.0112  0.5066
 5553TIP3    H138074   5.729   6.202   6.552 -0.9680 -0.2515 -2.0601
 5553TIP3    H238075   5.791   6.064   6.567 -0.2946  0.0642 -1.8971
 5554TIP3   OH238076   0.371   6.260  11.445  0.2017  0.0907 -0.0165
 5554TIP3    H138077   0.452   6.255  11.395  0.8435 -0.0611  1.0299
 5554TIP3    H238078   0.320   6.328  11.401  1.0096  0.3907 -0.5012
 5555TIP3   OH238079   3.158   4.130   6.801 -0.0796  0.2517 -0.3944
 5555TIP3    H138080   3.151   4.107   6.708  0.1472 -1.4049 -0.0076
 5555TIP3    H238081   3.155   4.047   6.847 -2.9016  1.2189  1.2877
 5556TIP3   OH238082   3.360   5.765   0.645 -0.0563  0.7966 -0.1300
 5556TIP3    H138083   3.379   5.797   0.557  0.1836 -0.5314 -0.5690
 5556TIP3    H238084   3.326   5.676   0.631  1.2996  0.0581  1.2029
 5557TIP3   OH238085   3.243   0.189  14.944  0.3760 -0.4467 -0.1362
 5557TIP3    H138086   3.311   0.256  14.942 -0.5936  0.5552  0.4252
 5557TIP3    H238087   3.272   0.127  15.011  1.1685 -0.5019 -0.5162
 5558TIP3   OH238088   2.974   4.032  15.878 -0.6065  0.2344 -0.0502
 5558TIP3    H138089   2.929   4.037  15.963  2.9063 -0.4811  1.9537
 5558TIP3    H238090   2.967   3.940  15.853  2.3011 -0.5375  1.7923
 5559TIP3   OH238091   6.124   3.265   5.025  0.0114 -0.1283  0.0279
 5559TIP3    H138092   6.085   3.178   5.017 -1.3485  0.4527  0.2328
 5559TIP3    H238093   6.051   3.322   5.047  0.4896  1.4303 -2.2362
 5560TIP3   OH238094   5.749   0.751   0.194  0.5416 -0.1047 -0.0620
 5560TIP3    H138095   5.743   0.714   0.106 -3.9695  0.0683  0.0258
 5560TIP3    H238096   5.731   0.845   0.182 -0.5936 -0.1585  1.0267
 5561TIP3   OH238097   1.747   4.729   1.395 -0.4133 -0.1335  0.3636
 5561TIP3    H138098   1.683   4.738   1.466 -0.4156  0.5769  0.2768
 5561TIP3    H238099   1.767   4.636   1.392 -1.2372 -0.3196  0.5779
 5562TIP3   OH238100   4.073   3.862  14.394 -0.3767 -0.6452 -0.2160
 5562TIP3    H138101   4.157   3.898  14.368  0.6094 -2.4288  0.4046
 5562TIP3    H238102   4.093   3.774  14.425 -2.6237 -1.5423 -1.1755
 5563TIP3   OH238103   5.890   4.839  16.271 -0.1649 -0.4332  0.3412
 5563TIP3    H138104   5.955   4.909  16.281  0.5044 -1.2084  1.7780
 5563TIP3    H238105   5.825   4.857  16.339 -0.2136 -0.9675  0.4373
 5564TIP3   OH238106   1.230   2.880   6.566  0.0338 -0.4150  0.3958
 5564TIP3    H138107   1.310   2.920   6.532  0.5001 -1.7463 -0.1382
 5564TIP3    H238108   1.258   2.794   6.598 -1.1010 -0.7167  0.6047
 5565TIP3   OH238109   1.680   3.045   4.714 -0.4046  0.2773  0.3155
 5565TIP3    H138110   1.655   3.126   4.671  1.7123  0.8082  0.0521
 5565TIP3    H238111   1.649   2.975   4.656 -0.0773  0.9439 -0.6601
 5566TIP3   OH238112   4.130   0.383  13.157  0.4058 -0.0995 -0.2540
 5566TIP3    H138113   4.046   0.340  13.142  0.8123 -1.4538  1.3097
 5566TIP3    H238114   4.194   0.324  13.117  0.7737  0.0939  0.0515
 5567TIP3   OH238115   2.451   4.693  11.363  0.2938  0.0501 -0.2102
 5567TIP3    H138116   2.512   4.710  11.434  0.2597 -1.1864  0.1232
 5567TIP3    H238117   2.412   4.778  11.344  1.7028  0.7486 -0.0499
 5568TIP3   OH238118   6.570   5.343  16.644 -0.6087 -0.0584  0.0561
 5568TIP3    H138119   6.549   5.433  16.669 -0.8307  0.1409 -0.8397
 5568TIP3    H238120   6.510   5.323  16.572 -1.9172 -1.6104  1.5172
 5569TIP3   OH238121   0.288   1.633   0.139 -0.2972  0.0401 -0.5297
 5569TIP3    H138122   0.216   1.612   0.080 -0.2541 -0.8925 -0.2612
 5569TIP3    H238123   0.265   1.588   0.221 -0.3503  1.3000  0.1590
 5570TIP3   OH238124   5.461   5.112   5.450  0.3260 -0.1960  0.3856
 5570TIP3    H138125   5.555   5.119   5.468  0.0666 -0.6792  2.0169
 5570TIP3    H238126   5.426   5.198   5.474  0.4049  0.1194 -0.6126
 5571TIP3   OH238127   2.165   5.531   0.560  0.2693 -0.3878 -0.2819
 5571TIP3    H138128   2.145   5.495   0.647 -0.0124 -0.9529 -0.5819
 5571TIP3    H238129   2.162   5.626   0.573 -1.3540 -0.4542 -0.0379
 5572TIP3   OH238130   2.434   3.484   5.802 -0.5722  0.2678 -0.0003
 5572TIP3    H138131   2.384   3.536   5.865 -0.0698 -1.1319  1.5787
 5572TIP3    H238132   2.525   3.500   5.825 -0.4079 -0.9287  0.1748
 5573TIP3   OH238133   5.959   3.741   0.089  0.2212 -0.6899  0.3394
 5573TIP3    H138134   5.895   3.801   0.126 -0.1944 -0.9570  0.0579
 5573TIP3    H238135   6.003   3.792   0.020 -0.9436 -1.0639 -0.7044
 5574TIP3   OH238136   1.199   0.058  11.691  0.3928  0.2173 -0.0061
 5574TIP3    H138137   1.256   0.033  11.619 -0.1623 -0.1371 -0.3330
 5574TIP3    H238138   1.220   0.150  11.709  0.8822  0.1568 -0.2887
 5575TIP3   OH238139   2.924   6.446  16.277  0.0414 -0.3711  0.4182
 5575TIP3    H138140   2.855   6.418  16.337 -0.3462 -4.4088 -1.8038
 5575TIP3    H238141   2.900   6.537  16.255 -3.7177 -1.1704  0.8576
 5576TIP3   OH238142   1.385   6.354   1.754 -0.0095 -0.6024 -0.0638
 5576TIP3    H138143   1.420   6.314   1.675  0.2622 -0.2139 -0.1407
 5576TIP3    H238144   1.462   6.384   1.802 -0.0675 -2.4313  1.2155
 5577TIP3   OH238145   6.613   1.850   2.394  0.3376  0.1765 -0.5462
 5577TIP3    H138146   6.578   1.764   2.415  1.2361  0.0568  0.5264
 5577TIP3    H238147   6.538   1.909   2.403  0.2628 -0.1470  1.2246
 5578TIP3   OH238148   3.223   3.784  14.670  0.6936 -0.1133  0.1136
 5578TIP3    H138149   3.230   3.815  14.580  0.6654  1.2133  0.5556
 5578TIP3    H238150   3.155   3.716  14.667  1.2062 -0.5830 -0.9825
 5579TIP3   OH238151   4.299   4.465  14.363  0.3738  0.1980 -0.2053
 5579TIP3    H138152   4.227   4.442  14.421  1.9354 -2.0792  0.9061
 5579TIP3    H238153   4.266   4.445  14.275 -0.8478  0.5990  0.1469
 5580TIP3   OH238154   2.616   6.747   1.353  0.6569  0.0995  1.2224
 5580TIP3    H138155   2.655   6.783   1.274 -1.5750  0.6927  0.3733
 5580TIP3    H238156   2.641   6.654   1.351 -1.0942 -0.3657 -1.2805
 5581TIP3   OH238157   1.460   1.949  11.693 -0.1738  0.2703  0.2306
 5581TIP3    H138158   1.406   1.995  11.757  0.6579 -1.6171  2.3843
 5581TIP3    H238159   1.539   2.003  11.686  0.4006 -0.3154  2.0184
 5582TIP3   OH238160   4.836   0.526   0.013 -0.4140  0.5728 -0.8587
 5582TIP3    H138161   4.814   0.463   0.081  2.8110  1.5664  1.2026
 5582TIP3    H238162   4.886   0.475  -0.051 -1.7857  0.0664 -1.5505
 5583TIP3   OH238163   6.519   4.518  16.650 -0.1842 -0.2362  0.0558
 5583TIP3    H138164   6.506   4.588  16.586  1.7234 -1.8079 -2.1319
 5583TIP3    H238165   6.508   4.437  16.600 -1.1657 -1.5269  2.2827
 5584TIP3   OH238166   1.730   2.955   1.695  0.5898 -0.3779 -0.7429
 5584TIP3    H138167   1.772   2.907   1.766 -0.1387  0.8311  0.5198
 5584TIP3    H238168   1.653   2.996   1.735 -1.3127 -1.7958 -2.7963
 5585TIP3   OH238169   0.209   4.927  16.411 -0.3938 -0.4883  0.4083
 5585TIP3    H138170   0.244   5.015  16.430 -1.5092 -0.1233  0.8166
 5585TIP3    H238171   0.120   4.929  16.445 -0.3759 -1.8479  0.5779
 5586TIP3   OH238172   4.828   3.563   5.103 -0.7681  0.2757  0.5588
 5586TIP3    H138173   4.921   3.571   5.080 -1.0680 -0.6929 -1.0814
 5586TIP3    H238174   4.812   3.469   5.101 -2.0110  0.4983 -0.1266
 5587TIP3   OH238175   1.233   3.600  13.473  0.6717  0.0645 -0.0037
 5587TIP3    H138176   1.265   3.510  13.469  0.8750  0.0699  1.3506
 5587TIP3    H238177   1.242   3.625  13.564 -1.7810  0.5997  0.1392
 5588TIP3   OH238178   2.027   6.617  16.838 -0.2459 -0.5576  0.4828
 5588TIP3    H138179   1.990   6.696  16.796 -0.3282 -0.4613  0.7365
 5588TIP3    H238180   2.036   6.641  16.930  0.6113 -0.5220  0.3934
 5589TIP3   OH238181   2.151   2.650   4.540  0.0975  0.1053  0.5206
 5589TIP3    H138182   2.085   2.630   4.607  0.0505 -0.1194  0.4093
 5589TIP3    H238183   2.187   2.565   4.517 -1.7961 -0.1568 -1.7007
 5590TIP3   OH238184   0.024   3.431  11.660 -0.9349  0.0844  0.0456
 5590TIP3    H138185   0.097   3.465  11.712  1.2021 -1.9711 -1.4692
 5590TIP3    H238186   0.001   3.503  11.601  1.2592  0.1029 -0.8406
 5591TIP3   OH238187   2.909   5.469  16.520  0.0973 -0.4134 -0.7001
 5591TIP3    H138188   2.852   5.403  16.480 -1.5772  0.6498 -0.1383
 5591TIP3    H238189   2.971   5.492  16.451 -0.1657 -1.5742 -1.3403
 5592TIP3   OH238190   6.716   4.096   5.813 -0.0653  0.0364 -0.6549
 5592TIP3    H138191   6.782   4.086   5.744  0.4616 -2.0816  0.1074
 5592TIP3    H238192   6.751   4.165   5.869  1.9025 -1.5169  0.1095
 5593TIP3   OH238193   3.875   1.155   1.727  0.2509 -0.2960 -0.6718
 5593TIP3    H138194   3.876   1.107   1.810 -1.0914  1.4649  0.3955
 5593TIP3    H238195   3.960   1.199   1.724  0.8138 -1.3821 -0.8535
 5594TIP3   OH238196   3.023   4.842  11.549  0.4442  0.2225  0.6571
 5594TIP3    H138197   2.982   4.756  11.541 -1.2072  0.7692  2.7468
 5594TIP3    H238198   2.992   4.875  11.633  0.8746  2.9707 -0.2259
 5595TIP3   OH238199   6.430   1.418   0.786  0.3971  0.4439 -0.0139
 5595TIP3    H138200   6.516   1.380   0.764  0.3945  0.1343  0.5012
 5595TIP3    H238201   6.391   1.438   0.701  1.3604  1.4480 -0.2391
 5596TIP3   OH238202   5.875   3.182   4.925  0.5649  0.1005  0.0178
 5596TIP3    H138203   5.868   3.108   4.865  0.4551  0.7322 -0.7535
 5596TIP3    H238204   5.795   3.177   4.978  1.5562 -1.5770  1.4230
 5597TIP3   OH238205   5.505   0.632   4.472  0.1029 -0.0813 -0.3022
 5597TIP3    H138206   5.559   0.692   4.421  0.3580  0.9513  1.1646
 5597TIP3    H238207   5.415   0.665   4.460 -0.0607 -0.9193 -1.5297
 5598TIP3   OH238208   6.080   4.620  10.692  0.1209 -0.3720  0.2572
 5598TIP3    H138209   5.985   4.632  10.703 -0.0838  0.2921 -1.8908
 5598TIP3    H238210   6.114   4.612  10.781 -1.8978 -0.1389  1.0779
 5599TIP3   OH238211   0.468   6.415  15.743 -0.3901  0.1678 -0.5266
 5599TIP3    H138212   0.455   6.377  15.830 -0.1551 -0.4966 -0.7818
 5599TIP3    H238213   0.467   6.340  15.683  0.2942  0.5310 -1.0029
 5600TIP3   OH238214   2.816   2.548  16.449 -0.1801  0.3508 -0.6621
 5600TIP3    H138215   2.828   2.454  16.432  1.9344  0.4788 -0.0706
 5600TIP3    H238216   2.722   2.562  16.443 -0.4323 -1.6200 -1.7602
 5601TIP3   OH238217   3.752   5.526  13.528  0.3954 -0.1702 -0.0888
 5601TIP3    H138218   3.707   5.608  13.551 -0.0486 -0.1070 -1.1714
 5601TIP3    H238219   3.839   5.554  13.499  1.0142 -0.2601  1.5986
 5602TIP3   OH238220   6.670   5.694  10.716 -0.1723  0.3136 -0.5280
 5602TIP3    H138221   6.747   5.715  10.664  0.0641  0.3489 -0.1611
 5602TIP3    H238222   6.658   5.769  10.774  0.1848 -0.1923  0.2019
 5603TIP3   OH238223   4.133   6.745   5.331  0.3743  0.2120 -1.0682
 5603TIP3    H138224   4.209   6.803   5.338 -0.4918  1.4428 -1.7502
 5603TIP3    H238225   4.070   6.780   5.394 -0.1719  0.0289 -1.5089
 5604TIP3   OH238226   3.931   6.494   5.985 -0.2132 -0.7952  0.0650
 5604TIP3    H138227   3.994   6.481   5.914  0.2540 -0.4096  0.4029
 5604TIP3    H238228   3.848   6.459   5.951 -0.3916  0.9025 -1.2951
 5605TIP3   OH238229   4.811   1.560   4.767  0.0937  0.2316 -0.1523
 5605TIP3    H138230   4.834   1.468   4.754  1.0841  0.5117 -0.3753
 5605TIP3    H238231   4.718   1.558   4.792  0.6072 -0.9632  1.7218
 5606TIP3   OH238232   2.607   5.045  17.041 -0.6044  0.3505 -0.0884
 5606TIP3    H138233   2.566   5.132  17.040 -0.1769  0.5607 -2.1931
 5606TIP3    H238234   2.558   4.996  17.106 -0.0157  2.5612  2.0757
 5607TIP3   OH238235   6.192   0.645   3.192 -0.2392  0.4084 -0.3465
 5607TIP3    H138236   6.146   0.608   3.116  0.9970 -1.7883 -0.0735
 5607TIP3    H238237   6.261   0.699   3.153 -0.3163  0.1951 -0.7864
 5608TIP3   OH238238   4.474   5.170   2.222 -1.2955 -0.4569 -0.3991
 5608TIP3    H138239   4.387   5.196   2.192 -0.7470  1.0896 -0.6869
 5608TIP3    H238240   4.521   5.253   2.235  0.3789 -1.2853 -0.9925
 5609TIP3   OH238241   0.135   4.459   0.189  0.4840 -0.2130  0.2665
 5609TIP3    H138242   0.043   4.433   0.195 -0.2446  2.1059 -0.3109
 5609TIP3    H238243   0.142   4.536   0.245  1.7328  0.4927 -0.8206
 5610TIP3   OH238244   3.433   1.157  12.637  0.0161  0.1215  0.3008
 5610TIP3    H138245   3.470   1.132  12.553 -0.9212  1.0509 -0.4072
 5610TIP3    H238246   3.472   1.097  12.700 -0.2333 -1.4152 -0.9793
 5611TIP3   OH238247   3.908   4.534  14.321  0.5506  0.3670 -0.0172
 5611TIP3    H138248   3.957   4.592  14.380  1.5510  1.5689 -2.0020
 5611TIP3    H238249   3.817   4.540  14.353  1.0091  1.3061  1.1647
 5612TIP3   OH238250   5.256   0.727  14.829 -0.4499  0.7603  0.0531
 5612TIP3    H138251   5.170   0.747  14.791 -0.7098  0.2412  0.3591
 5612TIP3    H238252   5.238   0.718  14.923 -0.4057 -1.2617 -0.1129
 5613TIP3   OH238253   0.796   4.303   3.389  0.4759 -0.0689 -0.1616
 5613TIP3    H138254   0.831   4.251   3.461 -0.3712  0.3900  0.5942
 5613TIP3    H238255   0.804   4.247   3.312  3.8429  0.4267 -0.2307
 5614TIP3   OH238256   4.461   5.057  11.119 -0.5618  0.5344  0.2039
 5614TIP3    H138257   4.437   5.107  11.042 -3.1822  1.6455  1.6763
 5614TIP3    H238258   4.406   4.979  11.115 -0.5472  0.4914  0.8290
 5615TIP3   OH238259   2.417   2.954  15.860  0.4483  0.0161 -0.4115
 5615TIP3    H138260   2.410   2.879  15.800 -0.9255 -0.5582  0.4368
 5615TIP3    H238261   2.468   3.019  15.811  0.4122 -0.9122 -1.7230
 5616TIP3   OH238262   3.815   4.963  12.126 -0.5403  0.0852  0.4023
 5616TIP3    H138263   3.738   4.946  12.180 -0.6597 -0.6450  0.0007
 5616TIP3    H238264   3.889   4.937  12.180 -0.7253 -1.8819 -0.2581
 5617TIP3   OH238265   3.143   0.212   4.240 -0.2278 -0.2288 -0.2446
 5617TIP3    H138266   3.087   0.277   4.282 -1.0622 -1.8240  1.1889
 5617TIP3    H238267   3.155   0.144   4.306  1.0170 -1.3082 -1.5353
 5618TIP3   OH238268   1.975   6.254   4.782  0.1115 -0.3331  0.3215
 5618TIP3    H138269   1.956   6.310   4.857 -1.6728 -1.2085  0.5668
 5618TIP3    H238270   1.987   6.167   4.819  1.1769 -0.4303 -0.2253
 5619TIP3   OH238271   5.192   6.565  13.696 -0.3081 -0.1054  0.6635
 5619TIP3    H138272   5.152   6.631  13.752 -2.1142 -0.4194 -0.2327
 5619TIP3    H238273   5.122   6.504  13.676  1.2803 -2.2077  1.2991
 5620TIP3   OH238274   0.038   2.395   1.094 -0.5302 -0.0883 -0.1937
 5620TIP3    H138275   0.103   2.375   1.161 -0.1261 -0.1497 -0.5993
 5620TIP3    H238276  -0.004   2.475   1.124 -0.9937 -0.6213  0.5935
 5621TIP3   OH238277   5.412   5.476   1.370  0.0510  0.4659  0.0649
 5621TIP3    H138278   5.336   5.521   1.405  0.6785 -0.0998  2.2353
 5621TIP3    H238279   5.426   5.402   1.430  2.7054  0.9453  0.1111
 5622TIP3   OH238280   1.234   1.389   3.211 -0.1352 -0.2639  0.0234
 5622TIP3    H138281   1.138   1.393   3.204 -0.1917 -1.3436  0.0630
 5622TIP3    H238282   1.252   1.297   3.232  0.9488 -0.1769 -0.5216
 5623TIP3   OH238283   6.210   1.633  16.107  0.2572 -0.0581  0.0482
 5623TIP3    H138284   6.153   1.556  16.107  0.9076 -0.5415 -0.4998
 5623TIP3    H238285   6.275   1.614  16.040 -0.5840  1.7013 -1.3032
 5624TIP3   OH238286   2.511   1.003   0.473  0.1130  0.0425 -0.4582
 5624TIP3    H138287   2.504   0.933   0.538 -1.7160 -1.7527 -2.5056
 5624TIP3    H238288   2.589   0.981   0.423 -0.4475 -0.5405 -1.0853
 5625TIP3   OH238289   2.707   4.965  14.023  0.0733 -0.0761  0.2336
 5625TIP3    H138290   2.770   4.894  14.010 -0.9729 -0.8461 -0.7500
 5625TIP3    H238291   2.637   4.924  14.074  0.9186  1.0973  2.3816
 5626TIP3   OH238292   2.860   6.738  12.123 -0.4090  0.3698 -0.4324
 5626TIP3    H138293   2.938   6.707  12.169  0.4854  1.4188 -1.2111
 5626TIP3    H238294   2.839   6.821  12.165 -0.6133  0.4921 -0.7750
 5627TIP3   OH238295   3.060   1.832  13.876  0.4231 -0.0576  0.1392
 5627TIP3    H138296   2.992   1.805  13.815  0.8776 -0.1805 -0.3110
 5627TIP3    H238297   3.017   1.898  13.931  0.3810  0.9986 -1.1407
 5628TIP3   OH238298   4.013   6.750  10.341 -0.1315 -0.1767  0.3351
 5628TIP3    H138299   4.090   6.699  10.316 -0.1481 -0.3587  0.6429
 5628TIP3    H238300   3.959   6.688  10.391  0.5507  0.5568  2.0243
 5629TIP3   OH238301   0.170   4.547  13.131 -0.2986  0.4507  0.3008
 5629TIP3    H138302   0.264   4.537  13.115 -0.1414  1.0599  0.8251
 5629TIP3    H238303   0.137   4.457  13.131  0.4153  0.1795  0.8575
 5630TIP3   OH238304   6.255   4.131   2.130  0.3185  0.0643  0.3882
 5630TIP3    H138305   6.217   4.065   2.188 -3.9777  1.5484 -0.5458
 5630TIP3    H238306   6.242   4.096   2.042  0.0012  1.1701 -0.0144
 5631TIP3   OH238307   6.771   4.821  13.850 -0.5905 -0.4691  0.0683
 5631TIP3    H138308   6.772   4.864  13.764  0.1840 -1.0770 -0.2370
 5631TIP3    H238309   6.862   4.824  13.879 -1.2626  2.0334  2.0593
 5632TIP3   OH238310   0.334   5.687   4.511 -0.1910 -0.2633  0.5070
 5632TIP3    H138311   0.378   5.741   4.577  2.6030 -1.3348 -0.4160
 5632TIP3    H238312   0.306   5.609   4.558 -1.5032  0.6086  1.1912
 5633TIP3   OH238313   0.986   5.030   5.195  0.3324 -0.1280 -0.3064
 5633TIP3    H138314   1.069   5.067   5.162 -0.4260  0.9208 -1.0775
 5633TIP3    H238315   1.013   4.963   5.257  1.7848 -0.2382 -1.0222
 5634TIP3   OH238316   0.261   4.030   3.142  0.0559 -0.2171  0.2557
 5634TIP3    H138317   0.278   3.948   3.096  1.1135 -0.1977  0.5861
 5634TIP3    H238318   0.348   4.059   3.172 -0.3462  0.8559  0.4115
 5635TIP3   OH238319   3.998   3.696   2.384  0.1668 -0.4708 -0.2261
 5635TIP3    H138320   4.031   3.607   2.373 -0.9116 -1.2128  2.2316
 5635TIP3    H238321   3.909   3.693   2.350  0.1165 -0.3641 -0.1052
 5636TIP3   OH238322   1.101   3.403   4.560  0.8323  0.2206  0.4342
 5636TIP3    H138323   1.071   3.329   4.508 -0.1629 -0.7846  2.3760
 5636TIP3    H238324   1.191   3.417   4.532  0.2564 -0.1020 -1.7231
 5637TIP3   OH238325   0.056   4.467  14.961  0.3434  0.2978  0.0152
 5637TIP3    H138326   0.037   4.556  14.991  1.9663  1.4483 -2.2535
 5637TIP3    H238327   0.140   4.474  14.916  0.8179 -2.5335  0.3630
 5638TIP3   OH238328   2.369   0.724  15.190  0.5200 -0.3474  0.3729
 5638TIP3    H138329   2.303   0.669  15.233 -0.8341 -0.6462 -2.0528
 5638TIP3    H238330   2.355   0.811  15.227 -0.5825 -0.6045  0.5726
 5639TIP3   OH238331   1.291   4.782  10.844 -1.2453  0.5198 -0.1867
 5639TIP3    H138332   1.295   4.872  10.879 -1.5702  0.2633  0.5115
 5639TIP3    H238333   1.202   4.753  10.863 -0.4519 -0.7873  1.6723
 5640TIP3   OH238334   3.928   1.379   3.163  0.4287  0.2491 -0.5731
 5640TIP3    H138335   3.838   1.350   3.147  0.3811 -0.2380  0.5123
 5640TIP3    H238336   3.922   1.473   3.179 -0.1728 -0.1138  1.5061
 5641TIP3   OH238337   0.226   0.847  13.550  0.0235  0.7238 -0.1558
 5641TIP3    H138338   0.207   0.863  13.457  0.8265 -0.9009 -0.6378
 5641TIP3    H238339   0.274   0.924  13.579 -0.7146  1.4917 -0.9362
 5642TIP3   OH238340   1.754   0.955  12.283 -0.4125  0.0482  0.0748
 5642TIP3    H138341   1.705   1.029  12.246  2.1467  1.3387 -0.8600
 5642TIP3    H238342   1.717   0.878  12.240 -2.7638  0.7994  0.6777
 5643TIP3   OH238343   6.197   5.637  15.160 -0.7846  0.8935  0.0421
 5643TIP3    H138344   6.159   5.725  15.153 -0.3975  1.1278  0.8826
 5643TIP3    H238345   6.194   5.603  15.070 -1.7505  1.4196 -0.1378
 5644TIP3   OH238346   2.849   6.415  12.220 -0.3537 -0.4420 -0.3979
 5644TIP3    H138347   2.939   6.446  12.212  0.3564 -2.8470 -2.5322
 5644TIP3    H238348   2.845   6.373  12.306  0.6259 -0.4866 -0.3694
 5645TIP3   OH238349   5.730   6.729  11.150 -0.4592 -0.2287  0.3297
 5645TIP3    H138350   5.677   6.726  11.071 -1.1099  0.0315  0.7501
 5645TIP3    H238351   5.705   6.650  11.198 -1.8690  0.8188  1.4039
 5646TIP3   OH238352   4.170   3.582  12.780 -0.0649 -0.0171  0.2794
 5646TIP3    H138353   4.158   3.507  12.839 -2.6147 -1.3906 -1.8643
 5646TIP3    H238354   4.247   3.560  12.728 -0.3249 -0.7817  0.2151
 5647TIP3   OH238355   3.484   6.308   0.642  0.5064 -0.4939 -0.1383
 5647TIP3    H138356   3.454   6.310   0.551  1.3280  0.1208 -0.4014
 5647TIP3    H238357   3.512   6.217   0.656 -1.7157 -1.1464  0.2001
 5648TIP3   OH238358   4.540   2.900   4.681 -0.3103  0.4111 -0.4647
 5648TIP3    H138359   4.477   2.969   4.661 -1.2848 -0.7755 -1.6286
 5648TIP3    H238360   4.503   2.821   4.640  1.6823 -0.4079 -0.7708
 5649TIP3   OH238361   0.945   3.141  14.893 -0.5108 -0.5773  0.0527
 5649TIP3    H138362   0.958   3.060  14.942  0.3864 -1.0672 -0.9658
 5649TIP3    H238363   0.924   3.112  14.804 -0.5269  0.3010 -0.2344
 5650TIP3   OH238364   5.104   5.076   0.997 -0.3410  0.3032  0.6656
 5650TIP3    H138365   5.039   5.097   0.929 -0.0795 -0.1126  0.2862
 5650TIP3    H238366   5.153   5.157   1.008 -0.5247  0.4374  0.5077
 5651TIP3   OH238367   6.077   3.965  14.158 -0.5906  0.3662 -0.4929
 5651TIP3    H138368   5.994   3.971  14.111 -1.1715  1.6244  0.6432
 5651TIP3    H238369   6.052   3.968  14.250  0.6337 -0.5762 -0.1284
 5652TIP3   OH238370   3.232   2.365   4.678  0.1663 -0.1322 -0.0528
 5652TIP3    H138371   3.186   2.448   4.690 -0.1663 -0.4948  1.2237
 5652TIP3    H238372   3.232   2.351   4.583 -0.7289  0.7834 -0.1930
 5653TIP3   OH238373   2.952   1.411  15.627 -0.7829  0.5019  0.2645
 5653TIP3    H138374   2.956   1.477  15.558 -2.5142 -2.0515 -2.3958
 5653TIP3    H238375   3.044   1.390  15.645 -0.2993  1.5567 -0.9104
 5654TIP3   OH238376   6.750   3.227   0.062 -0.1523 -0.0975 -0.0341
 5654TIP3    H138377   6.797   3.233  -0.021  1.5777 -1.1073  0.8467
 5654TIP3    H238378   6.795   3.157   0.109  0.4584  2.1135  2.7519
 5655TIP3   OH238379   6.446   3.951  12.340 -0.3203  0.1997  0.1557
 5655TIP3    H138380   6.476   4.027  12.390 -1.3744 -0.0287  1.1672
 5655TIP3    H238381   6.359   3.932  12.376 -0.6737 -0.5887 -1.0974
 5656TIP3   OH238382   4.459   4.253  16.597 -0.2217  0.0518  0.2084
 5656TIP3    H138383   4.478   4.347  16.602 -0.2118 -0.0033  1.2720
 5656TIP3    H238384   4.419   4.242  16.511  2.3761  0.5552 -1.1138
 5657TIP3   OH238385   6.455   1.382   2.262 -0.0750  0.1346  0.8084
 5657TIP3    H138386   6.528   1.408   2.206 -0.6593  0.4668  0.1847
 5657TIP3    H238387   6.494   1.325   2.328  0.7811  0.4937  0.6173
 5658TIP3   OH238388   4.936   6.013  15.626 -0.5017  0.1355  0.0577
 5658TIP3    H138389   4.916   6.007  15.719  0.3695  0.0558  0.2418
 5658TIP3    H238390   4.994   5.939  15.609 -1.0117 -0.1008 -0.6363
 5659TIP3   OH238391   1.497   4.759   3.425 -0.9366 -0.0806 -0.5361
 5659TIP3    H138392   1.565   4.735   3.362 -1.4612 -0.3716 -0.9970
 5659TIP3    H238393   1.417   4.764   3.373 -1.4313 -0.6140  0.1586
 5660TIP3   OH238394   1.789   2.808   0.065 -0.1596 -0.0982  0.3886
 5660TIP3    H138395   1.737   2.852  -0.003 -1.3178  0.2380  1.4754
 5660TIP3    H238396   1.773   2.715   0.050 -1.6779  0.0237  1.1667
 5661TIP3   OH238397   1.441   3.064   0.546 -0.5159 -1.2515  0.2884
 5661TIP3    H138398   1.430   3.039   0.454 -1.2269  1.5261 -0.4064
 5661TIP3    H238399   1.371   3.127   0.562  0.9818 -0.0329  2.1202
 5662TIP3   OH238400   0.486   3.615   2.907 -0.3655 -0.2908  0.2264
 5662TIP3    H138401   0.542   3.559   2.960 -1.6256 -0.4275  1.4384
 5662TIP3    H238402   0.547   3.667   2.854  1.0126  0.9270  2.8906
 5663TIP3   OH238403   4.183   6.348   1.720  0.2592 -0.5862  0.2587
 5663TIP3    H138404   4.179   6.253   1.716  0.5374 -0.5940  0.2040
 5663TIP3    H238405   4.092   6.376   1.712  0.2941 -0.7933 -0.9241
 5664TIP3   OH238406   3.823   1.023  12.270 -0.0171 -0.0803 -0.1206
 5664TIP3    H138407   3.911   1.037  12.304  0.0230  1.4283 -0.7825
 5664TIP3    H238408   3.776   1.104  12.291 -0.9570 -0.4652 -0.6711
 5665TIP3   OH238409   4.681   2.147   6.986  0.1220 -0.1560  0.3022
 5665TIP3    H138410   4.766   2.168   6.947 -0.3661 -1.6875 -1.6804
 5665TIP3    H238411   4.696   2.068   7.037  0.6663  1.6201  3.0110
 5666TIP3   OH238412   4.363   1.168  13.348 -0.1977 -0.0220 -0.2297
 5666TIP3    H138413   4.290   1.137  13.295 -0.3102 -1.0163  0.4797
 5666TIP3    H238414   4.328   1.176  13.437  0.6119 -0.8148  0.1809
 5667TIP3   OH238415   1.714   5.054   1.854  0.0739  0.4270  0.0749
 5667TIP3    H138416   1.633   5.106   1.861 -1.5840 -2.0609  0.0991
 5667TIP3    H238417   1.726   5.043   1.759  0.7361  1.2882  0.0515
 5668TIP3   OH238418   0.822   2.118   6.035  0.2012  0.1822 -0.2580
 5668TIP3    H138419   0.887   2.177   6.074 -0.5302  0.5616  0.3945
 5668TIP3    H238420   0.761   2.099   6.106 -0.5666  0.0608 -0.9475
 5669TIP3   OH238421   3.131   1.359  16.219 -0.0693 -0.0677  0.7799
 5669TIP3    H138422   3.192   1.286  16.230  0.6599  0.3147 -0.6764
 5669TIP3    H238423   3.119   1.367  16.125  0.2835  2.0417  0.9017
 5670TIP3   OH238424   4.175   4.487  15.871  0.3906 -0.2215 -0.3674
 5670TIP3    H138425   4.141   4.526  15.951  0.2895  0.3042 -0.6694
 5670TIP3    H238426   4.263   4.458  15.894 -0.2404 -1.6166  0.4313
 5671TIP3   OH238427   3.361   2.513   3.936 -0.8785 -0.1497  0.3940
 5671TIP3    H138428   3.375   2.567   3.858  0.7463 -0.1976  0.6314
 5671TIP3    H238429   3.387   2.425   3.910 -2.1961 -0.5507  0.4213
 5672TIP3   OH238430   4.847   3.284   0.273  0.5382 -0.3638 -0.0792
 5672TIP3    H138431   4.910   3.234   0.325  0.3829  0.0886  0.5551
 5672TIP3    H238432   4.835   3.366   0.322  0.6241  0.2006 -0.9908
 5673TIP3   OH238433   6.734   0.212  11.398 -0.5841  0.4065 -0.2329
 5673TIP3    H138434   6.653   0.203  11.449  0.6937 -1.4052  1.5568
 5673TIP3    H238435   6.791   0.143  11.432  1.5594  1.3901 -1.7590
 5674TIP3   OH238436   2.552   3.404  13.444 -0.2676  0.7103  0.3338
 5674TIP3    H138437   2.634   3.364  13.473 -0.1674  1.2471  0.7888
 5674TIP3    H238438   2.523   3.348  13.372  0.2858  0.2809  0.4387
 5675TIP3   OH238439   0.686   0.266  10.359  0.2426 -0.0491  0.2549
 5675TIP3    H138440   0.732   0.303  10.283  0.0775 -1.3640 -0.5113
 5675TIP3    H238441   0.751   0.208  10.400  0.4399  0.9110  1.3278
 5676TIP3   OH238442   4.554   1.156   2.381  0.3385  0.2042 -0.4426
 5676TIP3    H138443   4.544   1.223   2.448  1.0807  0.9512 -1.0663
 5676TIP3    H238444   4.514   1.078   2.419 -0.5754  1.0050  0.2765
 5677TIP3   OH238445   0.720   0.024   2.509  0.3946 -0.3002 -0.3120
 5677TIP3    H138446   0.804   0.003   2.549 -0.9255 -0.0251  2.6950
 5677TIP3    H238447   0.684  -0.061   2.483  0.2704 -0.6785  1.1038
 5678TIP3   OH238448   1.668   1.095  11.241  0.7123  0.2932 -0.1784
 5678TIP3    H138449   1.620   1.170  11.277 -0.9100 -0.8058 -0.0143
 5678TIP3    H238450   1.757   1.128  11.228  0.2624  1.9662  0.8041
 5679TIP3   OH238451   0.265   3.131  14.763  0.6493  0.9541 -0.4275
 5679TIP3    H138452   0.343   3.082  14.738  0.0104 -0.2337 -0.1378
 5679TIP3    H238453   0.202   3.113  14.693 -1.0020 -2.0158  1.7229
 5680TIP3   OH238454   0.327   0.490  13.313  0.2382  0.3006  0.3921
 5680TIP3    H138455   0.360   0.407  13.280  1.4971  1.0240 -0.2208
 5680TIP3    H238456   0.284   0.531  13.238 -1.0757 -0.1286  0.8915
 5681TIP3   OH238457   3.077   6.551   4.492 -0.4593 -0.1204 -0.0039
 5681TIP3    H138458   3.031   6.557   4.576 -0.9894  1.1352 -0.3698
 5681TIP3    H238459   3.019   6.501   4.436 -1.1610  1.0201 -0.3101
 5682TIP3   OH238460   1.432   5.410   3.294 -0.5235  1.0082  0.5851
 5682TIP3    H138461   1.516   5.412   3.248  0.4798 -0.7142  2.2486
 5682TIP3    H238462   1.366   5.418   3.225  0.9770  1.5551 -0.8230
 5683TIP3   OH238463   6.705   1.315   5.549  0.2876 -0.0472  0.4903
 5683TIP3    H138464   6.777   1.325   5.612  1.0778  0.4344 -0.4809
 5683TIP3    H238465   6.653   1.394   5.561 -1.1784 -1.2709  2.5439
 5684TIP3   OH238466   3.782   1.969  14.257 -0.1854 -0.2247 -0.4317
 5684TIP3    H138467   3.717   1.945  14.191 -0.3785 -1.8319  0.3223
 5684TIP3    H238468   3.828   2.045  14.219 -0.1690 -1.2139 -2.4867
 5685TIP3   OH238469   2.835   3.323  17.139 -1.0946 -0.2878  0.2757
 5685TIP3    H138470   2.920   3.311  17.095 -1.8037  0.6941 -1.4018
 5685TIP3    H238471   2.858   3.350  17.227  0.3584 -0.8661  0.0963
 5686TIP3   OH238472   1.016   2.594   5.029  0.1514  0.1307  0.3660
 5686TIP3    H138473   1.047   2.642   4.952  1.0187  1.9237  1.8193
 5686TIP3    H238474   1.095   2.562   5.071 -0.3387 -1.0980  0.4007
 5687TIP3   OH238475   4.645   1.037  12.378  0.2134  0.3080 -0.1912
 5687TIP3    H138476   4.574   0.974  12.365 -0.7172  1.7857 -2.6775
 5687TIP3    H238477   4.725   0.987  12.361 -0.3617 -0.7498  0.1536
 5688TIP3   OH238478   4.613   2.767  16.211 -0.0696  0.6616 -0.0361
 5688TIP3    H138479   4.670   2.830  16.255 -1.5077  1.9413  0.0144
 5688TIP3    H238480   4.673   2.700  16.178  1.4761  2.0530 -0.1110
 5689TIP3   OH238481   4.076   3.006  11.378  0.5280  0.4067 -0.2255
 5689TIP3    H138482   4.169   2.981  11.384  0.3604 -0.3686 -0.9081
 5689TIP3    H238483   4.034   2.932  11.335 -1.1569 -1.1649  3.8426
 5690TIP3   OH238484   3.860   0.765   4.755 -0.5260  0.0720 -0.1992
 5690TIP3    H138485   3.872   0.831   4.823  1.0432  0.2908 -0.6570
 5690TIP3    H238486   3.893   0.684   4.795 -0.5188 -0.0020 -0.3560
 5691TIP3   OH238487   6.095   3.940   2.308 -0.1811 -0.0920  0.1688
 5691TIP3    H138488   6.146   3.887   2.368  0.5931 -0.2786 -0.6381
 5691TIP3    H238489   6.033   3.878   2.269  0.6791 -0.4115 -0.7254
 5692TIP3   OH238490   3.557   4.427  11.808  0.1007 -0.4429 -0.4544
 5692TIP3    H138491   3.536   4.401  11.898  1.8019  1.3849  0.5162
 5692TIP3    H238492   3.561   4.523  11.811 -0.0442 -0.3432 -2.5332
 5693TIP3   OH238493   4.362   0.730   6.011  0.1464 -0.1740  0.4015
 5693TIP3    H138494   4.280   0.732   6.060  0.0092 -0.9445  0.2073
 5693TIP3    H238495   4.425   0.690   6.070  0.1963 -0.2988  0.2626
 5694TIP3   OH238496   2.792   0.652  11.163  0.0355 -0.2172  0.2652
 5694TIP3    H138497   2.767   0.642  11.255  1.2886 -2.0100  0.4436
 5694TIP3    H238498   2.864   0.590  11.151  0.5893  0.7539 -1.6634
 5695TIP3   OH238499   2.520   6.070  12.546  0.7732  0.5561 -0.6494
 5695TIP3    H138500   2.582   6.034  12.610 -0.5267  0.9138  0.8591
 5695TIP3    H238501   2.501   6.158  12.579 -1.0680  0.1870 -0.6932
 5696TIP3   OH238502   6.150   6.476   0.993  0.3028 -0.1659  0.1534
 5696TIP3    H138503   6.233   6.430   0.986  0.0688 -0.4617 -0.8627
 5696TIP3    H238504   6.157   6.549   0.931  1.3172  2.2373  2.9916
 5697TIP3   OH238505   0.181   4.239   4.229 -0.3913 -0.0567  0.4260
 5697TIP3    H138506   0.099   4.248   4.278  0.3606  0.2410  1.6498
 5697TIP3    H238507   0.240   4.194   4.289  0.4554  0.0581 -0.3115
 5698TIP3   OH238508   1.778   6.531  12.719 -0.0550  0.1793  0.1013
 5698TIP3    H138509   1.775   6.531  12.815 -1.5023  1.1969  0.0832
 5698TIP3    H238510   1.838   6.603  12.698  1.4634 -1.0208  0.2390
 5699TIP3   OH238511   0.150   3.244   4.998 -0.0732 -0.0952 -0.7359
 5699TIP3    H138512   0.139   3.155   5.031  1.2803 -0.4120 -1.0961
 5699TIP3    H238513   0.244   3.251   4.980  0.0550  1.8704  0.5897
 5700TIP3   OH238514   6.563   6.451   5.928  0.2146  0.1584 -0.2129
 5700TIP3    H138515   6.618   6.527   5.945  0.0431  0.7974 -2.3531
 5700TIP3    H238516   6.599   6.382   5.982  2.1698  0.9897 -0.4308
 5701TIP3   OH238517   6.706   4.383  11.776  0.1285  0.9115  0.2788
 5701TIP3    H138518   6.782   4.438  11.793  0.4196  0.8276 -0.7326
 5701TIP3    H238519   6.686   4.396  11.683  0.1500 -0.6025  0.0333
 5702TIP3   OH238520   0.806   1.756   3.155 -0.4138 -0.2606  0.5062
 5702TIP3    H138521   0.806   1.748   3.060 -1.1236 -1.3149  0.5788
 5702TIP3    H238522   0.898   1.760   3.179 -0.1787 -1.5079 -0.1206
 5703TIP3   OH238523   3.533   4.033   0.866  0.4387  0.2639  0.3042
 5703TIP3    H138524   3.458   4.085   0.894  0.9884  0.7764  0.8642
 5703TIP3    H238525   3.558   3.983   0.944  2.0053  1.7331  0.8057
 5704TIP3   OH238526   0.061   5.786   4.513 -0.2785 -0.1393 -0.7662
 5704TIP3    H138527   0.075   5.719   4.446 -1.1835  0.0557 -1.1661
 5704TIP3    H238528   0.056   5.868   4.464 -0.8286  0.0209 -0.4475
 5705TIP3   OH238529   4.768   5.820   0.838 -0.0358 -0.2971  0.2377
 5705TIP3    H138530   4.856   5.789   0.816  0.2877 -0.1992  1.3669
 5705TIP3    H238531   4.719   5.740   0.857  0.1422 -0.2767  0.7896
 5706TIP3   OH238532   6.193   5.898  16.103  0.4785  0.3632  0.4093
 5706TIP3    H138533   6.170   5.959  16.033 -0.3795 -1.2200 -0.7157
 5706TIP3    H238534   6.282   5.923  16.129  0.2550  1.8705 -0.2604
 5707TIP3   OH238535   1.112   3.942  13.704  0.1049  0.2226 -0.1941
 5707TIP3    H138536   1.045   3.949  13.772  0.0474  1.1082 -0.3342
 5707TIP3    H238537   1.088   3.864  13.654 -1.2087  0.9099 -0.6607
 5708TIP3   OH238538   3.709   3.005  14.857  0.2537 -0.3338  0.4310
 5708TIP3    H138539   3.756   3.022  14.775 -0.6735 -0.9269 -0.2405
 5708TIP3    H238540   3.685   2.912  14.852 -1.6517  0.1363  0.4008
 5709TIP3   OH238541   1.739   4.699  11.287 -0.1201 -0.4158 -0.2607
 5709TIP3    H138542   1.784   4.716  11.370 -1.8861 -2.4608  1.1498
 5709TIP3    H238543   1.806   4.658  11.232  0.1864 -2.0283  1.2801
 5710TIP3   OH238544   3.432   5.552   2.626  0.3391 -0.1392  0.1161
 5710TIP3    H138545   3.404   5.603   2.551 -1.1702 -1.2661 -0.1138
 5710TIP3    H238546   3.393   5.597   2.702 -1.1143 -1.0082 -0.0982
 5711TIP3   OH238547   3.236   4.574   5.704  0.4676  0.0831  0.1797
 5711TIP3    H138548   3.286   4.656   5.699  2.3861 -1.0670 -0.2784
 5711TIP3    H238549   3.277   4.518   5.637 -0.8306 -1.2361  0.4801
 5712TIP3   OH238550   3.804   0.271   3.423  0.1793  0.2113 -0.0496
 5712TIP3    H138551   3.765   0.330   3.359 -1.0462 -1.6731 -1.0996
 5712TIP3    H238552   3.892   0.304   3.435 -0.0504  1.4822 -1.6178
 5713TIP3   OH238553   5.943   1.218   3.205  0.4413  0.5318 -0.4340
 5713TIP3    H138554   5.915   1.207   3.296  0.8406  0.8294 -0.2748
 5713TIP3    H238555   5.974   1.131   3.180 -0.7635  0.1578 -0.6651
 5714TIP3   OH238556   3.703   5.682   4.602 -0.1408  0.3368  0.2215
 5714TIP3    H138557   3.713   5.593   4.568  0.3024 -0.5137  2.4795
 5714TIP3    H238558   3.707   5.738   4.524  0.3138 -1.5548 -1.1547
 5715TIP3   OH238559   0.946   1.710   0.714  0.2872  0.2686  0.3457
 5715TIP3    H138560   1.026   1.759   0.735  0.1566  0.8642 -0.5048
 5715TIP3    H238561   0.883   1.778   0.688 -0.3490 -0.2389  0.5643
 5716TIP3   OH238562   4.243   3.006   2.887  0.1229 -0.4446 -0.1707
 5716TIP3    H138563   4.303   3.052   2.828 -1.7132  2.7542  0.3090
 5716TIP3    H238564   4.171   2.976   2.831 -0.0056 -0.3128 -0.0791
 5717TIP3   OH238565   4.461   4.578  11.613 -0.1281 -1.0676 -0.1723
 5717TIP3    H138566   4.399   4.559  11.684  0.7000 -0.5812  0.6816
 5717TIP3    H238567   4.406   4.611  11.542 -0.9725 -1.6405  0.2049
 5718TIP3   OH238568   6.318   6.576   4.447 -0.4649  0.2906 -0.0942
 5718TIP3    H138569   6.368   6.609   4.522 -0.3630  0.4530 -0.2317
 5718TIP3    H238570   6.248   6.524   4.485 -0.1512  0.0086  0.0995
 5719TIP3   OH238571   1.548   1.445   6.106 -0.4546 -0.2612  0.3580
 5719TIP3    H138572   1.560   1.351   6.122  0.6002 -0.3446 -0.8595
 5719TIP3    H238573   1.480   1.471   6.168  0.3921 -1.4884  1.8591
 5720TIP3   OH238574   6.079   3.693   1.338 -0.1202 -0.2350 -0.7063
 5720TIP3    H138575   6.138   3.673   1.265 -0.6832 -0.1654 -1.1739
 5720TIP3    H238576   6.046   3.780   1.320 -0.8875 -0.5410 -0.7791
 5721TIP3   OH238577   4.208   1.210  11.610  0.2100  0.0295  0.3796
 5721TIP3    H138578   4.155   1.136  11.582  0.5092 -0.1753  0.3482
 5721TIP3    H238579   4.163   1.287  11.575 -0.1652 -0.1272  0.5117
 5722TIP3   OH238580   2.367   2.249  17.198  0.4771  0.5281 -0.4148
 5722TIP3    H138581   2.393   2.191  17.269 -0.4204 -1.8497 -1.9482
 5722TIP3    H238582   2.448   2.267  17.150  0.7302  0.4256 -0.0289
 5723TIP3   OH238583   5.285   6.146  15.643 -0.6759 -0.0332  0.1436
 5723TIP3    H138584   5.245   6.154  15.557  2.4719 -1.2500 -1.5122
 5723TIP3    H238585   5.302   6.236  15.671  0.2954  0.3251 -1.5310
 5724TIP3   OH238586   6.576   2.554   2.843  0.2784 -0.3092  0.1831
 5724TIP3    H138587   6.519   2.593   2.909 -0.0320  1.0006 -0.8343
 5724TIP3    H238588   6.571   2.460   2.860  0.1154 -0.0097  1.9398
 5725TIP3   OH238589   3.607   4.008  13.836 -0.4608 -0.0206  0.5196
 5725TIP3    H138590   3.674   3.943  13.814 -2.4820 -1.5973 -1.0824
 5725TIP3    H238591   3.570   3.978  13.919 -1.2992 -0.8593 -0.1508
 5726TIP3   OH238592   5.006   6.216  11.230  0.7232 -0.1215 -0.1265
 5726TIP3    H138593   4.994   6.286  11.293  2.7470 -1.9050  2.3363
 5726TIP3    H238594   5.090   6.235  11.189  1.7565 -1.6262  1.2685
 5727TIP3   OH238595   0.137   5.447  13.747 -0.0566 -0.3636 -0.2529
 5727TIP3    H138596   0.123   5.364  13.792  1.1148 -0.5453 -0.2011
 5727TIP3    H238597   0.108   5.431  13.657  0.0025 -0.7884 -0.1981
 5728TIP3   OH238598   4.294   4.934  14.148  0.0634 -0.2678  0.1947
 5728TIP3    H138599   4.372   4.935  14.204 -0.3219  1.2632  0.7036
 5728TIP3    H238600   4.246   4.856  14.176  0.2876  0.0263  1.4446
 5729TIP3   OH238601   6.000   2.437  13.891 -0.0466  0.1473  0.5057
 5729TIP3    H138602   5.988   2.421  13.797 -0.2404 -0.3372  0.6115
 5729TIP3    H238603   5.993   2.532  13.900 -0.7770  0.1329  0.1319
 5730TIP3   OH238604   2.127   3.077  13.379 -0.2647 -0.1845 -0.4004
 5730TIP3    H138605   2.122   3.163  13.421  0.2349 -0.2894 -0.1233
 5730TIP3    H238606   2.069   3.022  13.431 -0.3243 -0.0964 -0.3721
 5731TIP3   OH238607   1.438   6.743  14.316  0.1967 -0.4275 -0.0177
 5731TIP3    H138608   1.405   6.784  14.396 -0.8935 -0.6505 -0.3351
 5731TIP3    H238609   1.470   6.657  14.344  0.5515 -0.1908  0.3042
 5732TIP3   OH238610   1.058   1.768   5.412 -0.3399  0.0234  0.3498
 5732TIP3    H138611   1.070   1.724   5.496  0.0059 -1.1435 -0.2913
 5732TIP3    H238612   1.109   1.716   5.350 -0.9974  0.5683 -0.6746
 5733TIP3   OH238613   4.700   5.378  11.587 -0.2476 -0.1516  0.2575
 5733TIP3    H138614   4.683   5.445  11.521 -0.1899 -0.1665  0.2267
 5733TIP3    H238615   4.757   5.315  11.542 -1.3870 -0.9087 -0.1316
 5734TIP3   OH238616   5.612   5.530   1.195  0.0793  0.4609  0.2017
 5734TIP3    H138617   5.614   5.457   1.133 -0.9463  0.6919 -0.1235
 5734TIP3    H238618   5.540   5.508   1.255 -0.5457  1.4245 -0.1802
 5735TIP3   OH238619   0.868   4.114   3.557 -0.2805  0.1314  0.0263
 5735TIP3    H138620   0.955   4.080   3.577 -0.2808  0.2072  0.1538
 5735TIP3    H238621   0.838   4.155   3.638  0.7060  2.5601 -0.7874
 5736TIP3   OH238622   2.420   6.331   3.575 -0.1039  0.1589 -0.3086
 5736TIP3    H138623   2.474   6.261   3.539 -1.5749 -2.2816  2.0175
 5736TIP3    H238624   2.344   6.336   3.516 -1.2966 -2.0961  0.9981
 5737TIP3   OH238625   5.520   3.364  11.054 -0.2727  0.6314  1.0152
 5737TIP3    H138626   5.531   3.397  10.965  0.0749 -2.7254 -0.2455
 5737TIP3    H238627   5.552   3.434  11.110  2.0207  1.7371 -1.6061
 5738TIP3   OH238628   3.930   1.770  12.424 -0.8907  0.3658 -0.5092
 5738TIP3    H138629   3.965   1.858  12.439  0.9754 -0.4908  0.2351
 5738TIP3    H238630   3.928   1.730  12.511 -1.8595 -0.3113 -0.8310
 5739TIP3   OH238631   0.126   5.402  13.215  0.3169 -0.2945  0.4183
 5739TIP3    H138632   0.032   5.387  13.211  0.1733  0.1740  1.9590
 5739TIP3    H238633   0.164   5.329  13.166 -0.8197 -0.7209  0.1701
 5740TIP3   OH238634   4.063   0.006  11.294  0.3803  0.3175 -0.4027
 5740TIP3    H138635   4.043  -0.080  11.257 -0.8185  0.1683  0.5483
 5740TIP3    H238636   3.987   0.060  11.272  0.3356  0.6387  0.5119
 5741TIP3   OH238637   5.226   1.723  12.924 -0.0331  0.0548  0.4496
 5741TIP3    H138638   5.162   1.691  12.860  0.0898  0.8000 -0.0569
 5741TIP3    H238639   5.293   1.655  12.928 -0.1198 -0.0650 -0.1046
 5742TIP3   OH238640   2.087   4.612   5.752  0.5628 -0.3178  0.6053
 5742TIP3    H138641   2.008   4.656   5.783  1.9029  2.2315  0.5904
 5742TIP3    H238642   2.062   4.521   5.742 -2.0211  0.2161  1.8079
 5743TIP3   OH238643   6.478   2.695  11.923  0.5300 -0.2890 -0.0076
 5743TIP3    H138644   6.498   2.740  11.841 -1.1117 -1.5199 -1.1166
 5743TIP3    H238645   6.541   2.623  11.927  1.5013  0.5787  0.5065
 5744TIP3   OH238646   1.454   2.403  12.002  0.0564 -0.3227  0.5322
 5744TIP3    H138647   1.505   2.387  12.082 -0.3322  2.0923  1.3187
 5744TIP3    H238648   1.467   2.496  11.984 -0.0214 -0.8023 -2.1416
 5745TIP3   OH238649   3.518   5.632   3.284  0.8702 -0.0537 -0.2240
 5745TIP3    H138650   3.577   5.576   3.233  2.0548 -0.1835  1.2747
 5745TIP3    H238651   3.433   5.590   3.276  1.7957 -2.2887  1.1533
 5746TIP3   OH238652   2.940   3.638   5.525  0.1016  1.0449 -0.1017
 5746TIP3    H138653   2.910   3.565   5.472 -1.4278  1.6408 -0.0895
 5746TIP3    H238654   3.013   3.676   5.476  0.1063  0.2645 -0.6968
 5747TIP3   OH238655   0.472   3.894  16.278  0.4673 -0.5022  0.7519
 5747TIP3    H138656   0.400   3.956  16.266 -0.4002 -1.6014  0.1614
 5747TIP3    H238657   0.482   3.886  16.373  1.5233  1.5811  0.8586
 5748TIP3   OH238658   6.429   1.310  11.975  0.2930  0.7466 -0.3860
 5748TIP3    H138659   6.369   1.349  12.039  1.4766  1.4340  0.3289
 5748TIP3    H238660   6.501   1.277  12.028  0.7262  0.2475 -1.2781
 5749TIP3   OH238661   5.993   1.426   3.027 -0.6393  0.3339 -0.1999
 5749TIP3    H138662   6.004   1.418   2.932 -0.0536 -0.8736 -0.0434
 5749TIP3    H238663   5.987   1.335   3.058  1.7327  0.6315  1.2102
 5750TIP3   OH238664   0.401   0.370  11.947  0.7737  0.1916  0.1055
 5750TIP3    H138665   0.309   0.369  11.922  0.7549  0.9227  0.1221
 5750TIP3    H238666   0.442   0.429  11.883  1.3460 -0.6250 -0.2906
 5751TIP3   OH238667   6.309   0.606  16.643 -1.1070  0.5407 -0.1261
 5751TIP3    H138668   6.398   0.635  16.662 -1.3888  1.0153  0.4831
 5751TIP3    H238669   6.266   0.600  16.729 -1.2012 -1.2127 -0.2747
 5752TIP3   OH238670   6.040   6.084   0.996 -0.2792 -0.5155  0.1295
 5752TIP3    H138671   6.010   6.081   1.087 -0.9789 -1.2344 -0.1246
 5752TIP3    H238672   6.030   5.994   0.965  1.1652 -0.5456 -0.2702
 5753TIP3   OH238673   1.960   5.881  11.452 -0.2556 -0.5984  0.2340
 5753TIP3    H138674   1.929   5.849  11.368 -1.4313  1.1749 -0.0370
 5753TIP3    H238675   1.882   5.880  11.508  0.2026 -0.4415  0.8804
 5754TIP3   OH238676   5.365   4.818  11.237  0.1175 -0.2881 -0.1932
 5754TIP3    H138677   5.376   4.729  11.270  1.6817 -0.7614 -1.9094
 5754TIP3    H238678   5.394   4.814  11.146 -0.4879  1.8268 -0.5156
 5755TIP3   OH238679   0.678   6.538   5.414  0.0467 -0.6176  0.3574
 5755TIP3    H138680   0.601   6.535   5.357  0.3166 -1.0415  0.0128
 5755TIP3    H238681   0.734   6.606   5.377 -0.9504  0.9516  1.6316
 5756TIP3   OH238682   1.555   4.004   0.389  0.1578  1.0235  0.3057
 5756TIP3    H138683   1.622   4.060   0.348  1.3225 -0.2906  0.3877
 5756TIP3    H238684   1.514   3.958   0.316 -1.8556  3.0610  0.0826
 5757TIP3   OH238685   6.723   5.216   0.359 -0.6363  0.7438 -0.3397
 5757TIP3    H138686   6.737   5.306   0.330  0.0102  0.2296 -1.6424
 5757TIP3    H238687   6.635   5.216   0.397 -0.0360  2.2989  1.1680
 5758TIP3   OH238688   4.593   0.970   4.725 -0.0667 -0.1237 -0.3098
 5758TIP3    H138689   4.637   0.901   4.676 -0.8258 -0.6403 -0.2690
 5758TIP3    H238690   4.591   0.939   4.816  0.5042  0.4165 -0.1012
 5759TIP3   OH238691   1.236   2.397   4.991  0.0143  0.4474  0.4438
 5759TIP3    H138692   1.228   2.304   4.971 -2.0597  0.7929 -0.4052
 5759TIP3    H238693   1.326   2.407   5.023  0.0273 -1.9692  1.2574
 5760TIP3   OH238694   2.179   1.062  12.054  0.7055 -0.0032  0.6316
 5760TIP3    H138695   2.102   1.007  12.044  1.9537 -1.9378  1.4570
 5760TIP3    H238696   2.148   1.139  12.101 -0.6587 -0.8705  1.1767
 5761TIP3   OH238697   0.444   5.327   3.929  0.1689 -0.2636 -0.1674
 5761TIP3    H138698   0.395   5.262   3.979 -0.9310  0.6532 -0.0226
 5761TIP3    H238699   0.418   5.411   3.967  0.3125  0.3718 -1.4296
 5762TIP3   OH238700   3.847   4.636   4.280 -0.1534  0.1446 -0.3403
 5762TIP3    H138701   3.921   4.590   4.243  0.7547 -0.2169  1.8714
 5762TIP3    H238702   3.771   4.581   4.258  0.7486 -1.7248  1.1095
 5763TIP3   OH238703   1.434   0.982  16.835 -0.6019  0.3794 -0.0848
 5763TIP3    H138704   1.384   0.935  16.768 -2.1952  0.2190  1.1861
 5763TIP3    H238705   1.430   1.073  16.808  0.2392  0.1230 -1.1224
 5764TIP3   OH238706   6.529   3.278  11.974 -0.1522 -0.1415  0.2140
 5764TIP3    H138707   6.551   3.348  12.037  0.1994  0.4662 -0.5776
 5764TIP3    H238708   6.613   3.242  11.948 -0.3070 -0.5040  0.2209
 5765TIP3   OH238709   3.211   6.274  14.501  0.4815  0.0075  0.1751
 5765TIP3    H138710   3.124   6.254  14.536  0.6067 -0.2733  0.3274
 5765TIP3    H238711   3.252   6.329  14.569  0.3267  0.3597 -0.0145
 5766TIP3   OH238712   0.671   1.329  12.649 -0.4740  0.0541 -0.5056
 5766TIP3    H138713   0.714   1.400  12.697  0.1973  0.4877 -1.7287
 5766TIP3    H238714   0.594   1.308  12.701 -0.0915  0.9537  0.4279
 5767TIP3   OH238715   5.840   0.663   4.261 -0.5322  0.1613  0.3237
 5767TIP3    H138716   5.771   0.651   4.196 -1.2548  0.5990  1.0068
 5767TIP3    H238717   5.920   0.674   4.209 -1.2289  1.3408 -0.5152
 5768TIP3   OH238718   0.508   0.502  15.427 -0.8557 -0.0212  0.1124
 5768TIP3    H138719   0.474   0.484  15.515 -0.1676 -2.3428 -0.0360
 5768TIP3    H238720   0.603   0.491  15.437 -0.7741 -0.2293 -0.8984
 5769TIP3   OH238721   3.892   0.069  16.186 -0.1341 -0.4836 -0.4065
 5769TIP3    H138722   3.832  -0.002  16.209  0.0281 -0.0636  1.3496
 5769TIP3    H238723   3.979   0.031  16.197 -0.0470 -0.5792 -1.3367
 5770TIP3   OH238724   5.775   0.003   5.741  0.5168 -0.3142  0.6223
 5770TIP3    H138725   5.811   0.028   5.656  1.0146 -0.4126  0.8043
 5770TIP3    H238726   5.841  -0.054   5.779  0.4490  0.0119  1.2260
 5771TIP3   OH238727   2.145   5.131  14.319  0.4955  0.5685  0.1814
 5771TIP3    H138728   2.210   5.114  14.388  1.1093 -2.0987 -0.9819
 5771TIP3    H238729   2.061   5.122  14.363  0.8928 -0.0071  0.8385
 5772TIP3   OH238730   0.273   3.694  12.102  0.3947 -0.5409 -0.9290
 5772TIP3    H138731   0.241   3.684  12.192 -0.5642 -0.7389 -1.2844
 5772TIP3    H238732   0.367   3.708  12.111  0.3238 -0.7037  0.0995
 5773TIP3   OH238733   2.484   2.552  16.709  0.3110 -0.0953 -0.2549
 5773TIP3    H138734   2.540   2.630  16.711  2.0160 -1.1934 -2.3384
 5773TIP3    H238735   2.398   2.584  16.683  0.7836  1.2117 -0.2255
 5774TIP3   OH238736   0.055   3.428   0.700 -0.7618  0.6436  0.1595
 5774TIP3    H138737   0.039   3.520   0.682 -2.2964  0.5827  1.1194
 5774TIP3    H238738   0.145   3.424   0.732 -1.0848  1.9852  1.2742
 5775TIP3   OH238739   0.221   3.559  16.841  0.7823 -0.1213 -0.2958
 5775TIP3    H138740   0.295   3.499  16.851  0.0453 -0.9758  0.1865
 5775TIP3    H238741   0.208   3.596  16.928  0.9470  0.3786 -0.4859
 5776TIP3   OH238742   3.887   5.822   5.930  0.0920  0.1433 -0.3956
 5776TIP3    H138743   3.812   5.771   5.898 -0.4824  1.4020 -1.0702
 5776TIP3    H238744   3.912   5.877   5.857  2.0262 -0.6209 -0.3402
 5777TIP3   OH238745   6.180   3.698   0.228 -0.3701  0.2548  0.0664
 5777TIP3    H138746   6.247   3.742   0.176 -0.6504 -0.9756 -1.3847
 5777TIP3    H238747   6.099   3.712   0.180 -0.8170 -0.0006  0.7323
 5778TIP3   OH238748   5.191   3.165  15.496 -0.7225 -0.2303 -0.3060
 5778TIP3    H138749   5.197   3.170  15.591 -0.9317 -4.9025  0.0496
 5778TIP3    H238750   5.281   3.181  15.465  0.0537 -2.0297  0.9236
 5779TIP3   OH238751   2.868   5.100   4.890 -0.2840  0.3632  0.0734
 5779TIP3    H138752   2.789   5.059   4.854 -0.3118  1.5766 -1.3023
 5779TIP3    H238753   2.913   5.137   4.814  1.0535  0.6529  0.9776
 5780TIP3   OH238754   2.460   6.667   4.618 -0.1119 -0.4931 -0.2206
 5780TIP3    H138755   2.539   6.710   4.587 -0.8777  1.5310  0.5558
 5780TIP3    H238756   2.395   6.737   4.625 -0.9267 -1.4518  2.6908
 5781TIP3   OH238757   3.116   0.569  13.683  0.0451  0.0014 -0.6005
 5781TIP3    H138758   3.210   0.572  13.702 -0.5327  1.4743  2.4178
 5781TIP3    H238759   3.086   0.659  13.694 -1.7783 -0.5046 -1.2034
 5782TIP3   OH238760   6.379   2.685   5.213 -0.2916  0.2467  0.1577
 5782TIP3    H138761   6.364   2.758   5.153 -3.7575  0.3271  0.9873
 5782TIP3    H238762   6.368   2.724   5.300 -1.0814 -0.9967  0.6340
 5783TIP3   OH238763   6.202   1.264   3.271 -0.6010  0.4833  0.0714
 5783TIP3    H138764   6.129   1.219   3.230 -0.4747  0.4331 -0.1001
 5783TIP3    H238765   6.280   1.230   3.226 -0.5223  1.0398 -0.2158
 5784TIP3   OH238766   6.336   6.654  11.083  0.1299  0.5376  0.1234
 5784TIP3    H138767   6.330   6.726  11.021 -1.0395 -0.6534 -1.2006
 5784TIP3    H238768   6.427   6.625  11.079  0.0740  0.5031 -1.0255
 5785TIP3   OH238769   2.018   2.158  12.750  0.2870  0.1659  0.0020
 5785TIP3    H138770   2.065   2.239  12.729 -2.5980  1.7481 -0.7177
 5785TIP3    H238771   2.015   2.110  12.667  0.3361  0.2442 -0.0451
 5786TIP3   OH238772   1.074   4.745  15.660 -0.3018  0.0721  0.3058
 5786TIP3    H138773   1.146   4.710  15.607  1.2761  0.6290  2.0200
 5786TIP3    H238774   1.072   4.688  15.737 -1.8751 -0.0857  0.1695
 5787TIP3   OH238775   6.352   3.948  14.337 -0.0987 -0.0425 -0.2588
 5787TIP3    H138776   6.421   3.923  14.276  0.6133  1.1568  0.0480
 5787TIP3    H238777   6.324   4.035  14.309 -0.8540 -0.1450  0.1653
 5788TIP3   OH238778   3.292   1.190  11.001  0.0472  0.3133 -0.0839
 5788TIP3    H138779   3.240   1.129  10.948 -0.4657  1.3816 -0.8353
 5788TIP3    H238780   3.346   1.134  11.057  0.1473 -0.8360 -1.3100
 5789TIP3   OH238781   3.356   1.291   4.823 -0.1539 -0.1281  0.5390
 5789TIP3    H138782   3.393   1.235   4.754  1.2460  1.5502 -0.1173
 5789TIP3    H238783   3.313   1.362   4.775  0.6811  0.9624  1.3778
 5790TIP3   OH238784   5.309   4.263  10.493 -0.3562 -0.5729  0.1994
 5790TIP3    H138785   5.313   4.190  10.555  1.3551 -0.0345  0.7556
 5790TIP3    H238786   5.401   4.285  10.477 -0.8601  2.0993  0.8237
 5791TIP3   OH238787   0.765   1.113  15.038  0.1842  0.1736  0.0182
 5791TIP3    H138788   0.840   1.063  15.069  0.8290  1.4287  0.5259
 5791TIP3    H238789   0.691   1.054  15.049  1.0033 -0.8265  0.1792
 5792TIP3   OH238790   4.479   3.413   1.396 -0.6361  0.0846 -0.3002
 5792TIP3    H138791   4.507   3.493   1.442 -3.3065  0.4039  0.8415
 5792TIP3    H238792   4.490   3.343   1.460 -3.3348  0.3683  0.5277
 5793TIP3   OH238793   0.811   3.448   4.223 -0.6262 -0.0838  0.1051
 5793TIP3    H138794   0.886   3.413   4.176 -1.8332 -1.5029 -0.8228
 5793TIP3    H238795   0.789   3.381   4.288 -0.7468  0.5782  0.7622
 5794TIP3   OH238796   0.769   2.060  11.298  0.2091 -0.3693 -0.2479
 5794TIP3    H138797   0.706   2.130  11.281  0.4240 -0.2014 -0.3669
 5794TIP3    H238798   0.835   2.070  11.230 -0.1494 -1.1670 -0.7159
 5795TIP3   OH238799   5.858   4.606   0.151 -0.4940  0.0045 -0.0046
 5795TIP3    H138800   5.904   4.527   0.122 -1.5880 -0.9601  0.8359
 5795TIP3    H238801   5.801   4.629   0.078  0.6868  0.7182 -0.7189
 5796TIP3   OH238802   2.514   5.698  11.764  0.1569 -0.3159  0.1249
 5796TIP3    H138803   2.600   5.674  11.729  1.2147  1.1953  1.6139
 5796TIP3    H238804   2.502   5.638  11.838  0.2914 -0.0056  0.3993
 5797TIP3   OH238805   5.852   2.411   0.919 -0.1786 -0.3108 -0.1207
 5797TIP3    H138806   5.862   2.439   0.829  0.3861 -0.7737 -0.2099
 5797TIP3    H238807   5.903   2.474   0.970 -0.6344  0.0469 -0.1081
 5798TIP3   OH238808   3.247   2.928  11.956  0.0308 -0.5949  0.0413
 5798TIP3    H138809   3.341   2.947  11.959 -0.5855  3.1885 -1.9767
 5798TIP3    H238810   3.231   2.899  11.866 -1.0250  0.7430 -0.2255
 5799TIP3   OH238811   1.547   2.820   3.322  0.5474  0.1893  0.3071
 5799TIP3    H138812   1.604   2.874   3.268  1.2849 -0.0205  0.8782
 5799TIP3    H238813   1.519   2.749   3.264  0.0368  0.8522 -0.2732
 5800TIP3   OH238814   3.387   1.110  17.107 -0.4701  0.4038  0.5964
 5800TIP3    H138815   3.311   1.078  17.155 -0.9585  0.5308 -0.0795
 5800TIP3    H238816   3.353   1.132  17.020  0.5698 -0.6618 -0.0962
 5801TIP3   OH238817   0.544   1.440   2.965  0.3827 -0.4077 -0.1989
 5801TIP3    H138818   0.456   1.414   2.941 -0.4892  1.3374  0.9704
 5801TIP3    H238819   0.595   1.434   2.884 -1.2849  0.4961 -1.3387
 5802TIP3   OH238820   0.052   4.984   3.376 -0.5053 -0.0191 -0.0008
 5802TIP3    H138821  -0.016   5.045   3.347 -1.1984 -0.0697  1.4648
 5802TIP3    H238822   0.004   4.917   3.426  0.6053 -0.1331  0.9298
 5803TIP3   OH238823   2.361   4.347  12.365  0.2797 -0.0640 -0.1555
 5803TIP3    H138824   2.431   4.372  12.305 -0.0829  0.0197 -0.5471
 5803TIP3    H238825   2.293   4.413  12.350  0.1305 -0.1282  0.2436
 5804TIP3   OH238826   4.537   5.107  13.986 -0.4286  0.3711 -0.6342
 5804TIP3    H138827   4.521   5.197  14.012 -1.3656  0.3212 -1.0090
 5804TIP3    H238828   4.454   5.078  13.948  0.9552  0.5415 -3.9188
 5805TIP3   OH238829   2.582   0.790  11.047  0.1822  0.3098 -0.7002
 5805TIP3    H138830   2.584   0.857  11.116 -1.7367 -2.0557  1.7619
 5805TIP3    H238831   2.659   0.737  11.065 -0.8673 -0.9056  0.2918
 5806TIP3   OH238832   5.108   2.331   0.642 -0.2893 -0.2198  0.2064
 5806TIP3    H138833   5.136   2.240   0.648  0.4202 -0.1032 -1.1557
 5806TIP3    H238834   5.189   2.380   0.625 -1.1459  0.1924 -3.1691
 5807TIP3   OH238835   4.731   4.682   1.829 -0.4049  0.1944  0.5685
 5807TIP3    H138836   4.764   4.595   1.852 -0.8324 -0.0606  0.2168
 5807TIP3    H238837   4.787   4.710   1.756  1.0940  1.0977  2.0318
 5808TIP3   OH238838   5.767   1.569   0.652  0.2231 -0.2527 -0.8367
 5808TIP3    H138839   5.756   1.538   0.742  0.7855 -0.8918 -0.9851
 5808TIP3    H238840   5.691   1.626   0.637 -1.1557 -2.0102 -0.7503
 5809TIP3   OH238841   2.885   4.635   1.253  0.2182  0.0674 -0.2875
 5809TIP3    H138842   2.926   4.638   1.340  1.4678 -1.1576 -0.7946
 5809TIP3    H238843   2.955   4.660   1.193 -0.5317  0.5403 -0.9659
 5810TIP3   OH238844   1.930   4.643   0.720 -0.3682  0.1699 -0.6461
 5810TIP3    H138845   1.885   4.695   0.786  0.0893 -0.2807  0.0301
 5810TIP3    H238846   2.023   4.651   0.743 -0.1476  0.5963 -1.6597
 5811TIP3   OH238847   0.214   6.159  16.207 -0.3916 -0.4275 -0.2509
 5811TIP3    H138848   0.287   6.116  16.252  0.9416  1.6826 -0.3551
 5811TIP3    H238849   0.149   6.090  16.197  2.3812 -2.9119 -1.9723
 5812TIP3   OH238850   4.236   6.093  13.143 -0.1797  0.0917 -0.0841
 5812TIP3    H138851   4.142   6.079  13.138 -0.0908 -0.3307 -0.6449
 5812TIP3    H238852   4.256   6.148  13.066  0.0595  0.0182 -0.0764
 5813TIP3   OH238853   3.805   1.062  14.450  0.4850 -0.7926 -0.0226
 5813TIP3    H138854   3.735   1.078  14.513  1.2154 -1.8984  1.0668
 5813TIP3    H238855   3.878   1.116  14.481  0.4933 -0.5049 -0.5360
 5814TIP3   OH238856   1.534   2.167   3.463  0.3853  0.7322  0.2368
 5814TIP3    H138857   1.603   2.120   3.510  0.9749 -0.3770 -1.6894
 5814TIP3    H238858   1.525   2.119   3.380 -1.5071  1.8935 -0.2449
 5815TIP3   OH238859   5.175   4.651  13.247 -0.2994  0.8931 -0.5136
 5815TIP3    H138860   5.121   4.700  13.309  1.7656  1.8543  0.5666
 5815TIP3    H238861   5.240   4.714  13.217  1.5065 -0.7824 -0.2009
 5816TIP3   OH238862   1.032   0.979  14.697 -0.4494 -0.2357  0.2490
 5816TIP3    H138863   1.104   1.027  14.654 -1.0644  0.2677 -0.2362
 5816TIP3    H238864   1.067   0.955  14.783 -0.1759  1.2188  0.5574
 5817TIP3   OH238865   0.046   3.015   4.624 -0.4390 -0.2375 -0.5728
 5817TIP3    H138866  -0.007   3.062   4.690 -1.0678  1.5468 -2.2982
 5817TIP3    H238867   0.062   3.080   4.556  1.3044 -1.6981 -1.5966
 5818TIP3   OH238868   5.600   5.251   0.159 -0.4449 -0.3474 -0.3993
 5818TIP3    H138869   5.512   5.259   0.124  0.1942  0.3683 -1.8741
 5818TIP3    H238870   5.649   5.205   0.091  0.1639 -1.3645  0.7059
 5819TIP3   OH238871   1.027   4.859  14.597  0.2362 -0.0900 -0.3814
 5819TIP3    H138872   1.070   4.823  14.519  1.0669 -0.8331  0.4127
 5819TIP3    H238873   1.065   4.947  14.607 -1.2132  0.7403 -1.8582
 5820TIP3   OH238874   5.477   2.030   4.679 -0.1327 -0.1580 -0.8750
 5820TIP3    H138875   5.470   2.121   4.708 -1.4721 -0.1157 -1.2842
 5820TIP3    H238876   5.562   2.001   4.711 -0.3002  0.8044  0.4932
 5821TIP3   OH238877   2.442   5.543  13.968  0.1329  0.0277  0.0007
 5821TIP3    H138878   2.447   5.637  13.948  0.0639 -0.0407 -0.3407
 5821TIP3    H238879   2.359   5.533  14.015  0.3788  0.2181  0.4752
 5822TIP3   OH238880   4.729   0.315  10.595  0.3918 -0.0775 -0.5817
 5822TIP3    H138881   4.774   0.366  10.528 -0.4719  0.3845 -0.8114
 5822TIP3    H238882   4.745   0.362  10.677 -0.3255  0.5283 -0.7779
 5823TIP3   OH238883   2.874   1.954  13.354  0.1991  0.2498 -0.4122
 5823TIP3    H138884   2.817   1.878  13.340  0.7324 -0.3521  0.6195
 5823TIP3    H238885   2.837   1.998  13.431 -0.4222  1.3453 -1.3223
 5824TIP3   OH238886   1.795   0.284   2.685  0.1164 -0.3189 -0.0629
 5824TIP3    H138887   1.869   0.344   2.682  0.2381 -0.3477  1.7759
 5824TIP3    H238888   1.719   0.338   2.662  0.0505  0.8624  2.7523
 5825TIP3   OH238889   3.000   1.616  15.947  0.6034 -0.0416  0.0748
 5825TIP3    H138890   3.067   1.662  15.999 -0.0975  0.4531  0.5506
 5825TIP3    H238891   3.022   1.523  15.956  1.5206  0.1404 -0.1820
 5826TIP3   OH238892   5.973   2.548  11.936  0.4848 -0.4566  0.0342
 5826TIP3    H138893   6.066   2.569  11.946  0.3623 -0.3718  1.0689
 5826TIP3    H238894   5.958   2.552  11.842  1.2526  0.7182 -0.0480
 5827TIP3   OH238895   1.825   5.286   1.098 -0.3397 -0.3566 -0.0901
 5827TIP3    H138896   1.906   5.309   1.143  0.3507 -0.9076 -1.0484
 5827TIP3    H238897   1.768   5.253   1.167  0.5920 -0.8664  0.4344
 5828TIP3   OH238898   4.079   6.213  16.098 -0.5337  0.1998  1.1773
 5828TIP3    H138899   3.996   6.170  16.082 -1.7104  2.5633  0.6864
 5828TIP3    H238900   4.088   6.213  16.194  0.5930 -3.0763  1.1176
 5829TIP3   OH238901   5.019   1.154  15.618  1.4043  0.0817  0.0515
 5829TIP3    H138902   5.004   1.122  15.529 -0.4561  0.0987  0.3443
 5829TIP3    H238903   4.982   1.242  15.619  2.6657  0.6190  0.4668
 5830TIP3   OH238904   4.403   3.782  11.526  0.6592  0.5101  0.3258
 5830TIP3    H138905   4.467   3.716  11.500 -2.3007 -1.4904 -2.0454
 5830TIP3    H238906   4.453   3.841  11.583  3.5433 -3.3734  2.0737
 5831TIP3   OH238907   2.794   1.738   4.629 -0.3639  0.1637  0.6051
 5831TIP3    H138908   2.880   1.697   4.640 -0.6540 -0.7825 -0.5545
 5831TIP3    H238909   2.771   1.768   4.717  2.0865  2.3796  0.5564
 5832TIP3   OH238910   5.809   6.511  16.243  0.1879  0.6265 -0.2736
 5832TIP3    H138911   5.738   6.514  16.180 -0.9551  1.9730  1.0472
 5832TIP3    H238912   5.841   6.601  16.248 -0.7528  0.8562  2.1944
 5833TIP3   OH238913   1.723   1.693   5.590 -0.7564 -0.1480 -0.2300
 5833TIP3    H138914   1.803   1.666   5.546  0.3282  1.4193  0.7024
 5833TIP3    H238915   1.749   1.702   5.682 -1.8646  0.8896 -0.0130
 5834TIP3   OH238916   4.538   5.972   4.186  0.2568 -0.9101 -0.2483
 5834TIP3    H138917   4.554   6.014   4.271  1.5121 -1.4682 -0.1834
 5834TIP3    H238918   4.572   6.035   4.122 -1.9252  0.1002 -0.4269
 5835TIP3   OH238919   1.659   4.157  15.526 -0.0797  0.1382 -0.0151
 5835TIP3    H138920   1.715   4.228  15.495 -0.0326  0.8105  1.5955
 5835TIP3    H238921   1.616   4.192  15.604 -1.4843 -0.9540 -0.2807
 5836TIP3   OH238922   5.228   2.877  11.763 -0.1964 -0.2287 -0.3292
 5836TIP3    H138923   5.271   2.905  11.844  0.9927 -0.7929 -0.7518
 5836TIP3    H238924   5.192   2.958  11.726 -2.6904 -0.2871  1.8513
 5837TIP3   OH238925   6.317   0.406  12.885 -0.2806  0.6085 -0.7246
 5837TIP3    H138926   6.321   0.491  12.842  0.0635  1.0476  0.1653
 5837TIP3    H238927   6.377   0.413  12.959  1.0363 -0.9605 -1.5868
 5838TIP3   OH238928   0.814   3.373  14.938 -0.1256 -0.1326  0.1211
 5838TIP3    H138929   0.838   3.414  15.021  2.3645 -1.1819 -0.0265
 5838TIP3    H238930   0.865   3.292  14.936 -2.6324 -1.7443 -0.9683
 5839TIP3   OH238931   3.935   4.890   2.877  0.0998  0.2707 -0.1170
 5839TIP3    H138932   3.884   4.851   2.948 -0.2202 -0.8821 -0.9638
 5839TIP3    H238933   4.017   4.918   2.918 -0.1800 -0.1677  0.7444
 5840TIP3   OH238934   3.720   0.476   4.338 -0.4251 -0.0900  0.5694
 5840TIP3    H138935   3.750   0.389   4.310  1.1499 -0.4265  3.1184
 5840TIP3    H238936   3.791   0.535   4.312 -0.4884  0.0949  0.8146
 5841TIP3   OH238937   0.764   3.132  11.574 -0.4427 -0.7864 -0.2758
 5841TIP3    H138938   0.723   3.124  11.660  1.6452 -1.0780  0.7394
 5841TIP3    H238939   0.713   3.075  11.517 -1.8832 -0.5444  0.7470
 5842TIP3   OH238940   1.972   0.387   5.485 -0.6442  0.3466 -0.6611
 5842TIP3    H138941   2.048   0.422   5.438 -0.9007  1.6155 -0.1227
 5842TIP3    H238942   1.901   0.390   5.422 -0.0166 -1.9115 -1.5470
 5843TIP3   OH238943   5.844   4.268   2.664 -0.1864 -0.0435  0.2414
 5843TIP3    H138944   5.876   4.337   2.722  0.9311 -1.4688  1.3632
 5843TIP3    H238945   5.908   4.264   2.593 -0.3041  0.1407  0.1258
 5844TIP3   OH238946   2.655   3.404  10.926 -0.5460  0.1036 -0.0644
 5844TIP3    H138947   2.625   3.316  10.901  1.1683 -0.7831  0.9411
 5844TIP3    H238948   2.590   3.435  10.989 -0.6651 -0.8196  0.2740
 5845TIP3   OH238949   1.797   1.613   4.034 -0.0332 -0.1917 -0.2744
 5845TIP3    H138950   1.854   1.539   4.054 -0.6293 -0.5402  0.1886
 5845TIP3    H238951   1.708   1.576   4.038 -0.4282  0.8734  1.5417
 5846TIP3   OH238952   6.721   1.374  12.869 -0.2541 -0.1408 -0.7053
 5846TIP3    H138953   6.751   1.442  12.929 -0.2164  0.8095 -1.7899
 5846TIP3    H238954   6.700   1.300  12.926  1.2630  0.2071  0.3361
 5847TIP3   OH238955   3.395   0.103   5.144  0.0576  0.0591 -0.2626
 5847TIP3    H138956   3.432   0.105   5.056 -0.0545  0.1772 -0.3076
 5847TIP3    H238957   3.469   0.087   5.202  0.5046  2.4441 -0.1486
 5848TIP3   OH238958   2.940   5.807   5.505 -0.5707 -0.0839 -0.6337
 5848TIP3    H138959   3.020   5.838   5.547 -1.5331  0.7901  0.5749
 5848TIP3    H238960   2.946   5.711   5.510  0.4698 -0.0239 -0.6909
 5849TIP3   OH238961   0.915   4.268  11.807 -0.2982  0.3211  0.2763
 5849TIP3    H138962   0.868   4.204  11.860 -0.3946 -0.0285 -0.2296
 5849TIP3    H238963   0.864   4.348  11.816 -2.6730 -0.8068 -2.6452
 5850TIP3   OH238964   2.590   5.886  16.592 -0.7753 -1.4948  0.3408
 5850TIP3    H138965   2.641   5.882  16.674  0.1202 -3.3716 -0.2685
 5850TIP3    H238966   2.582   5.979  16.573  0.8496 -1.0974  1.4522
 5851TIP3   OH238967   3.477   6.355  10.982 -0.1661  0.5501  0.0630
 5851TIP3    H138968   3.431   6.419  10.926  0.6125  1.6570  0.6655
 5851TIP3    H238969   3.533   6.306  10.921 -1.9388 -0.6489 -0.6420
 5852TIP3   OH238970   1.747   6.397  15.621  0.1351  0.6668  0.1166
 5852TIP3    H138971   1.826   6.434  15.661  0.3618  0.1026  0.1875
 5852TIP3    H238972   1.706   6.471  15.576  0.5150  1.0374  0.3826
 5853TIP3   OH238973   4.998   2.361  13.356 -0.3424  0.0675  0.0393
 5853TIP3    H138974   5.069   2.374  13.294 -0.9993  0.2444 -0.6930
 5853TIP3    H238975   5.011   2.272  13.390  0.4355  0.2410  0.1837
 5854TIP3   OH238976   0.589   2.686  11.816  0.1195 -0.7036  0.2792
 5854TIP3    H138977   0.588   2.595  11.786  2.5372  0.0113 -2.1629
 5854TIP3    H238978   0.675   2.719  11.791 -1.1625  2.6338 -0.0216
 5855TIP3   OH238979   5.275   4.931   1.145  0.4289 -0.1720  0.0738
 5855TIP3    H138980   5.352   4.958   1.095  1.1721  0.3884  1.4674
 5855TIP3    H238981   5.207   4.994   1.121  1.9070  2.5785  2.6732
 5856TIP3   OH238982   3.054   1.350  11.460  0.0737  0.7025 -0.2105
 5856TIP3    H138983   3.030   1.364  11.368 -0.8723  0.2961 -0.0329
 5856TIP3    H238984   3.093   1.432  11.487  0.9724  0.6055 -1.1670
 5857TIP3   OH238985   0.353   3.561   4.658 -0.0208 -0.1133  0.5073
 5857TIP3    H138986   0.391   3.576   4.571 -1.1595  0.3461  0.0834
 5857TIP3    H238987   0.403   3.487   4.693  1.7997  0.9838  0.2989
 5858TIP3   OH238988   2.427   6.786  14.106 -0.1371  0.1446 -0.4027
 5858TIP3    H138989   2.339   6.805  14.138 -0.4963 -0.9682 -0.7225
 5858TIP3    H238990   2.426   6.816  14.015  0.2054  1.2762 -0.0421
 5859TIP3   OH238991   4.419   1.627   3.625 -0.0384  1.1016 -0.0671
 5859TIP3    H138992   4.511   1.622   3.648 -0.1806  2.5544  0.9516
 5859TIP3    H238993   4.375   1.573   3.690  0.0901  0.4371 -0.5316
 5860TIP3   OH238994   6.361   0.752  14.749 -0.5704  0.1525 -0.2328
 5860TIP3    H138995   6.354   0.834  14.798 -1.6845 -0.4733  0.6707
 5860TIP3    H238996   6.271   0.726  14.731 -0.2171 -0.7026 -0.8150
 5861TIP3   OH238997   2.998   3.730  14.140 -0.3154  0.2100 -0.4731
 5861TIP3    H138998   2.985   3.793  14.210 -2.1678 -1.7003  0.9757
 5861TIP3    H238999   2.949   3.766  14.066 -2.1556  0.0627  0.6316
 5862TIP3   OH239000   2.995   3.036   5.907 -0.4348 -0.2686  0.0404
 5862TIP3    H139001   2.939   3.088   5.849 -1.3110 -1.3287 -0.0898
 5862TIP3    H239002   2.938   2.964   5.936  1.2365 -2.1079 -1.1562
 5863TIP3   OH239003   6.267   2.164   5.843 -0.5171  0.0563  0.2617
 5863TIP3    H139004   6.232   2.209   5.766 -0.4449  0.1496  0.2823
 5863TIP3    H239005   6.354   2.203   5.855 -1.4050  1.6535  1.7287
 5864TIP3   OH239006   1.261   1.359   1.713 -0.2400  0.2556  0.6922
 5864TIP3    H139007   1.278   1.313   1.796  0.7242 -0.7925 -0.0664
 5864TIP3    H239008   1.260   1.289   1.648 -0.0970  1.1904 -0.3081
 5865TIP3   OH239009   1.343   0.196  15.665  0.3275 -0.0925  0.5918
 5865TIP3    H139010   1.373   0.236  15.583  1.4799  0.5810  1.3240
 5865TIP3    H239011   1.264   0.148  15.641 -0.9803  2.4083 -0.3784
 5866TIP3   OH239012   6.131   2.761  15.644  0.7551  0.5115 -0.1144
 5866TIP3    H139013   6.201   2.725  15.699  3.3791  2.5449 -1.9794
 5866TIP3    H239014   6.095   2.833  15.696 -0.6665 -1.1641  1.2637
 5867TIP3   OH239015   1.861   4.305  16.782 -0.1856 -0.2618 -0.6352
 5867TIP3    H139016   1.814   4.230  16.820 -1.4539  0.4693 -0.7183
 5867TIP3    H239017   1.836   4.379  16.838 -0.5127  0.4608 -1.7202
 5868TIP3   OH239018   1.742   5.154   6.336  0.6405  0.1005  0.2051
 5868TIP3    H139019   1.650   5.176   6.348  1.0625  2.5093 -0.5856
 5868TIP3    H239020   1.773   5.131   6.423 -0.2689  1.1685  0.8221
 5869TIP3   OH239021   2.316   2.458   3.302 -0.1706  0.3680 -0.5961
 5869TIP3    H139022   2.372   2.386   3.273  0.4865  0.2810  0.8339
 5869TIP3    H239023   2.233   2.416   3.325 -0.7875  0.4733 -2.5506
 5870TIP3   OH239024   2.002   5.999  15.449  0.1692  0.0453 -0.3717
 5870TIP3    H139025   1.922   5.983  15.400  0.8191 -3.7096 -0.3673
 5870TIP3    H239026   2.071   6.000  15.383  0.5100 -0.1367 -0.0189
 5871TIP3   OH239027   2.289   1.536   2.503  0.1224 -0.6585  0.0659
 5871TIP3    H139028   2.343   1.605   2.542  1.3067 -0.4925 -1.8165
 5871TIP3    H239029   2.232   1.583   2.442 -2.0289 -0.8646  1.8545
 5872TIP3   OH239030   4.964   2.672   3.902 -0.2380 -0.2454  0.4978
 5872TIP3    H139031   4.875   2.702   3.880 -0.0350  0.2259  0.3043
 5872TIP3    H239032   5.005   2.656   3.817  0.6812  1.9631  0.5111
 5873TIP3   OH239033   4.606   5.857   3.339 -0.1194  0.0566 -0.4986
 5873TIP3    H139034   4.646   5.915   3.404  2.0786 -1.3056 -0.5854
 5873TIP3    H239035   4.664   5.861   3.264 -0.7259 -1.1243 -1.0530
 5874TIP3   OH239036   6.055   1.607   1.319 -0.3155 -0.2296  0.4513
 5874TIP3    H139037   5.993   1.582   1.251 -0.6797  0.3601  0.5692
 5874TIP3    H239038   6.018   1.686   1.358  1.4127  1.2081 -0.7009
 5875TIP3   OH239039   3.574   6.071   0.715 -0.4294 -0.5453 -0.1636
 5875TIP3    H139040   3.662   6.042   0.738 -0.0858  1.8031  1.6903
 5875TIP3    H239041   3.517   6.023   0.775 -0.1841 -0.2080  0.3447
 5876TIP3   OH239042   0.637   4.882  11.743  0.0089 -0.3110  0.2545
 5876TIP3    H139043   0.667   4.859  11.656  0.0446 -0.2411  0.2478
 5876TIP3    H239044   0.645   4.978  11.747 -2.1585 -0.0693 -0.4573
 5877TIP3   OH239045   3.663   3.153  14.571 -0.0899  0.2488  0.2600
 5877TIP3    H139046   3.621   3.216  14.629 -1.0843 -1.0081  0.9455
 5877TIP3    H239047   3.628   3.172  14.484  0.7948  1.6269  0.1952
 5878TIP3   OH239048   5.487   3.825  15.885  0.2249 -0.3106 -0.1194
 5878TIP3    H139049   5.422   3.847  15.951 -1.3251  0.1512 -1.7574
 5878TIP3    H239050   5.441   3.768  15.823  1.4973 -0.3670 -1.0433
 5879TIP3   OH239051   6.241   2.140   0.762  0.0300  0.1148 -0.4570
 5879TIP3    H139052   6.258   2.089   0.683 -0.1892 -0.1384 -0.3414
 5879TIP3    H239053   6.149   2.124   0.782 -0.5221  1.9726 -1.4228
 5880TIP3   OH239054   2.811   3.284   1.641  0.3349 -0.1382 -0.6629
 5880TIP3    H139055   2.862   3.248   1.569  0.5471  1.5167 -1.3712
 5880TIP3    H239056   2.722   3.290   1.607  0.0842 -1.0292 -0.1672
 5881TIP3   OH239057   2.352   5.171  15.468 -0.2137 -0.2333  0.1704
 5881TIP3    H139058   2.378   5.258  15.497  1.6674 -0.7856  0.2440
 5881TIP3    H239059   2.340   5.180  15.373  0.2050  0.0489  0.1429
 5882TIP3   OH239060   5.298   0.509   5.026 -0.1815 -0.0342  0.6691
 5882TIP3    H139061   5.335   0.554   5.102  4.7391 -1.1577 -0.9275
 5882TIP3    H239062   5.284   0.419   5.056  2.0721 -0.5607  0.1947
 5883TIP3   OH239063   2.349   2.371  15.746 -0.7318 -0.5027  0.6695
 5883TIP3    H139064   2.278   2.313  15.772 -1.2814  0.3485  1.1060
 5883TIP3    H239065   2.428   2.329  15.779 -1.1553 -0.8257  1.2815
 5884TIP3   OH239066   3.851   1.597   1.377 -0.1322  0.2040 -0.0653
 5884TIP3    H139067   3.833   1.510   1.413  0.4123 -0.4376 -1.2797
 5884TIP3    H239068   3.922   1.632   1.430  1.1653 -1.0299 -0.9432
 5885TIP3   OH239069   4.654   4.789   3.584  0.0580  0.7572  0.1349
 5885TIP3    H139070   4.568   4.794   3.626  0.7944  1.0092  1.6488
 5885TIP3    H239071   4.686   4.879   3.584 -0.6088  1.0488 -2.4890
 5886TIP3   OH239072   0.237   4.193  16.990  0.4532  0.0571  0.0934
 5886TIP3    H139073   0.245   4.153  16.903 -0.7742 -0.2135  0.0994
 5886TIP3    H239074   0.164   4.253  16.983  0.7533  0.5156  0.7737
 5887TIP3   OH239075   3.008   0.511  11.081  0.1853  0.0282 -0.4092
 5887TIP3    H139076   3.029   0.417  11.076 -1.6367 -0.4197 -0.1165
 5887TIP3    H239077   2.964   0.530  10.998  0.5941  0.6415 -0.4885
 5888TIP3   OH239078   6.670   6.219   5.805  0.8414 -0.5624  0.1522
 5888TIP3    H139079   6.618   6.281   5.856 -1.2170 -2.4223  0.4055
 5888TIP3    H239080   6.693   6.266   5.725 -1.6317  0.1730 -0.1542
 5889TIP3   OH239081   3.781   5.975   0.245  0.6336  0.0246 -0.2674
 5889TIP3    H139082   3.781   5.880   0.249  0.4263 -0.0305 -1.4727
 5889TIP3    H239083   3.728   6.002   0.321  1.3115 -0.7877  0.5055
 5890TIP3   OH239084   2.188   6.349   5.701 -0.3415  0.2352 -0.1491
 5890TIP3    H139085   2.223   6.383   5.783  0.8687  1.1639 -1.0406
 5890TIP3    H239086   2.179   6.255   5.716  4.4504 -0.3978 -0.5067
 5891TIP3   OH239087   1.000   4.255   1.972  0.0020 -0.3608  0.2671
 5891TIP3    H139088   1.022   4.271   1.880  0.7929 -1.1480  0.3163
 5891TIP3    H239089   1.050   4.321   2.020 -1.7627  1.1945  0.0276
 5892TIP3   OH239090   2.181   5.846  14.414 -0.2446  0.2481 -0.2369
 5892TIP3    H139091   2.265   5.881  14.383  0.2056 -0.8772 -0.3173
 5892TIP3    H239092   2.176   5.758  14.375 -0.5394 -0.4584  1.3717
 5893TIP3   OH239093   3.166   3.179   4.873  0.1117 -1.0667 -0.3396
 5893TIP3    H139094   3.227   3.192   4.800  1.8852  0.1398  1.2799
 5893TIP3    H239095   3.104   3.252   4.866  1.4961  0.2309  0.4736
 5894TIP3   OH239096   0.849   2.958   1.704 -0.3112 -0.0281  0.3502
 5894TIP3    H139097   0.865   2.891   1.638  1.1781 -0.1394  0.8073
 5894TIP3    H239098   0.754   2.971   1.703 -0.5971 -2.0715  0.1967
 5895TIP3   OH239099   3.394   5.308  11.471  0.8183 -0.0992  0.5132
 5895TIP3    H139100   3.402   5.395  11.431  0.0859 -0.5392 -0.6200
 5895TIP3    H239101   3.334   5.321  11.545 -2.4122 -0.3516 -1.9477
 5896TIP3   OH239102   4.412   1.556   0.834  0.1483  0.3240  0.1697
 5896TIP3    H139103   4.430   1.469   0.869  1.8689  1.1826  1.4940
 5896TIP3    H239104   4.351   1.541   0.761 -0.4966 -1.8523  1.1279
 5897TIP3   OH239105   3.477   3.652  13.727 -0.0672 -0.5145 -0.6399
 5897TIP3    H139106   3.506   3.575  13.775  0.1706 -0.5734 -0.8737
 5897TIP3    H239107   3.397   3.680  13.772  0.2786 -0.4281 -0.0673
 5898TIP3   OH239108   3.999   5.993   5.632  0.1795 -0.5106 -0.0297
 5898TIP3    H139109   3.988   6.055   5.560 -0.0510  0.0300  0.4607
 5898TIP3    H239110   4.047   6.042   5.699  1.6949 -1.4773 -0.3886
 5899TIP3   OH239111   6.720   1.387   2.982  0.5266  0.0235 -0.1207
 5899TIP3    H139112   6.631   1.361   3.004 -0.3399  2.5907 -0.4283
 5899TIP3    H239113   6.745   1.449   3.051  1.0249  1.4457 -1.5555
 5900TIP3   OH239114   4.805   2.395  15.218  0.0612  0.2666  0.4681
 5900TIP3    H139115   4.834   2.312  15.255  0.3351  1.7990  3.9776
 5900TIP3    H239116   4.736   2.372  15.156  0.8034 -2.6158  0.6472
 5901TIP3   OH239117   2.269   4.283  11.456  0.2662  0.0398  0.1733
 5901TIP3    H139118   2.340   4.229  11.490 -0.9799 -0.7518  1.5405
 5901TIP3    H239119   2.206   4.221  11.419  0.8540  0.7986 -2.1745
 5902TIP3   OH239120   5.648   1.858   3.080 -0.0582  0.1376  0.6828
 5902TIP3    H139121   5.702   1.828   3.008 -1.3735  0.5630 -0.5033
 5902TIP3    H239122   5.639   1.782   3.137  1.8320  0.0841  0.9409
 5903TIP3   OH239123   0.139   6.404  16.838 -0.3109  0.6855  0.0233
 5903TIP3    H139124   0.157   6.341  16.769 -1.0533  1.1432 -0.5854
 5903TIP3    H239125   0.081   6.469  16.798  0.7208  1.9482  0.5394
 5904TIP3   OH239126   2.349   6.038  10.893  0.0679 -0.2052 -0.0493
 5904TIP3    H139127   2.366   6.130  10.878  1.4040 -0.3413  0.5783
 5904TIP3    H239128   2.301   6.035  10.975  0.6412 -0.1122  0.2921
 5905TIP3   OH239129   5.677   1.168   3.661 -0.8196  0.5915  0.0214
 5905TIP3    H139130   5.698   1.113   3.737 -0.1004 -0.9067 -1.2166
 5905TIP3    H239131   5.595   1.132   3.627  0.0818 -0.2973 -1.2819
 5906TIP3   OH239132   0.003   0.690  15.349  0.6542 -0.1365 -0.2337
 5906TIP3    H139133  -0.024   0.598  15.349  0.1760 -0.0025 -0.6430
 5906TIP3    H239134   0.089   0.690  15.307  1.2247 -0.5549  0.9420
 5907TIP3   OH239135   3.533   3.881  14.071  0.0493 -0.2230  0.0376
 5907TIP3    H139136   3.578   3.797  14.082  1.5841  0.3751 -1.3356
 5907TIP3    H239137   3.442   3.864  14.094  0.4148 -2.1981  0.0608
 5908TIP3   OH239138   4.573   0.085   3.163  0.0436  0.4587  0.0560
 5908TIP3    H139139   4.659   0.103   3.200 -0.3786  0.4965  1.0184
 5908TIP3    H239140   4.571  -0.011   3.156 -0.9863  0.2367  2.8532
 5909TIP3   OH239141   5.832   6.467  13.178  0.3237  0.2181 -0.0903
 5909TIP3    H139142   5.869   6.485  13.092 -0.9388 -0.0312 -0.6992
 5909TIP3    H239143   5.753   6.416  13.160  0.5473 -0.6381  1.2692
 5910TIP3   OH239144   0.136   6.550   6.379  0.6391 -0.5738 -0.8418
 5910TIP3    H139145   0.149   6.548   6.473  0.6134  2.0593 -0.7467
 5910TIP3    H239146   0.051   6.508   6.365 -0.4039  1.0300  0.5398
 5911TIP3   OH239147   0.146   3.958  17.131  0.5433  0.0479  0.0476
 5911TIP3    H139148   0.089   3.995  17.198 -1.0117 -0.9679 -0.6855
 5911TIP3    H239149   0.193   4.032  17.094  1.2008  0.6535  2.0554
 5912TIP3   OH239150   5.196   2.355  16.829 -0.5522 -0.1060  0.7645
 5912TIP3    H139151   5.110   2.362  16.787 -0.4916  0.5441  0.7468
 5912TIP3    H239152   5.242   2.288  16.778 -1.4967 -1.4060  1.5622
 5913TIP3   OH239153   4.009   1.059   2.019 -0.3224  0.6030 -0.4942
 5913TIP3    H139154   3.946   0.998   1.982  0.9702  0.3059 -2.2641
 5913TIP3    H239155   4.081   1.004   2.049 -0.4122  1.0250  0.5069
 5914TIP3   OH239156   3.422   2.092   4.693 -0.2005  0.2863 -0.4410
 5914TIP3    H139157   3.370   2.012   4.701  0.4364 -0.0526  0.4466
 5914TIP3    H239158   3.487   2.071   4.626  0.7899 -0.4160  0.7099
 5915TIP3   OH239159   0.746   4.321   5.267  0.3302 -0.5998 -0.0549
 5915TIP3    H139160   0.720   4.266   5.341  2.6741 -0.6932  0.7187
 5915TIP3    H239161   0.664   4.359   5.237 -0.5569  0.2863  3.2706
 5916TIP3   OH239162   0.386   3.741  16.055  0.3575  0.5662  0.3298
 5916TIP3    H139163   0.327   3.796  16.005  0.0215  0.6008  0.7587
 5916TIP3    H239164   0.429   3.801  16.116  0.3629  0.4401  0.4520
 5917TIP3   OH239165   4.200   4.675  16.986  0.3815  0.5056 -0.3080
 5917TIP3    H139166   4.109   4.654  16.964  0.5161 -0.9271  0.4041
 5917TIP3    H239167   4.206   4.656  17.080  1.4891  0.3352 -0.4135
 5918TIP3   OH239168   1.661   5.550   3.552  0.4912  0.3224 -0.2349
 5918TIP3    H139169   1.686   5.584   3.466 -2.3352  2.9621 -0.0887
 5918TIP3    H239170   1.725   5.587   3.613  0.9333  0.5528 -0.8394
 5919TIP3   OH239171   0.048   1.164   2.602  0.1944  0.4506 -0.0654
 5919TIP3    H139172   0.075   1.083   2.559 -0.8652  0.8699 -1.5528
 5919TIP3    H239173   0.113   1.229   2.573 -1.0403  0.9380 -1.7901
 5920TIP3   OH239174   6.576   1.349  12.247 -0.6238 -0.3783  0.0660
 5920TIP3    H139175   6.511   1.312  12.307 -2.2436 -0.0998 -1.4878
 5920TIP3    H239176   6.606   1.275  12.196  1.9771 -0.9196  2.2746
 5921TIP3   OH239177   5.144   2.847   6.855 -0.0837 -0.7384 -0.2684
 5921TIP3    H139178   5.116   2.758   6.835 -1.3255 -0.5198  0.4393
 5921TIP3    H239179   5.237   2.849   6.833  0.2010 -2.5184  0.6787
 5922TIP3   OH239180   2.463   5.468   1.081 -0.2019 -0.3750  0.9559
 5922TIP3    H139181   2.534   5.407   1.101 -0.0411 -0.0385  1.4154
 5922TIP3    H239182   2.466   5.479   0.986 -1.2464 -2.3179  0.6794
 5923TIP3   OH239183   5.118   2.955  16.554 -0.4662 -0.1895  0.1803
 5923TIP3    H139184   5.136   2.879  16.609  2.7770 -0.8357 -1.6398
 5923TIP3    H239185   5.199   3.006  16.556 -0.7929  0.5329 -2.7415
 5924TIP3   OH239186   0.452   3.321  16.251  0.0454  0.2455 -0.0285
 5924TIP3    H139187   0.452   3.242  16.197  1.7993 -0.3573  0.8110
 5924TIP3    H239188   0.388   3.378  16.209 -2.4519 -2.2076  0.2791
 5925TIP3   OH239189   0.886   1.354  15.105  0.3885 -0.0072 -0.1300
 5925TIP3    H139190   0.816   1.297  15.072  2.5479 -1.8001 -1.8118
 5925TIP3    H239191   0.866   1.366  15.197 -0.8885 -2.4000 -0.0592
 5926TIP3   OH239192   3.116   0.883   4.871 -0.6118  0.9436  0.0778
 5926TIP3    H139193   3.053   0.950   4.842 -0.1062  2.0394  1.4535
 5926TIP3    H239194   3.194   0.932   4.895  0.9740 -0.4425 -1.9963
 5927TIP3   OH239195   2.410   2.311  12.280 -0.3475 -0.3290  0.3956
 5927TIP3    H139196   2.383   2.402  12.267 -1.0077 -0.4100  1.1631
 5927TIP3    H239197   2.497   2.317  12.319  0.5751 -0.0573 -1.6415
 5928TIP3   OH239198   6.229   5.327   3.645  0.5775  0.5606  0.2820
 5928TIP3    H139199   6.279   5.254   3.608 -0.0912  0.5612 -0.6416
 5928TIP3    H239200   6.295   5.395   3.660  1.2658 -0.3530  1.5100
 5929TIP3   OH239201   5.844   4.684   4.709  0.2871  0.0842 -0.6007
 5929TIP3    H139202   5.939   4.693   4.717  0.3381  0.5576 -1.6831
 5929TIP3    H239203   5.815   4.766   4.670 -0.7724  0.5916  1.1745
 5930TIP3   OH239204   5.085   4.809   2.695  0.1492 -0.1991 -0.3310
 5930TIP3    H139205   5.143   4.853   2.632  1.5557  1.9151  2.3266
 5930TIP3    H239206   5.144   4.751   2.743 -0.5429 -0.3664  0.3090
 5931TIP3   OH239207   3.924   2.079   0.751  0.4245  0.1360 -0.3624
 5931TIP3    H139208   3.929   2.174   0.758  0.6201  0.1874 -1.1390
 5931TIP3    H239209   3.830   2.060   0.760  0.4296  0.3642  0.1965
 5932TIP3   OH239210   1.111   4.674   1.755 -0.0407 -0.2542 -0.4776
 5932TIP3    H139211   1.162   4.646   1.831 -1.8297 -0.6243  0.6265
 5932TIP3    H239212   1.082   4.593   1.715 -0.7802 -0.0354 -0.3858
 5933TIP3   OH239213   6.776   6.149  16.573 -0.6352  0.0990  0.1092
 5933TIP3    H139214   6.856   6.177  16.616 -0.6966 -1.1505  1.0699
 5933TIP3    H239215   6.733   6.231  16.547  1.2842  0.7603 -1.0702
 5934TIP3   OH239216   5.940   6.032   5.749  0.5382 -0.4556 -0.1800
 5934TIP3    H139217   5.949   6.068   5.838  0.2719  2.1294 -1.1622
 5934TIP3    H239218   6.025   6.047   5.708 -0.2822  1.1532 -1.3379
 5935TIP3   OH239219   4.993   0.195   6.728  1.0666 -0.0350 -0.1779
 5935TIP3    H139220   4.943   0.189   6.647  2.5985  1.9864 -1.3140
 5935TIP3    H239221   4.996   0.106   6.762 -0.3846 -0.7360 -1.8591
 5936TIP3   OH239222   6.230   6.504   3.424  0.1895  0.6774  0.0516
 5936TIP3    H139223   6.140   6.532   3.403 -0.4744 -1.1404  0.3563
 5936TIP3    H239224   6.218   6.433   3.487  1.9132  1.3991  1.2230
 5937TIP3   OH239225   4.100   3.479   4.434  0.1127 -0.0704 -0.4085
 5937TIP3    H139226   4.104   3.573   4.417  0.9976  0.1706  1.0003
 5937TIP3    H239227   4.192   3.453   4.444 -0.1917 -0.7945  0.6265
 5938TIP3   OH239228   2.478   4.467   6.506  0.7513  0.0052  1.0821
 5938TIP3    H139229   2.465   4.463   6.601 -0.0141 -1.3873  0.9393
 5938TIP3    H239230   2.570   4.445   6.494  1.0527  0.9980  1.5526
 5939TIP3   OH239231   1.449   5.501  17.109 -0.0830  0.4084  0.2457
 5939TIP3    H139232   1.421   5.558  17.181 -0.5237 -0.4855  0.7886
 5939TIP3    H239233   1.539   5.479  17.130 -0.1949  0.1898  0.5016
 5940TIP3   OH239234   6.522   0.485   0.508 -0.3151  0.2023  0.0149
 5940TIP3    H139235   6.611   0.513   0.532 -0.2406 -0.8088  0.9297
 5940TIP3    H239236   6.533   0.397   0.472 -0.7286  0.7876 -1.6148
 5941TIP3   OH239237   4.071   1.404  17.191 -0.1760  0.2655 -0.2011
 5941TIP3    H139238   4.107   1.491  17.206  0.3078 -0.3834  2.8505
 5941TIP3    H239239   4.124   1.368  17.120 -0.5424  2.5032 -1.6802
 5942TIP3   OH239240   5.284   5.292   2.465 -0.3192  0.1668 -0.4068
 5942TIP3    H139241   5.258   5.354   2.534 -3.6874  0.5032 -1.8468
 5942TIP3    H239242   5.362   5.330   2.426  0.6568  0.8287  2.1346
 5943TIP3   OH239243   1.748   2.098  15.931 -0.3115  0.5238  0.0279
 5943TIP3    H139244   1.818   2.133  15.985  0.3589 -0.0128 -0.4929
 5943TIP3    H239245   1.683   2.065  15.993  0.4114 -0.0002  0.5019
 5944TIP3   OH239246   1.958   4.094   5.231 -0.4420 -0.1421 -0.0096
 5944TIP3    H139247   1.971   4.159   5.162 -2.2023  0.4003  0.1465
 5944TIP3    H239248   1.931   4.014   5.186 -0.3029 -0.1665 -0.0492
 5945TIP3   OH239249   2.321   1.691  11.939  0.1600 -0.0597  0.3726
 5945TIP3    H139250   2.340   1.599  11.919 -1.8518 -0.6368  0.9506
 5945TIP3    H239251   2.338   1.698  12.033 -0.4409 -0.0438  0.4789
 5946TIP3   OH239252   0.471   1.118   1.028 -0.4513 -0.6722 -0.0411
 5946TIP3    H139253   0.536   1.103   0.960 -0.9419 -0.5790 -0.5284
 5946TIP3    H239254   0.389   1.131   0.981 -0.5157  0.9048  0.4928
 5947TIP3   OH239255   1.138   4.868   3.687 -0.2825 -0.3359 -0.5658
 5947TIP3    H139256   1.159   4.847   3.596 -1.3317  0.4194 -0.9911
 5947TIP3    H239257   1.058   4.920   3.681 -1.9681 -2.6299  0.9403
 5948TIP3   OH239258   3.963   3.445   4.708  0.0160  0.2508 -0.0820
 5948TIP3    H139259   3.998   3.404   4.629 -2.3416  3.2360 -2.7738
 5948TIP3    H239260   4.023   3.517   4.727  1.6367 -1.5759  2.0402
 5949TIP3   OH239261   4.972   3.275   1.487 -0.3963 -0.2475  0.1721
 5949TIP3    H139262   5.064   3.298   1.474 -0.5310 -0.8582 -2.2652
 5949TIP3    H239263   4.974   3.191   1.532  0.2220  0.2785  1.1211
 5950TIP3   OH239264   5.589   1.436   3.728 -0.2761 -0.4786  0.2872
 5950TIP3    H139265   5.651   1.380   3.681  0.2906  0.0074  0.4461
 5950TIP3    H239266   5.544   1.376   3.789  0.2339 -0.7862  0.3681
 5951TIP3   OH239267   2.007   5.094   5.857 -0.3448  0.7423  0.1896
 5951TIP3    H139268   1.943   5.088   5.927 -0.5557  1.4272  0.0544
 5951TIP3    H239269   2.077   5.034   5.883 -1.9747 -1.5704 -0.6570
 5952TIP3   OH239270   3.989   4.703  11.872 -0.0295  0.0262 -0.1057
 5952TIP3    H139271   4.083   4.719  11.872  0.1191 -0.7601  0.7704
 5952TIP3    H239272   3.949   4.789  11.859  0.8045  0.4668  0.2305
 5953TIP3   OH239273   3.818   4.610  12.639 -0.0314  0.0462  0.2891
 5953TIP3    H139274   3.820   4.531  12.692  2.5333 -0.0731  0.0872
 5953TIP3    H239275   3.777   4.676  12.694 -1.0279 -1.0932  0.9207
 5954TIP3   OH239276   2.030   4.192  13.807  0.1152  0.1113 -0.7910
 5954TIP3    H139277   2.097   4.177  13.740  0.6694  1.8897 -0.6783
 5954TIP3    H239278   1.952   4.147  13.774  0.4333  0.8150 -2.5559
 5955TIP3   OH239279   3.410   2.071  12.504  0.3018  0.2029 -0.6272
 5955TIP3    H139280   3.416   2.166  12.509 -0.9334  0.2461  0.1720
 5955TIP3    H239281   3.316   2.053  12.500  0.4411 -1.0504  1.0176
 5956TIP3   OH239282   4.881   2.625   3.116  0.4814  0.0977 -0.3819
 5956TIP3    H139283   4.969   2.631   3.081  0.3120 -1.5057 -1.1285
 5956TIP3    H239284   4.830   2.584   3.047 -0.8023  0.7769  0.1409
 5957TIP3   OH239285   5.178   5.825  10.841 -0.0407  0.4514 -0.0951
 5957TIP3    H139286   5.167   5.748  10.785  0.7923 -1.5564  2.4313
 5957TIP3    H239287   5.272   5.829  10.859 -0.0884  1.9924 -0.0634
 5958TIP3   OH239288   6.148   3.901  12.867  0.7666  1.0423  0.1208
 5958TIP3    H139289   6.111   3.853  12.794 -0.4627 -0.7191  1.8612
 5958TIP3    H239290   6.073   3.940  12.911  1.4283  1.4317  0.9299
 5959TIP3   OH239291   1.869   4.491  13.055  0.1634 -0.1835  0.0737
 5959TIP3    H139292   1.777   4.467  13.059  0.2300 -0.3208  0.7825
 5959TIP3    H239293   1.876   4.572  13.106  0.5793 -0.6230  0.7264
 5960TIP3   OH239294   3.709   6.727   3.615 -0.6066  0.4329  0.6394
 5960TIP3    H139295   3.766   6.795   3.649 -0.0345  0.5664 -0.5584
 5960TIP3    H239296   3.628   6.735   3.666 -0.4029  1.7579  0.7529
 5961TIP3   OH239297   1.647   1.303  13.661  0.0767  0.0672  0.1493
 5961TIP3    H139298   1.674   1.394  13.671  1.3009 -0.4429  1.8331
 5961TIP3    H239299   1.711   1.265  13.601  0.3117  0.0072  0.4384
 5962TIP3   OH239300   1.360   3.014   2.143 -0.0441  0.6640 -0.1138
 5962TIP3    H139301   1.333   3.105   2.158  0.7094  0.5503  2.1727
 5962TIP3    H239302   1.360   2.975   2.230  1.8285 -0.9183 -0.7956
 5963TIP3   OH239303   0.861   1.625  14.222  0.4749  0.0390  0.2559
 5963TIP3    H139304   0.918   1.591  14.291 -1.5713 -1.5841  1.2042
 5963TIP3    H239305   0.920   1.644  14.149  2.5481  0.8591  2.0923
 5964TIP3   OH239306   5.420   5.513  16.483 -0.6674  0.4926  0.3578
 5964TIP3    H139307   5.415   5.596  16.436 -2.2302 -0.2153 -0.7698
 5964TIP3    H239308   5.430   5.447  16.414 -1.7076 -0.4457  1.0812
 5965TIP3   OH239309   2.581   1.651   6.037  0.3951  0.2722 -0.4942
 5965TIP3    H139310   2.657   1.592   6.045  0.3926  0.1127 -1.5580
 5965TIP3    H239311   2.551   1.664   6.127  0.7394 -0.9130 -0.2012
 5966TIP3   OH239312   0.965   1.974   3.914 -0.3298 -0.0986  0.2522
 5966TIP3    H139313   0.910   1.901   3.939 -0.5151 -0.0204  0.0728
 5966TIP3    H239314   1.007   1.947   3.832  0.5911 -0.5184  0.8502
 5967TIP3   OH239315   5.626   0.288  16.823  0.1982 -0.2412 -0.4231
 5967TIP3    H139316   5.719   0.284  16.799  0.5366  2.7293  0.2042
 5967TIP3    H239317   5.580   0.253  16.747  1.7824 -0.9557 -1.0861
 5968TIP3   OH239318   2.516   2.883   2.395  0.4018  0.1445  0.1040
 5968TIP3    H139319   2.606   2.883   2.363  0.6332  0.9612  0.7234
 5968TIP3    H239320   2.469   2.940   2.334  0.2171 -0.5897 -0.4437
 5969TIP3   OH239321   0.999   0.359   6.080 -0.2831  0.5889  0.9309
 5969TIP3    H139322   0.932   0.426   6.095  0.6907  1.4301  1.5934
 5969TIP3    H239323   1.079   0.408   6.066  0.6087 -0.4641  2.2347
 5970TIP3   OH239324   1.998   2.364  13.177 -0.0266  0.2173  0.4155
 5970TIP3    H139325   2.044   2.425  13.119 -1.3273  1.0348  0.2114
 5970TIP3    H239326   2.014   2.278  13.139  0.6318  0.5713 -0.1265
 5971TIP3   OH239327   1.200   6.559  12.300 -0.4031 -0.2281 -1.1884
 5971TIP3    H139328   1.258   6.619  12.253 -1.3927  0.6250 -1.3396
 5971TIP3    H239329   1.228   6.566  12.391  1.3208 -1.6613 -1.5704
 5972TIP3   OH239330   0.704   4.111   6.350  0.3160  0.1725 -0.0808
 5972TIP3    H139331   0.610   4.093   6.358  0.5547 -0.8616  0.5372
 5972TIP3    H239332   0.725   4.087   6.259  0.1661 -0.5029  0.0585
 5973TIP3   OH239333   0.595   2.170   4.643  0.0173 -0.3055  0.0838
 5973TIP3    H139334   0.645   2.130   4.714  0.4772  0.1314  0.0118
 5973TIP3    H239335   0.660   2.187   4.575  0.0473  1.5369  0.5279
 5974TIP3   OH239336   3.383   2.617   0.548  0.0001 -0.3590  0.4886
 5974TIP3    H139337   3.457   2.670   0.520  0.2526 -1.9402 -2.0322
 5974TIP3    H239338   3.320   2.679   0.583  0.8253  1.4760 -1.1840
 5975TIP3   OH239339   5.524   5.232  14.759  0.3118  0.0793  0.5681
 5975TIP3    H139340   5.518   5.293  14.832 -2.1658  0.8973 -0.2780
 5975TIP3    H239341   5.453   5.170  14.774  0.7657 -0.6614 -0.3229
 5976TIP3   OH239342   1.911   1.573  13.115 -0.2797  0.7207 -0.0352
 5976TIP3    H139343   2.002   1.568  13.086  0.1155  0.7545  1.1419
 5976TIP3    H239344   1.859   1.567  13.035  0.7109 -1.0088 -0.5704
 5977TIP3   OH239345   5.633   5.085   1.575  0.2583 -0.2446  0.3446
 5977TIP3    H139346   5.682   5.039   1.643 -0.1882 -1.2216  0.0216
 5977TIP3    H239347   5.594   5.015   1.523 -1.2249  0.5271  0.4070
 5978TIP3   OH239348   3.674   1.357  16.421 -0.7126  0.1823  0.6894
 5978TIP3    H139349   3.610   1.425  16.398  1.0394  1.0738 -1.7570
 5978TIP3    H239350   3.758   1.402  16.420  0.3938 -1.8287 -0.1836
 5979TIP3   OH239351   1.740   0.292   5.131 -0.1378 -0.0003 -0.4520
 5979TIP3    H139352   1.823   0.267   5.172  1.0886  0.9589 -2.2801
 5979TIP3    H239353   1.692   0.339   5.199  1.2020  0.2094  0.3614
 5980TIP3   OH239354   2.869   2.638   2.287 -0.5503  0.7048 -0.1021
 5980TIP3    H139355   2.840   2.609   2.374  1.4679  1.0888  0.7156
 5980TIP3    H239356   2.964   2.635   2.291 -0.4201  1.6988 -1.9838
 5981TIP3   OH239357   1.361   5.884   1.003  0.2760  0.1204 -0.7045
 5981TIP3    H139358   1.433   5.936   1.039 -2.0933  3.8625 -1.1164
 5981TIP3    H239359   1.380   5.878   0.909  1.5515 -1.5444 -0.3763
 5982TIP3   OH239360   5.304   4.099   2.139 -0.4911  0.2498  0.8599
 5982TIP3    H139361   5.210   4.104   2.126 -0.4335 -0.9154 -0.0507
 5982TIP3    H239362   5.332   4.022   2.089  0.7421 -0.2196  2.2327
 5983TIP3   OH239363   5.201   3.326  13.300  0.1587 -0.1205  0.1458
 5983TIP3    H139364   5.169   3.349  13.387 -0.6221  0.1564 -0.2057
 5983TIP3    H239365   5.132   3.270  13.263 -0.7041  1.7841 -1.2262
 5984TIP3   OH239366   4.777   5.916  11.062  0.1235  0.4496  0.1015
 5984TIP3    H139367   4.809   5.856  10.995  3.9576  1.5672  0.7692
 5984TIP3    H239368   4.733   5.986  11.013 -0.4322 -0.6362 -0.9653
 5985TIP3   OH239369   0.530   3.361   4.738 -0.0447  0.6526  0.2929
 5985TIP3    H139370   0.597   3.295   4.757 -1.2756 -0.9750 -0.8320
 5985TIP3    H239371   0.532   3.420   4.813  2.1668  0.2431  0.5912
 5986TIP3   OH239372   3.466   1.430   2.090 -0.0354  0.2017  0.2753
 5986TIP3    H139373   3.389   1.378   2.068 -0.3474  0.9516 -0.4350
 5986TIP3    H239374   3.431   1.502   2.144 -0.0281  1.2575 -1.1052
 5987TIP3   OH239375   6.612   2.073  12.939  0.2530 -0.0906 -0.4023
 5987TIP3    H139376   6.582   2.026  13.016 -2.1000  3.0981  0.7159
 5987TIP3    H239377   6.532   2.108  12.899  1.8507  2.4971 -1.4587
 5988TIP3   OH239378   5.409   2.694  12.770  0.2448  0.1424  0.2786
 5988TIP3    H139379   5.316   2.683  12.748  0.6601  0.9064 -1.9481
 5988TIP3    H239380   5.414   2.777  12.816 -0.1636  0.1444  0.3180
 5989TIP3   OH239381   0.890   5.180  12.863  0.2919 -0.3550  0.3498
 5989TIP3    H139382   0.803   5.168  12.826  0.5323  2.7398 -1.4098
 5989TIP3    H239383   0.876   5.189  12.957 -1.9049  4.5021 -0.2823
 5990TIP3   OH239384   5.435   4.565   5.354 -0.3013  0.3986  0.1131
 5990TIP3    H139385   5.397   4.618   5.284  0.8875  1.4940  0.2887
 5990TIP3    H239386   5.427   4.475   5.322 -3.0022  0.5845  0.1347
 5991TIP3   OH239387   6.133   1.247  15.494  0.1644  0.9017 -0.0228
 5991TIP3    H139388   6.081   1.304  15.437  0.5647  1.5039  0.2076
 5991TIP3    H239389   6.207   1.218  15.440 -1.1679 -1.1504 -0.8155
 5992TIP3   OH239390   4.616   5.614   3.525  0.2174  0.1950  0.4960
 5992TIP3    H139391   4.599   5.675   3.453 -2.0250 -2.1673 -1.0815
 5992TIP3    H239392   4.547   5.632   3.589 -1.2830 -1.5530 -0.5945
 5993TIP3   OH239393   2.118   3.153  16.283  0.8407  0.1586 -0.1609
 5993TIP3    H139394   2.202   3.145  16.238  1.2622 -0.2733  0.6792
 5993TIP3    H239395   2.090   3.062  16.296  1.1113  0.2364  1.1231
 5994TIP3   OH239396   2.318   5.745  11.552 -0.5491 -0.2336  0.6418
 5994TIP3    H139397   2.342   5.700  11.472 -0.8052  0.9055 -0.0794
 5994TIP3    H239398   2.396   5.739  11.608 -0.1369 -0.4186  0.0459
 5995TIP3   OH239399   6.119   4.674   4.763  0.0224  0.1311 -0.4610
 5995TIP3    H139400   6.136   4.600   4.706 -1.9799 -0.6085 -0.1622
 5995TIP3    H239401   6.191   4.674   4.826 -0.4928 -2.1923  0.1583
 5996TIP3   OH239402   1.237   3.759   4.270 -0.3079 -0.2877  0.0798
 5996TIP3    H139403   1.318   3.729   4.312  0.3622 -0.4374 -1.2670
 5996TIP3    H239404   1.167   3.728   4.327  0.4618 -2.6617 -0.2137
 5997TIP3   OH239405   1.345   0.630  16.970  0.4371 -0.3949 -0.3245
 5997TIP3    H139406   1.360   0.536  16.961  1.3720 -0.3023  0.2711
 5997TIP3    H239407   1.251   0.637  16.988  0.3159 -1.1948 -0.6182
 5998TIP3   OH239408   6.368   0.425  15.055  0.1132 -0.1696 -0.2752
 5998TIP3    H139409   6.446   0.371  15.045 -0.7701 -1.7273  1.1231
 5998TIP3    H239410   6.303   0.384  14.998 -0.4628 -0.4020  0.5414
 5999TIP3   OH239411   6.160   1.449  15.708 -0.2733  0.3223  0.3756
 5999TIP3    H139412   6.210   1.399  15.772 -0.9317 -0.2451  0.4515
 5999TIP3    H239413   6.190   1.416  15.623 -0.2113  0.2950  0.4084
 6000TIP3   OH239414   4.724   5.737   1.881 -0.5071 -0.5142 -0.4267
 6000TIP3    H139415   4.788   5.725   1.951 -1.1399 -0.1357  0.2166
 6000TIP3    H239416   4.662   5.665   1.893  0.3420 -1.4798 -1.6633
 6001TIP3   OH239417   0.169   4.873   1.040  0.3545 -0.3466 -0.2601
 6001TIP3    H139418   0.110   4.823   0.984 -1.7068  2.3857 -0.6492
 6001TIP3    H239419   0.239   4.902   0.980  0.4494 -0.9840 -0.4667
 6002TIP3   OH239420   2.066   1.251  12.184 -0.2592  0.0349  0.2818
 6002TIP3    H139421   2.073   1.347  12.176  1.6210 -0.0855  0.2626
 6002TIP3    H239422   2.060   1.235  12.278  1.2981  0.0774  0.4015
 6003TIP3   OH239423   6.077   0.715   3.646 -0.7104 -0.6185 -0.4602
 6003TIP3    H139424   6.153   0.764   3.617  0.5002 -2.1081  0.1336
 6003TIP3    H239425   6.013   0.726   3.576  0.1737  0.3392 -1.1247
 6004TIP3   OH239426   2.673   2.541   1.562  0.0127  0.0991  0.3344
 6004TIP3    H139427   2.662   2.465   1.505 -0.6041  2.0969 -2.3375
 6004TIP3    H239428   2.766   2.560   1.559  0.2747 -0.9516  1.5706
 6005TIP3   OH239429   4.607   0.176  15.722  0.1749  0.2151 -0.2744
 6005TIP3    H139430   4.558   0.110  15.672 -0.0430 -0.7029  1.1312
 6005TIP3    H239431   4.560   0.258  15.706 -1.6444 -0.5950  0.7956
 6006TIP3   OH239432   4.073   4.912  12.296 -0.1751 -0.0206  0.3166
 6006TIP3    H139433   4.097   4.945  12.383  0.3016 -0.8794  0.5233
 6006TIP3    H239434   4.129   4.835  12.284 -1.2569 -0.7387 -0.1439
 6007TIP3   OH239435   2.410   3.913  14.821  0.7947 -0.6430  0.0720
 6007TIP3    H139436   2.400   3.824  14.855  1.7854 -1.0658 -0.7102
 6007TIP3    H239437   2.412   3.902  14.726 -0.9915  0.4245 -0.1054
 6008TIP3   OH239438   0.576   1.365   2.692 -0.1022  0.0065  0.0316
 6008TIP3    H139439   0.524   1.287   2.673 -0.6391  0.6781 -1.3422
 6008TIP3    H239440   0.538   1.433   2.636  0.4421  1.2196  1.1307
 6009TIP3   OH239441   2.858   0.206  10.118  0.5629  0.0853  0.2303
 6009TIP3    H139442   2.835   0.287  10.073  1.4303  0.2617  0.0950
 6009TIP3    H239443   2.919   0.162  10.059 -0.0534 -0.7615  0.2158
 6010TIP3   OH239444   4.289   5.267  16.234 -0.4329  0.3642  0.2912
 6010TIP3    H139445   4.221   5.313  16.185 -1.2871 -0.0243  1.0926
 6010TIP3    H239446   4.241   5.206  16.291  0.5310  0.9490  1.7581
 6011TIP3   OH239447   2.813   3.197   1.072 -0.4407  0.1037 -0.7794
 6011TIP3    H139448   2.779   3.279   1.109 -0.2042 -0.7920  1.4919
 6011TIP3    H239449   2.746   3.170   1.009 -2.1147  0.3782  0.8232
 6012TIP3   OH239450   2.170   2.265  11.218 -0.4033  0.5637  0.4718
 6012TIP3    H139451   2.221   2.230  11.145  0.5778  0.9513  0.9500
 6012TIP3    H239452   2.204   2.219  11.295 -1.6002 -0.0256  0.6630
 6013TIP3   OH239453   6.344   2.287  14.257 -0.2927  0.0943 -0.2676
 6013TIP3    H139454   6.281   2.308  14.326  0.9982  0.8950  0.6776
 6013TIP3    H239455   6.310   2.333  14.180 -0.3339  1.3333  0.4794
 6014TIP3   OH239456   3.276   5.399  11.690 -0.2546 -0.1130 -0.2460
 6014TIP3    H139457   3.239   5.487  11.685 -1.3137 -0.6050 -1.4713
 6014TIP3    H239458   3.315   5.394  11.777  1.0649  2.0420 -0.6808
 6015TIP3   OH239459   1.652   6.435   4.400  0.3390 -0.2601 -0.2850
 6015TIP3    H139460   1.589   6.507   4.393 -1.0312 -1.0871  2.4527
 6015TIP3    H239461   1.676   6.433   4.493  2.4155 -1.6461 -0.8119
 6016TIP3   OH239462   6.683   0.832   0.186  0.4910 -0.0579  0.1744
 6016TIP3    H139463   6.690   0.814   0.280  0.7406 -1.6941 -0.1449
 6016TIP3    H239464   6.590   0.819   0.166  0.7015 -1.1861 -0.0902
 6017TIP3   OH239465   0.135   4.093  14.956 -0.0570 -0.6994 -0.0375
 6017TIP3    H139466   0.214   4.145  14.965 -1.3664  1.1266  1.3341
 6017TIP3    H239467   0.072   4.152  14.913 -1.9348 -0.6798  2.6231
 6018TIP3   OH239468   5.511   1.897  13.346 -0.0444  0.5163  0.0545
 6018TIP3    H139469   5.550   1.954  13.280 -1.2227  0.9390 -0.2754
 6018TIP3    H239470   5.419   1.923  13.350 -1.0081 -2.5390 -1.3278
 6019TIP3   OH239471   1.535   6.445   1.940  0.4425  0.6926 -0.2026
 6019TIP3    H139472   1.571   6.381   2.001  0.9241  1.7146  0.5811
 6019TIP3    H239473   1.546   6.530   1.983  1.0289  1.4543 -1.8156
 6020TIP3   OH239474   1.602   0.877  14.108 -0.2050  0.4909 -0.2542
 6020TIP3    H139475   1.608   0.938  14.035 -1.4101  1.8293  0.7321
 6020TIP3    H239476   1.655   0.916  14.177 -0.3755  0.0479  0.1331
 6021TIP3   OH239477   6.051   4.948   4.118 -0.1318  0.4481 -0.5565
 6021TIP3    H139478   6.115   4.890   4.077  0.5444  1.0698 -0.4032
 6021TIP3    H239479   6.104   5.016   4.160 -0.8205  0.1091  0.9266
 6022TIP3   OH239480   3.140   2.131  16.237 -0.1572  0.1124 -0.4674
 6022TIP3    H139481   3.174   2.185  16.166  0.1540  1.4053  0.6384
 6022TIP3    H239482   3.196   2.054  16.238  0.0456  0.2512 -1.4088
 6023TIP3   OH239483   5.950   5.002  12.237 -0.1925  0.1567 -0.4382
 6023TIP3    H139484   5.939   4.908  12.255  1.5711 -0.5366 -2.6984
 6023TIP3    H239485   5.934   5.011  12.143  0.0899  2.0412 -0.3245
 6024TIP3   OH239486   1.480   2.785   4.196  0.1607  0.8670  0.1418
 6024TIP3    H139487   1.467   2.728   4.272 -0.9484  0.5691 -0.2658
 6024TIP3    H239488   1.428   2.863   4.215  3.0885  2.5712  1.5220
 6025TIP3   OH239489   3.597   5.374  14.315 -0.3218 -0.0659 -0.1072
 6025TIP3    H139490   3.619   5.433  14.386 -1.5549 -0.2955  0.4845
 6025TIP3    H239491   3.583   5.289  14.357 -2.7974  0.1837 -0.3486
 6026TIP3   OH239492   3.719   4.339  14.214 -0.0330  0.1376  0.9394
 6026TIP3    H139493   3.646   4.352  14.154  0.7225  2.1863  0.4256
 6026TIP3    H239494   3.743   4.247  14.203 -2.0400 -0.3683  0.5767
 6027TIP3   OH239495   6.768   4.930  10.822  0.2463 -0.2133 -0.2490
 6027TIP3    H139496   6.784   5.022  10.841 -1.5058  0.3443 -1.3307
 6027TIP3    H239497   6.836   4.905  10.759 -0.8598  1.0908 -1.9955
 6028TIP3   OH239498   1.020   4.495   1.201 -0.3696  0.2221 -0.1995
 6028TIP3    H139499   1.046   4.473   1.112  0.8000 -2.1123  0.6658
 6028TIP3    H239500   0.957   4.427   1.225  1.3842 -0.7810  1.6848
 6029TIP3   OH239501   0.920   3.859  11.271 -0.1187 -0.1102  0.0631
 6029TIP3    H139502   0.971   3.909  11.207 -0.9875  0.1816 -0.4108
 6029TIP3    H239503   0.829   3.875  11.246 -0.5087  0.9571  2.0788
 6030TIP3   OH239504   3.182   1.703  16.960 -0.3125 -0.3523 -0.0081
 6030TIP3    H139505   3.195   1.641  16.888 -2.0616 -1.2988  0.4397
 6030TIP3    H239506   3.173   1.647  17.037 -1.3475  0.4863  0.4838
 6031TIP3   OH239507   0.132   1.111  10.444 -0.1887  0.4997  0.4621
 6031TIP3    H139508   0.192   1.183  10.425  0.0359 -0.0234 -0.8259
 6031TIP3    H239509   0.053   1.154  10.478  0.9386  1.1920  2.3377
 6032TIP3   OH239510   6.068   4.266   5.089 -0.4624 -0.2213 -0.1186
 6032TIP3    H139511   6.161   4.261   5.066 -0.2222  1.3764  0.4670
 6032TIP3    H239512   6.037   4.347   5.049 -1.4246 -0.3302  0.3729
 6033TIP3   OH239513   5.837   6.783   3.991 -0.6554 -0.1329  0.5598
 6033TIP3    H139514   5.890   6.791   4.071 -0.9935 -1.4307  0.9348
 6033TIP3    H239515   5.862   6.697   3.955 -0.6202  0.3746 -0.6517
 6034TIP3   OH239516   0.474   1.823  14.268  0.0358 -0.1986  0.0286
 6034TIP3    H139517   0.514   1.908  14.288  0.8026 -0.9130  1.5525
 6034TIP3    H239518   0.390   1.846  14.228 -0.3235  1.2809  1.5827
 6035TIP3   OH239519   2.738   6.604  14.037  0.0698 -0.2279  0.9426
 6035TIP3    H139520   2.771   6.537  14.097  1.8575  1.1590  1.5306
 6035TIP3    H239521   2.788   6.591  13.956 -1.0624 -0.9331  0.3428
 6036TIP3   OH239522   0.551   2.881   4.680  0.3464 -0.1722  0.1650
 6036TIP3    H139523   0.461   2.886   4.713 -0.0752  1.7824 -1.2234
 6036TIP3    H239524   0.554   2.799   4.631 -1.0487  0.3508 -0.8145
 6037TIP3   OH239525   1.863   0.701   4.404  0.2115  0.5714 -0.0757
 6037TIP3    H139526   1.941   0.702   4.460 -0.5702  0.0134  1.0605
 6037TIP3    H239527   1.835   0.793   4.401  0.0528  0.5547  0.7636
 6038TIP3   OH239528   0.912   1.817  11.292  0.3201 -0.3178 -0.0569
 6038TIP3    H139529   0.871   1.900  11.318 -0.9821 -0.0535 -2.7580
 6038TIP3    H239530   0.979   1.801  11.359 -1.4335  1.3600  2.1638
 6039TIP3   OH239531   1.011   6.269   0.232  0.2059  0.3691 -0.1969
 6039TIP3    H139532   1.002   6.211   0.308  2.6534 -0.2084 -0.3291
 6039TIP3    H239533   0.925   6.265   0.190 -0.0605 -2.1915  0.4850
 6040TIP3   OH239534   6.754   1.313   6.424  0.0354 -0.0829  0.2502
 6040TIP3    H139535   6.668   1.336   6.459  0.5088 -1.8097  2.7248
 6040TIP3    H239536   6.737   1.238   6.366  0.0676 -1.8866  2.4756
 6041TIP3   OH239537   4.885   2.613  15.812 -0.2705 -0.1733 -0.5416
 6041TIP3    H139538   4.867   2.524  15.841 -2.2450  0.3473 -0.1227
 6041TIP3    H239539   4.935   2.652  15.883 -0.1822 -0.6612 -0.3327
 6042TIP3   OH239540   3.585   6.013  14.784 -0.2816  0.4236  0.5344
 6042TIP3    H139541   3.624   5.945  14.730  2.5412  1.2830  1.4080
 6042TIP3    H239542   3.499   6.030  14.745  1.4954  0.7424 -3.3988
 6043TIP3   OH239543   2.546   6.202   1.280  0.7768  0.2410 -0.3970
 6043TIP3    H139544   2.501   6.181   1.198  1.4662 -0.2471 -0.6571
 6043TIP3    H239545   2.636   6.221   1.254  1.5311 -1.9587  0.4476
 6044TIP3   OH239546   0.896   4.049  12.605  0.3244  0.2000 -0.6310
 6044TIP3    H139547   0.948   3.982  12.561 -0.5707 -0.4010 -0.7726
 6044TIP3    H239548   0.808   4.039  12.569 -0.3879 -0.1998  1.2034
 6045TIP3   OH239549   3.633   4.133   1.167 -0.3637  0.1979 -0.5510
 6045TIP3    H139550   3.658   4.132   1.259  1.0785 -1.4289 -0.9178
 6045TIP3    H239551   3.713   4.108   1.121 -1.0436  1.0923 -2.2551
 6046TIP3   OH239552   4.527   0.290  12.341 -0.2198  0.5678  0.0683
 6046TIP3    H139553   4.521   0.371  12.391  1.1206  0.0912  1.0540
 6046TIP3    H239554   4.537   0.221  12.408 -2.7171 -0.5839 -0.6827
 6047TIP3   OH239555   5.702   2.278   0.124  0.2642  0.5365 -0.6912
 6047TIP3    H139556   5.745   2.277   0.038  0.2334  0.5534 -0.7066
 6047TIP3    H239557   5.773   2.260   0.186  0.0240 -1.0882 -0.8460
 6048TIP3   OH239558   3.253   4.156   3.139  0.5629  0.1300  0.6082
 6048TIP3    H139559   3.168   4.123   3.111 -0.1616  1.0322  1.6973
 6048TIP3    H239560   3.254   4.247   3.110  1.5382 -0.1286 -0.2052
 6049TIP3   OH239561   0.381   6.484  11.164 -0.0706  0.5306  0.1449
 6049TIP3    H139562   0.379   6.525  11.077 -0.5088  1.2831  0.5057
 6049TIP3    H239563   0.399   6.392  11.146 -1.4044  0.4386 -0.8365
 6050TIP3   OH239564   6.432   4.975   1.747  0.0215  0.3560 -0.6810
 6050TIP3    H139565   6.523   4.976   1.776  0.0159  1.6958 -0.6929
 6050TIP3    H239566   6.412   4.882   1.735  0.9965 -0.0258  0.5431
 6051TIP3   OH239567   1.305   3.995   1.549 -0.2801 -0.1055 -0.0613
 6051TIP3    H139568   1.304   3.975   1.456  0.2322  2.4377 -0.6434
 6051TIP3    H239569   1.226   3.953   1.583 -1.0086 -0.2036 -1.8242
 6052TIP3   OH239570   1.297   2.946  14.131  0.3732 -0.1594 -0.3299
 6052TIP3    H139571   1.251   3.009  14.185  1.1656 -1.5555  2.0621
 6052TIP3    H239572   1.233   2.878  14.113  0.4953 -0.3705  0.0257
 6053TIP3   OH239573   4.797   1.633  15.941 -0.9186 -0.0846  0.0376
 6053TIP3    H139574   4.726   1.659  15.882  1.0247  3.4621 -0.8926
 6053TIP3    H239575   4.876   1.638  15.886  0.4990 -0.3022  2.0121
 6054TIP3   OH239576   1.087   5.155  14.542  0.4752 -0.1108 -0.4081
 6054TIP3    H139577   1.181   5.141  14.527  0.9394 -1.2751  3.2016
 6054TIP3    H239578   1.083   5.218  14.614 -1.5360  0.6951 -1.2038
 6055TIP3   OH239579   0.144   1.995  15.328 -0.0341 -0.1498 -0.4476
 6055TIP3    H139580   0.227   1.955  15.303 -0.4284 -0.8828 -0.5967
 6055TIP3    H239581   0.117   1.947  15.407  0.8289  1.6460  0.9825
 6056TIP3   OH239582   1.456   3.046  11.582  0.9951  0.2322 -0.3114
 6056TIP3    H139583   1.517   3.015  11.648  0.6095 -0.4815 -0.2862
 6056TIP3    H239584   1.417   2.967  11.546  1.4965  0.5973 -1.6779
 6057TIP3   OH239585   1.887   3.003   2.360  0.7313 -0.1679 -0.0848
 6057TIP3    H139586   1.838   3.021   2.280  1.4319  0.3472 -0.4115
 6057TIP3    H239587   1.836   3.045   2.430 -0.5159 -1.6651 -0.0846
 6058TIP3   OH239588   2.506   0.918  16.520  0.7663 -0.4189 -0.1865
 6058TIP3    H139589   2.454   0.997  16.504  1.3292 -0.0937 -0.4060
 6058TIP3    H239590   2.536   0.891  16.434 -0.1119 -1.3504 -0.2101
 6059TIP3   OH239591   5.703   3.233  11.662  0.1949 -0.4701  0.5913
 6059TIP3    H139592   5.712   3.233  11.757  3.4826 -1.9420  0.3565
 6059TIP3    H239593   5.764   3.300  11.632 -1.2871  0.4325 -0.4811
 6060TIP3   OH239594   2.170   0.530  13.877  0.0492 -0.2509 -0.1919
 6060TIP3    H139595   2.091   0.580  13.857 -0.7981 -1.9941 -1.2842
 6060TIP3    H239596   2.231   0.595  13.912 -2.6048  0.8001  2.7995
 6061TIP3   OH239597   1.374   4.609   5.433  0.4802 -0.4836  0.6277
 6061TIP3    H139598   1.380   4.694   5.476  0.0530 -0.2921  0.3110
 6061TIP3    H239599   1.288   4.575   5.459  1.2953 -1.5232  2.0415
 6062TIP3   OH239600   0.313   5.483  15.353 -0.3893  0.0360 -0.2345
 6062TIP3    H139601   0.233   5.437  15.328 -0.0187  0.5963 -2.5908
 6062TIP3    H239602   0.329   5.544  15.281  1.5729  0.6833  0.7141
 6063TIP3   OH239603   2.355   1.430  11.948  0.0618  0.2180 -1.0527
 6063TIP3    H139604   2.288   1.443  12.015 -1.4734  0.7113 -2.6448
 6063TIP3    H239605   2.383   1.339  11.959  0.3408  0.5081  0.7054
 6064TIP3   OH239606   5.263   3.383   1.457 -0.0502 -0.3650 -0.2415
 6064TIP3    H139607   5.338   3.325   1.465 -0.6445 -0.9947  1.0151
 6064TIP3    H239608   5.231   3.370   1.368  1.2564 -0.1706 -0.7463
 6065TIP3   OH239609   5.653   3.577   0.231 -0.2904  0.1313  0.1597
 6065TIP3    H139610   5.600   3.566   0.311 -1.9233  1.9732 -0.6362
 6065TIP3    H239611   5.718   3.643   0.255 -0.0595 -0.1575  0.3241
 6066TIP3   OH239612   6.668   5.764   4.081  0.2735 -0.2223 -0.7858
 6066TIP3    H139613   6.692   5.684   4.033 -1.0389 -0.4466 -1.0921
 6066TIP3    H239614   6.630   5.821   4.015 -0.0620  0.1058 -0.3152
 6067TIP3   OH239615   6.295   1.769  16.394 -0.7682 -0.5568  0.1705
 6067TIP3    H139616   6.247   1.819  16.460 -0.8214  0.8039 -0.8878
 6067TIP3    H239617   6.377   1.816  16.383 -0.6298 -0.9625 -0.5182
 6068TIP3   OH239618   2.040   0.195   4.762  0.0563  0.1129 -0.3722
 6068TIP3    H139619   1.960   0.234   4.796  0.2879  1.0004 -0.8157
 6068TIP3    H239620   2.016   0.164   4.674  0.1963  0.3832 -0.5072
 6069TIP3   OH239621   3.168   1.481   5.499  0.4808  0.2562 -0.6556
 6069TIP3    H139622   3.079   1.476   5.465  0.8675  0.4832 -1.7224
 6069TIP3    H239623   3.218   1.526   5.430  1.3340  0.4928  0.0998
 6070TIP3   OH239624   1.314   1.677   4.216  0.5651  0.7184  0.0446
 6070TIP3    H139625   1.257   1.601   4.202 -0.1663  0.8969  1.9079
 6070TIP3    H239626   1.333   1.709   4.128  0.7741 -1.5360 -0.7835
 6071TIP3   OH239627   4.621   6.605  15.934 -0.1787  0.1458 -0.1944
 6071TIP3    H139628   4.535   6.615  15.895  0.0701 -2.3252 -1.5017
 6071TIP3    H239629   4.674   6.564  15.866  1.4013 -0.4964  1.3660
 6072TIP3   OH239630   0.514   2.733  13.887 -0.1878  0.1803  0.1022
 6072TIP3    H139631   0.579   2.703  13.823  0.8138  1.0148  0.6905
 6072TIP3    H239632   0.497   2.824  13.861  0.2232  0.5188  1.0010
 6073TIP3   OH239633   1.575   4.015   6.410  0.0986  0.0086 -0.2360
 6073TIP3    H139634   1.534   4.058   6.485 -3.6786  0.1695 -2.2827
 6073TIP3    H239635   1.550   3.923   6.419  1.5550 -0.3800 -0.0872
 6074TIP3   OH239636   4.318   4.567  11.891 -0.0013 -0.5072  0.4861
 6074TIP3    H139637   4.255   4.594  11.957 -3.1066 -0.4421 -2.3806
 6074TIP3    H239638   4.370   4.499  11.933 -1.4618 -0.0035  3.1702
 6075TIP3   OH239639   0.764   2.173  14.486  0.1471  0.8674 -0.0474
 6075TIP3    H139640   0.832   2.108  14.506  0.2837  0.9928 -0.1003
 6075TIP3    H239641   0.693   2.123  14.448 -0.2638  0.5698  1.0826
 6076TIP3   OH239642   0.537   4.878   2.548 -0.0945 -0.5890 -0.5797
 6076TIP3    H139643   0.508   4.825   2.622 -1.2363  0.0937 -0.5256
 6076TIP3    H239644   0.590   4.947   2.587  1.5602 -1.7959 -0.6700
 6077TIP3   OH239645   5.940   4.054   6.361 -0.0869  0.0767 -0.7312
 6077TIP3    H139646   5.880   4.121   6.392  0.3435 -0.6037  1.7170
 6077TIP3    H239647   6.022   4.101   6.344  0.5164  0.1045  1.9168
 6078TIP3   OH239648   5.075   6.463  16.369  0.2374 -0.1660  0.1923
 6078TIP3    H139649   5.067   6.455  16.464 -2.1848  0.2086  0.0514
 6078TIP3    H239650   5.073   6.558  16.353 -0.9814 -0.2680 -0.3316
 6079TIP3   OH239651   4.440   0.496   1.007  0.6174  0.1986 -0.0610
 6079TIP3    H139652   4.424   0.476   0.915  1.3793 -1.4662  0.1570
 6079TIP3    H239653   4.413   0.417   1.054 -1.2442  1.6016  1.3059
 6080TIP3   OH239654   5.285   0.316   3.592 -0.0800 -0.0780 -0.1151
 6080TIP3    H139655   5.215   0.365   3.548 -0.2952  0.9978  1.3687
 6080TIP3    H239656   5.366   0.349   3.552 -0.2842  0.7165  0.1220
 6081TIP3   OH239657   6.263   4.824   3.977  0.0092  0.0432 -0.1445
 6081TIP3    H139658   6.216   4.771   3.912 -1.1165 -1.2504  1.6661
 6081TIP3    H239659   6.329   4.765   4.012 -0.9348 -0.0439  1.5345
 6082TIP3   OH239660   5.834   5.631  11.766  0.4978 -0.0632  0.3343
 6082TIP3    H139661   5.835   5.551  11.818 -1.3911  0.1194  0.6883
 6082TIP3    H239662   5.820   5.601  11.676 -0.0694 -0.1393  0.4479
 6083TIP3   OH239663   4.307   1.356   2.545  0.3697 -0.4023 -0.1343
 6083TIP3    H139664   4.392   1.376   2.508 -0.9859  0.4643 -2.9071
 6083TIP3    H239665   4.292   1.425   2.609  0.7763  0.7521 -1.2705
 6084TIP3   OH239666   3.292   0.577  16.173 -0.5794  0.0152 -0.3683
 6084TIP3    H139667   3.302   0.533  16.089 -2.6129  1.0939 -1.2088
 6084TIP3    H239668   3.315   0.669  16.155 -1.6489  0.3795  0.1006
 6085TIP3   OH239669   3.390   2.840  16.584  0.0511  0.6343  0.2146
 6085TIP3    H139670   3.296   2.853  16.595 -0.1655  1.2770 -2.1377
 6085TIP3    H239671   3.409   2.873  16.496  2.1939 -0.9292  0.0391
 6086TIP3   OH239672   1.732   1.130   2.977  0.4271 -0.1684 -0.2977
 6086TIP3    H139673   1.808   1.136   2.919 -0.9324 -0.3587 -2.1587
 6086TIP3    H239674   1.658   1.157   2.922 -0.9227 -0.4335  1.3429
 6087TIP3   OH239675   1.734   4.312   0.983  0.0019 -0.4506  0.1132
 6087TIP3    H139676   1.753   4.361   0.904 -0.1124 -1.1375 -0.3437
 6087TIP3    H239677   1.701   4.377   1.045 -0.2707  0.0211 -0.5266
 6088TIP3   OH239678   1.472   4.840  14.982  0.0786  0.0733  0.4829
 6088TIP3    H139679   1.448   4.925  14.945  1.2219  1.1756  2.1576
 6088TIP3    H239680   1.557   4.820  14.941  0.2054  0.1511  0.7050
 6089TIP3   OH239681   2.236   5.401   4.013  0.2598 -0.3614 -0.1215
 6089TIP3    H139682   2.163   5.462   4.003  0.4856 -0.4599 -2.5465
 6089TIP3    H239683   2.265   5.413   4.104 -1.7193  0.8376  0.3693
 6090TIP3   OH239684   1.362   3.889   3.592 -0.1290  0.1342  0.2571
 6090TIP3    H139685   1.338   3.815   3.537 -0.7173  0.7361 -0.3060
 6090TIP3    H239686   1.451   3.912   3.564 -0.5826  0.6984 -0.7284
 6091TIP3   OH239687   6.066   3.567  10.962 -0.0778 -0.1770  0.0412
 6091TIP3    H139688   5.991   3.612  10.923  1.5174  2.3437 -0.3058
 6091TIP3    H239689   6.073   3.605  11.050 -0.1298 -1.5435  0.6505
 6092TIP3   OH239690   4.939   6.505   5.118 -0.1278  0.1527  0.0073
 6092TIP3    H139691   4.926   6.413   5.097 -0.5405  0.5773 -1.6572
 6092TIP3    H239692   4.881   6.521   5.193 -0.2963 -0.8504  0.1016
 6093TIP3   OH239693   2.113   0.680  13.483  0.3317  0.3338 -0.1348
 6093TIP3    H139694   2.179   0.611  13.474  0.2096  0.4212 -1.9054
 6093TIP3    H239695   2.038   0.649  13.432 -0.0609  1.3663 -0.2065
 6094TIP3   OH239696   6.113   1.254  14.166  0.3363 -1.0532 -0.0523
 6094TIP3    H139697   6.184   1.219  14.113  1.4923  0.3850  0.5141
 6094TIP3    H239698   6.099   1.343  14.132  0.7368 -0.3050  1.6960
 6095TIP3   OH239699   2.403   3.439   3.478 -0.3063  0.2026 -0.7117
 6095TIP3    H139700   2.446   3.395   3.551 -1.7616 -2.0893 -1.1833
 6095TIP3    H239701   2.340   3.499   3.519 -0.2115 -0.1266 -0.0916
 6096TIP3   OH239702   2.019   0.974  11.605 -0.1299  1.2916  0.3263
 6096TIP3    H139703   1.970   1.055  11.620 -1.6612  0.6482 -0.9563
 6096TIP3    H239704   2.010   0.958  11.511  1.8637  0.6965  0.2263
 6097TIP3   OH239705   1.900   6.495   2.588  0.4107  0.6642  0.8369
 6097TIP3    H139706   1.952   6.468   2.663  1.0014  0.7745  0.4689
 6097TIP3    H239707   1.963   6.507   2.517 -0.1579  0.4114  0.2788
 6098TIP3   OH239708   0.171   5.336  14.684 -0.4253 -0.3089 -0.0927
 6098TIP3    H139709   0.190   5.399  14.753 -0.3346 -0.9839  0.4981
 6098TIP3    H239710   0.088   5.366  14.646 -0.1180  0.4664 -0.1669
 6099TIP3   OH239711   5.972   2.738  11.547  0.2523  0.1725  0.2576
 6099TIP3    H139712   5.955   2.832  11.560  2.6784  0.6698  0.1694
 6099TIP3    H239713   6.059   2.725  11.586 -0.2462 -2.1431  0.6436
 6100TIP3   OH239714   4.695   4.932  11.076  0.7019  0.1312 -0.8106
 6100TIP3    H139715   4.690   4.922  10.981 -1.3646 -2.1786 -0.5072
 6100TIP3    H239716   4.616   4.982  11.099 -0.2678 -1.7094 -0.0506
 6101TIP3   OH239717   1.139   3.108  14.365  0.3431  0.4361  0.4848
 6101TIP3    H139718   1.149   3.045  14.436 -2.7099  0.3973  0.9640
 6101TIP3    H239719   1.185   3.186  14.395 -0.6642  0.3193  2.4056
 6102TIP3   OH239720   1.927   6.715   3.350 -0.1559 -0.0268  0.3019
 6102TIP3    H139721   1.990   6.785   3.365  0.9805 -1.3819  2.0178
 6102TIP3    H239722   1.981   6.638   3.330 -1.2715 -1.0838  1.2916
 6103TIP3   OH239723   5.459   3.019  15.223  0.1890  0.4064  0.0298
 6103TIP3    H139724   5.377   2.998  15.268 -0.6898  1.9724 -0.7833
 6103TIP3    H239725   5.465   3.115  15.229  2.0994  0.2875  0.3025
 6104TIP3   OH239726   0.300   2.267   0.302  0.4162  0.6764 -0.0986
 6104TIP3    H139727   0.215   2.230   0.277  0.5386  0.5028 -0.2573
 6104TIP3    H239728   0.350   2.270   0.221  0.6067  0.6593  0.0176
 6105TIP3   OH239729   1.852   6.609   4.200 -0.0428  0.2368 -0.0656
 6105TIP3    H139730   1.816   6.585   4.115 -0.9837  2.0699 -0.2178
 6105TIP3    H239731   1.827   6.538   4.259 -1.8251  0.3183 -0.7093
 6106TIP3   OH239732   5.359   0.736   2.070  0.1046  0.2691  0.2335
 6106TIP3    H139733   5.286   0.692   2.026  0.2088  0.4120 -0.0908
 6106TIP3    H239734   5.427   0.669   2.076 -0.1988  0.0209  0.9026
 6107TIP3   OH239735   3.251   1.960  16.904 -0.0926  0.0548  0.3617
 6107TIP3    H139736   3.234   1.867  16.920  2.1159 -0.4617 -0.1171
 6107TIP3    H239737   3.267   1.966  16.810  1.3015  0.6589  0.6276
 6108TIP3   OH239738   4.413   5.623   0.656  0.2002 -0.3722 -0.0827
 6108TIP3    H139739   4.415   5.654   0.747  3.2699  0.2983 -0.3136
 6108TIP3    H239740   4.463   5.542   0.658 -0.2829 -0.6934 -1.0629
 6109TIP3   OH239741   3.122   0.871   3.201  0.6349 -0.3686  0.1261
 6109TIP3    H139742   3.074   0.788   3.200  0.4960 -0.2992  0.7504
 6109TIP3    H239743   3.208   0.848   3.237  1.2059 -0.5588 -1.3165
 6110TIP3   OH239744   2.237   3.760   4.022  0.6057 -0.2405 -0.6149
 6110TIP3    H139745   2.256   3.837   3.968 -0.3731 -1.1616 -2.3202
 6110TIP3    H239746   2.289   3.690   3.982  1.5574 -0.4719  0.9759
 6111TIP3   OH239747   2.523   6.358   0.078 -0.4866 -0.3975 -0.0915
 6111TIP3    H139748   2.588   6.300   0.118 -1.1021 -1.6855 -0.9315
 6111TIP3    H239749   2.444   6.345   0.130 -0.0214  1.4377  1.1556
 6112TIP3   OH239750   2.069   0.919  12.806  0.2198 -0.4197  0.4128
 6112TIP3    H139751   2.163   0.935  12.815 -0.2232  1.7696  1.5190
 6112TIP3    H239752   2.053   0.926  12.712  1.0176  0.0686  0.3045
 6113TIP3   OH239753   6.156   3.963  10.864  0.5980  0.5328  0.7146
 6113TIP3    H139754   6.087   3.937  10.804  1.6882  2.0027 -1.2278
 6113TIP3    H239755   6.229   3.904  10.845  1.4508  1.9110 -0.4893
 6114TIP3   OH239756   6.619   5.614  14.502  0.1553 -0.0387 -0.4915
 6114TIP3    H139757   6.628   5.528  14.543  1.5733 -0.1480 -1.0099
 6114TIP3    H239758   6.526   5.636  14.512  0.1491 -0.7967  1.2911
 6115TIP3   OH239759   4.320   0.774  11.499  0.0679 -0.4811  0.0294
 6115TIP3    H139760   4.263   0.762  11.423 -0.1361 -0.1942  0.1374
 6115TIP3    H239761   4.323   0.687  11.540  0.4018 -0.7023 -0.4636
 6116TIP3   OH239762   5.387   4.925   1.861  0.2272  0.3524 -0.0774
 6116TIP3    H139763   5.330   4.851   1.841  0.3245  0.4511 -0.7267
 6116TIP3    H239764   5.329   4.992   1.898  0.1041  0.0443  0.2959
 6117TIP3   OH239765   0.568   3.425  15.427  0.1212 -0.1493  0.2952
 6117TIP3    H139766   0.657   3.389  15.426  0.1028 -0.1767 -0.2496
 6117TIP3    H239767   0.529   3.394  15.346 -0.2369  0.2565  0.3151
 6118TIP3   OH239768   6.765   5.792   5.006 -0.1390 -0.5391 -0.6985
 6118TIP3    H139769   6.783   5.769   4.914  1.1033  0.2279 -0.6639
 6118TIP3    H239770   6.802   5.880   5.016 -0.7363 -0.4084  0.4017
 6119TIP3   OH239771   6.181   6.635  14.739  0.0467  0.6322 -0.1998
 6119TIP3    H139772   6.181   6.553  14.689 -0.4134 -0.8891  2.2348
 6119TIP3    H239773   6.266   6.637  14.782  0.5563  2.0920 -1.2237
 6120TIP3   OH239774   2.492   2.396   0.520  0.4921 -0.5280 -0.7295
 6120TIP3    H139775   2.548   2.473   0.526 -0.4792  0.1826 -0.6773
 6120TIP3    H239776   2.403   2.430   0.531  0.1717 -1.8742  1.0550
 6121TIP3   OH239777   0.124   3.982   5.619  0.0012  0.5607 -0.3561
 6121TIP3    H139778   0.187   3.913   5.640 -0.5631  0.3262  0.5704
 6121TIP3    H239779   0.108   3.972   5.525  0.8977  0.2506 -0.4758
 6122TIP3   OH239780   0.575   5.577  12.647 -0.3962  0.3894  0.1455
 6122TIP3    H139781   0.583   5.542  12.558  1.2048  2.7006 -0.6928
 6122TIP3    H239782   0.602   5.505  12.704  1.0468 -0.3273 -1.3970
 6123TIP3   OH239783   2.217   0.701   3.059 -0.7193 -0.4355 -0.1027
 6123TIP3    H139784   2.166   0.775   3.091 -1.9722 -1.8018  1.1975
 6123TIP3    H239785   2.173   0.674   2.979  0.8796  1.3818 -1.6366
 6124TIP3   OH239786   5.893   4.463   0.541 -0.4262  0.3160  0.3224
 6124TIP3    H139787   5.909   4.373   0.513 -1.2501 -0.1133  1.2157
 6124TIP3    H239788   5.907   4.462   0.635 -1.0329  0.9878  0.4232
 6125TIP3   OH239789   3.797   1.145  11.971  0.0332  0.3205  0.1004
 6125TIP3    H139790   3.858   1.078  12.000  0.7968  1.1343  0.4089
 6125TIP3    H239791   3.790   1.204  12.046 -2.2358 -0.5231  0.5873
 6126TIP3   OH239792   5.837   2.668  12.281 -0.2910 -0.3240 -0.0364
 6126TIP3    H139793   5.813   2.577  12.294 -0.8291 -0.0601  0.9037
 6126TIP3    H239794   5.753   2.715  12.283  0.0217  0.2438 -0.0324
 6127TIP3   OH239795   3.837   4.347   3.447 -0.3328  0.7498 -0.2326
 6127TIP3    H139796   3.898   4.415   3.419  0.4339 -0.7211 -2.2757
 6127TIP3    H239797   3.892   4.271   3.467 -1.3406 -0.0047 -0.2675
 6128TIP3   OH239798   5.595   4.309  11.997  0.0509 -0.1893  0.0508
 6128TIP3    H139799   5.686   4.303  11.968  0.5728 -1.6289  1.9234
 6128TIP3    H239800   5.551   4.235  11.956  0.0283 -0.2718  0.2246
 6129TIP3   OH239801   3.153   4.262   5.900  0.8047 -0.5979 -0.0865
 6129TIP3    H139802   3.068   4.304   5.887  1.7844  1.4270 -0.0953
 6129TIP3    H239803   3.133   4.168   5.901 -1.4945 -0.1401  0.4343
 6130TIP3   OH239804   5.671   3.082   0.809  0.0869  0.4180  0.0998
 6130TIP3    H139805   5.609   3.028   0.859 -0.5260 -0.0113 -1.0935
 6130TIP3    H239806   5.703   3.147   0.872 -0.1415 -0.5386  1.2255
 6131TIP3   OH239807   0.272   1.102   0.857 -0.7552  0.2294  0.1659
 6131TIP3    H139808   0.217   1.023   0.859 -1.5797  0.7336 -1.5601
 6131TIP3    H239809   0.294   1.113   0.765 -0.7152  2.0625  0.3821
 6132TIP3   OH239810   2.672   5.477  16.281  0.0756  0.1566 -0.5177
 6132TIP3    H139811   2.768   5.479  16.275  0.0826 -0.4710 -0.7026
 6132TIP3    H239812   2.653   5.394  16.324 -0.3616  0.5924  0.1249
 6133TIP3   OH239813   1.091   4.244  16.237  0.1718 -0.4060  0.2770
 6133TIP3    H139814   1.046   4.233  16.321  0.2352 -0.0675  0.3565
 6133TIP3    H239815   1.047   4.183  16.178  0.3362 -0.8774  0.6378
 6134TIP3   OH239816   1.447   5.224  11.687  0.1999  0.3314  0.5025
 6134TIP3    H139817   1.360   5.258  11.707 -0.4709 -2.3090  2.2789
 6134TIP3    H239818   1.432   5.164  11.613  0.8906  1.5235 -0.6255
 6135TIP3   OH239819   3.055   3.739   2.098 -0.0631  0.0360 -0.1525
 6135TIP3    H139820   3.069   3.671   2.164  0.5691 -0.4699 -0.7983
 6135TIP3    H239821   2.969   3.718   2.061 -0.3186  0.1877  0.3514
 6136TIP3   OH239822   5.696   0.216   1.624 -0.6077 -0.7580 -0.2508
 6136TIP3    H139823   5.613   0.225   1.671 -1.3389  0.5479 -1.7424
 6136TIP3    H239824   5.685   0.138   1.571 -0.6755 -0.9029 -0.0239
 6137TIP3   OH239825   3.030   1.163  14.603  0.4108  0.4320  0.3716
 6137TIP3    H139826   3.031   1.241  14.658 -1.3507 -0.2521  1.4118
 6137TIP3    H239827   3.087   1.100  14.648  1.0761  0.7871  0.0286
 6138TIP3   OH239828   3.845   5.237   5.978 -0.4753 -0.4502  0.0840
 6138TIP3    H139829   3.847   5.283   6.062  1.7655 -1.6419  0.7258
 6138TIP3    H239830   3.766   5.182   5.981 -0.0407 -0.9935  1.6976
 6139TIP3   OH239831   3.296   4.817   1.991  0.5331 -0.1739  0.6462
 6139TIP3    H139832   3.341   4.879   2.048 -0.6797 -0.0377  1.4712
 6139TIP3    H239833   3.327   4.731   2.021  2.8921  0.0405 -1.0829
 6140TIP3   OH239834   1.779   6.515   3.454  0.1327 -0.3241  0.1047
 6140TIP3    H139835   1.808   6.596   3.411  0.1029 -1.0585 -1.3312
 6140TIP3    H239836   1.762   6.455   3.381 -2.1448 -0.8547  1.0531
 6141TIP3   OH239837   6.767   6.255  15.846 -0.3313  0.1371  0.1499
 6141TIP3    H139838   6.677   6.246  15.815 -0.1787 -0.7820 -0.0264
 6141TIP3    H239839   6.802   6.166  15.846 -0.1999  0.1342  2.5920
 6142TIP3   OH239840   2.916   4.287  10.993 -0.7100 -0.3054  0.5882
 6142TIP3    H139841   2.901   4.377  11.021 -1.7342 -0.4834  0.6435
 6142TIP3    H239842   2.921   4.292  10.897  0.0715 -0.0705  0.6450
 6143TIP3   OH239843   2.403   0.884  14.858 -0.7198 -0.5687 -0.0466
 6143TIP3    H139844   2.352   0.958  14.889 -0.1214 -0.3025  0.3104
 6143TIP3    H239845   2.338   0.814  14.843 -1.5860  0.6892 -2.5093
 6144TIP3   OH239846   6.320   3.523  16.170  0.2497 -0.4433  0.2158
 6144TIP3    H139847   6.227   3.531  16.150  0.4093 -0.0026 -0.3417
 6144TIP3    H239848   6.324   3.520  16.266 -0.3570 -0.7621  0.2326
 6145TIP3   OH239849   0.722   1.983   1.082  0.1590  0.3730 -0.7313
 6145TIP3    H139850   0.719   2.050   1.013  1.2810  0.8357 -0.3620
 6145TIP3    H239851   0.636   1.943   1.082  0.6340 -0.7417 -3.4988
 6146TIP3   OH239852   1.821   3.233   2.857 -0.2193 -0.1093 -0.3060
 6146TIP3    H139853   1.861   3.317   2.836  0.5348 -0.3345  0.1812
 6146TIP3    H239854   1.857   3.210   2.943  0.1582 -1.2733 -0.7577
 6147TIP3   OH239855   5.959   5.110   1.279  1.1093  0.4953 -0.1343
 6147TIP3    H139856   6.031   5.141   1.334  0.1657  1.4241  0.5762
 6147TIP3    H239857   5.890   5.175   1.290 -0.7765 -1.6548  1.1337
 6148TIP3   OH239858   6.450   4.219   2.407  0.2557 -0.9467 -1.0141
 6148TIP3    H139859   6.538   4.239   2.439 -0.1339 -0.3010 -0.3258
 6148TIP3    H239860   6.465   4.166   2.329  1.3356  1.6160 -2.6442
 6149TIP3   OH239861   4.028   2.074   0.032  0.3136 -0.3841 -0.0843
 6149TIP3    H139862   3.989   2.133  -0.033  1.0256  0.0481 -0.1338
 6149TIP3    H239863   4.086   2.131   0.083 -0.7952 -0.5744  1.4088
 6150TIP3   OH239864   0.911   3.729   3.676  0.4926  0.7137  0.1402
 6150TIP3    H139865   0.892   3.640   3.705  2.2270 -0.0572 -1.0044
 6150TIP3    H239866   0.830   3.758   3.633  0.0052 -0.4090  0.2906
 6151TIP3   OH239867   4.049   6.106   2.710 -0.5450 -0.2128 -0.2895
 6151TIP3    H139868   4.075   6.173   2.646  0.5352  2.3952  2.7136
 6151TIP3    H239869   4.051   6.152   2.794 -1.1470 -3.7328  1.7385
 6152TIP3   OH239870   5.301   5.469   3.237  0.4927  0.1107  0.1994
 6152TIP3    H139871   5.245   5.404   3.194  0.1451  0.4972  0.0668
 6152TIP3    H239872   5.390   5.443   3.213  0.3296 -0.0249 -0.2700
 6153TIP3   OH239873   0.808   5.913   2.117  0.0601  0.1405 -0.0505
 6153TIP3    H139874   0.850   5.939   2.199  1.2776  0.1206 -0.6609
 6153TIP3    H239875   0.714   5.910   2.138  0.5327 -1.9531  1.9231
 6154TIP3   OH239876   0.646   3.229   0.954  0.2436  0.2103 -0.0792
 6154TIP3    H139877   0.557   3.222   0.988  0.0884 -0.2863 -0.5936
 6154TIP3    H239878   0.690   3.150   0.986  0.5556  0.5432  0.3275
 6155TIP3   OH239879   5.649   4.186  14.245 -0.4828  0.0232 -0.0679
 6155TIP3    H139880   5.604   4.115  14.291  0.8697 -0.3799  0.6430
 6155TIP3    H239881   5.684   4.145  14.166  0.1359 -0.0601  0.2495
 6156TIP3   OH239882   4.532   4.028   4.862  0.4663 -0.0639  0.0549
 6156TIP3    H139883   4.471   4.072   4.804  1.3700 -1.4270 -1.9592
 6156TIP3    H239884   4.578   3.965   4.807  1.1910 -1.5611  2.2703
 6157TIP3   OH239885   5.605   4.529   2.311 -0.8398  0.1701 -0.2964
 6157TIP3    H139886   5.530   4.537   2.370 -0.4099 -0.5266  0.3525
 6157TIP3    H239887   5.592   4.445   2.267  0.1303 -0.4961  0.6487
 6158TIP3   OH239888   2.943   3.759  15.860 -0.1000 -0.0199  0.3720
 6158TIP3    H139889   2.907   3.678  15.823 -0.8622  1.2258 -1.6553
 6158TIP3    H239890   2.954   3.739  15.953 -4.1036 -1.1324  0.7176
 6159TIP3   OH239891   0.887   3.442   1.809 -0.2530  0.1854  0.1988
 6159TIP3    H139892   0.830   3.420   1.735  1.6716  0.8564 -1.5054
 6159TIP3    H239893   0.917   3.358   1.843 -0.7925 -0.1024 -0.0354
 6160TIP3   OH239894   4.314   5.072  13.289 -0.0377 -0.2360 -0.2295
 6160TIP3    H139895   4.333   5.165  13.305  1.2332 -0.8789  2.2724
 6160TIP3    H239896   4.305   5.066  13.194  0.4299  2.3486 -0.4931
 6161TIP3   OH239897   4.627   3.881  14.034 -0.1758 -0.3189 -0.2778
 6161TIP3    H139898   4.710   3.853  13.995  0.7463  1.6187  0.2270
 6161TIP3    H239899   4.583   3.930  13.965  0.1504  0.6200  0.1673
 6162TIP3   OH239900   0.656   4.707  13.373 -0.5843 -0.0349 -0.2177
 6162TIP3    H139901   0.641   4.643  13.303 -0.7097  1.2270 -1.3861
 6162TIP3    H239902   0.616   4.788  13.339 -0.6432  0.5946  1.3258
 6163TIP3   OH239903   4.630   0.469   2.767  0.0798  0.0793  0.4125
 6163TIP3    H139904   4.607   0.492   2.857 -1.3184  1.9054 -0.3664
 6163TIP3    H239905   4.667   0.381   2.773  1.3140  0.7067  2.9499
 6164TIP3   OH239906   3.898   6.429  16.205 -0.1384  0.0568  0.4503
 6164TIP3    H139907   3.975   6.406  16.154 -0.2025  1.7541 -0.4392
 6164TIP3    H239908   3.842   6.477  16.144 -1.8395 -1.0111  1.1209
 6165TIP3   OH239909   0.862   5.184  15.552 -0.4397  0.1139 -0.4566
 6165TIP3    H139910   0.878   5.092  15.573 -0.7601 -0.0189 -0.7826
 6165TIP3    H239911   0.827   5.221  15.633 -0.1676 -0.0149 -0.2785
 6166TIP3   OH239912   0.347   5.540  13.252  0.1027 -0.9100 -0.1524
 6166TIP3    H139913   0.327   5.570  13.163 -0.8921  1.8724  0.9567
 6166TIP3    H239914   0.267   5.494  13.280 -0.4650  0.2075  0.1045
 6167TIP3   OH239915   6.253   1.664  16.911  0.5686  0.0158  0.2013
 6167TIP3    H139916   6.167   1.633  16.941  0.2679 -0.2915 -0.9237
 6167TIP3    H239917   6.248   1.656  16.815  2.0056 -0.4047  0.1579
 6168TIP3   OH239918   4.666   6.046   0.737 -0.4933 -0.4327  0.2141
 6168TIP3    H139919   4.711   5.969   0.770  0.1616 -1.2009 -2.3544
 6168TIP3    H239920   4.576   6.038   0.769  0.3078 -0.6560  2.4938
 6169TIP3   OH239921   3.197   5.584  15.333 -0.3785 -0.7772 -0.4695
 6169TIP3    H139922   3.247   5.586  15.251 -2.4522  0.4288 -1.7299
 6169TIP3    H239923   3.134   5.513  15.321 -0.2453 -1.0370  0.3515
 6170TIP3   OH239924   0.586   0.286  13.963  0.1909 -0.0052  0.6575
 6170TIP3    H139925   0.643   0.358  13.990  0.2928  0.7859 -1.5644
 6170TIP3    H239926   0.645   0.225  13.919 -0.4892  0.3618 -0.7982
 6171TIP3   OH239927   1.252   3.151   4.541  0.0464  0.8051  0.0112
 6171TIP3    H139928   1.275   3.164   4.633 -2.1646 -0.7155  0.8252
 6171TIP3    H239929   1.299   3.221   4.494  2.3357  0.7229  2.0893
 6172TIP3   OH239930   6.269   1.663  11.915 -0.4064  0.3492  0.0435
 6172TIP3    H139931   6.345   1.607  11.931 -0.2216  0.5604 -0.1023
 6172TIP3    H239932   6.227   1.671  12.001 -0.5234 -0.1413  0.0373
 6173TIP3   OH239933   2.290   4.245   0.638 -0.9549  0.2661 -0.0612
 6173TIP3    H139934   2.202   4.272   0.662 -0.3101 -0.0971  2.8185
 6173TIP3    H239935   2.297   4.155   0.667  0.0527 -0.0464 -1.2138
 6174TIP3   OH239936   1.884   1.454   1.336 -0.0752  0.4080  0.3032
 6174TIP3    H139937   1.802   1.455   1.387  0.3497  0.9502  0.9881
 6174TIP3    H239938   1.947   1.500   1.392  0.3752  1.0845 -0.7615
 6175TIP3   OH239939   6.744   6.556  14.846  0.0476  0.0644  0.1135
 6175TIP3    H139940   6.835   6.567  14.821 -0.4604  0.9479 -1.3425
 6175TIP3    H239941   6.748   6.503  14.927  1.9576  2.2899  1.5330
 6176TIP3   OH239942   4.123   0.512  15.095 -0.2385  0.4314 -0.3078
 6176TIP3    H139943   4.181   0.444  15.061  1.0798  1.6623 -0.5801
 6176TIP3    H239944   4.040   0.467  15.112  0.4345 -1.1089 -1.0194
 6177TIP3   OH239945   1.191   3.169   3.263 -0.1669 -0.1901 -0.6285
 6177TIP3    H139946   1.104   3.175   3.302 -0.7491 -1.1396 -1.7880
 6177TIP3    H239947   1.181   3.112   3.188  1.3498  0.1388 -1.1074
 6178TIP3   OH239948   3.588   3.907  14.386 -0.1878 -0.4363 -0.1145
 6178TIP3    H139949   3.635   3.985  14.417 -0.2898 -0.8681  1.1623
 6178TIP3    H239950   3.627   3.887  14.301  1.4604 -0.3938  0.6231
 6179TIP3   OH239951   4.630   5.986  12.235  0.3959  0.1218  1.1806
 6179TIP3    H139952   4.665   6.040  12.306  1.2572 -1.2999  1.8557
 6179TIP3    H239953   4.669   5.900  12.249  0.5872 -0.1728 -1.0381
 6180TIP3   OH239954   4.188   1.367  12.011 -0.1137  0.4388 -0.4071
 6180TIP3    H139955   4.202   1.437  11.947  1.2209 -0.5595 -1.2282
 6180TIP3    H239956   4.228   1.398  12.091 -0.1691  0.9186 -0.5652
 6181TIP3   OH239957   0.490   0.668   1.434 -0.0157  0.2341  0.2243
 6181TIP3    H139958   0.572   0.638   1.396 -0.2636  2.2888 -2.0617
 6181TIP3    H239959   0.435   0.590   1.437  1.7501 -1.0046  1.1035
 6182TIP3   OH239960   1.806   6.053  13.965  0.2477 -0.4298 -0.1283
 6182TIP3    H139961   1.847   6.072  13.880 -0.8100 -2.9329 -1.2467
 6182TIP3    H239962   1.720   6.095  13.960  0.9955  1.2518  0.5867
 6183TIP3   OH239963   2.707   3.466   0.390 -0.0201  0.4706 -0.3624
 6183TIP3    H139964   2.619   3.471   0.353 -0.4381  0.4186  0.5926
 6183TIP3    H239965   2.748   3.549   0.367 -0.3695  0.5516 -0.6962
 6184TIP3   OH239966   3.642   3.935  13.278  0.1601  0.4200  0.4368
 6184TIP3    H139967   3.721   3.981  13.250  0.8058  0.1909  1.8486
 6184TIP3    H239968   3.665   3.898  13.363 -0.6916 -1.6565 -0.2247
 6185TIP3   OH239969   1.093   6.522  13.468  0.1239  0.0092  0.0921
 6185TIP3    H139970   1.152   6.595  13.447  1.3722 -1.7138 -2.5052
 6185TIP3    H239971   1.150   6.455  13.506 -0.6377 -0.5419  0.2743
 6186TIP3   OH239972   4.578   3.153   0.304 -0.1223 -0.0988  0.6369
 6186TIP3    H139973   4.657   3.196   0.272  0.1093 -0.2865  0.9645
 6186TIP3    H239974   4.566   3.187   0.393 -0.9262  0.6444  0.2581
 6187TIP3   OH239975   2.940   4.417  14.710 -0.2166 -0.1148  0.5484
 6187TIP3    H139976   2.961   4.324  14.710 -2.1634 -0.6239 -2.5805
 6187TIP3    H239977   2.845   4.420  14.714 -0.2237  1.7166 -0.3846
 6188TIP3   OH239978   5.503   1.354  16.103 -0.2643  0.2632  0.3110
 6188TIP3    H139979   5.581   1.301  16.084 -0.0374  0.7441 -0.1196
 6188TIP3    H239980   5.447   1.341  16.027 -1.1453 -1.0523  1.1734
 6189TIP3   OH239981   3.341   5.712  11.817  0.1812 -0.2810 -0.0379
 6189TIP3    H139982   3.267   5.733  11.759 -0.8485  0.2278  1.4430
 6189TIP3    H239983   3.311   5.636  11.867  0.7912 -0.2815  0.3296
 6190TIP3   OH239984   3.273   4.621  12.658  0.1574 -0.2116  0.0988
 6190TIP3    H139985   3.201   4.566  12.690  0.6144  0.7729  3.0308
 6190TIP3    H239986   3.236   4.709  12.655  0.6373 -0.0285 -0.4493
 6191TIP3   OH239987   0.437   3.212  13.098 -0.6609  0.2708 -0.5611
 6191TIP3    H139988   0.418   3.189  13.007  1.7031 -0.5195 -0.8958
 6191TIP3    H239989   0.427   3.130  13.146  0.8679  0.0531 -0.5944
 6192TIP3   OH239990   3.861   1.293   2.145 -0.8165  0.0684  0.1704
 6192TIP3    H139991   3.892   1.269   2.233  0.7298  0.3961 -0.2552
 6192TIP3    H239992   3.903   1.230   2.087 -1.3766  0.2097 -0.3876
 6193TIP3   OH239993   2.305   0.273  12.431  0.3861  0.7056  0.5968
 6193TIP3    H139994   2.379   0.333  12.426 -0.1917  1.4474  0.8201
 6193TIP3    H239995   2.229   0.327  12.409 -0.1682  0.1090  1.0252
 6194TIP3   OH239996   6.143   4.569   0.427  0.3848  0.2283 -0.5508
 6194TIP3    H139997   6.228   4.550   0.467  0.2933  1.3307  0.2112
 6194TIP3    H239998   6.105   4.637   0.483 -1.1821 -0.5335 -0.6364
 6195TIP3   OH239999   2.121   6.234  15.070 -0.3465 -0.0641 -0.3251
 6195TIP3    H140000   2.099   6.300  15.003 -3.2206 -4.0526 -3.5459
 6195TIP3    H240001   2.043   6.231  15.126  1.2772  1.8340  2.1525
 6196TIP3   OH240002   4.791   0.001   4.801 -0.0327  0.2868 -0.2496
 6196TIP3    H140003   4.871  -0.038   4.836  1.1789  2.3633 -0.6648
 6196TIP3    H240004   4.803  -0.001   4.706  0.3467  2.2940 -0.2499
 6197TIP3   OH240005   3.482   4.059  10.457 -0.1099 -0.2151  0.6100
 6197TIP3    H140006   3.539   4.101  10.393  0.4250 -2.5718 -0.5175
 6197TIP3    H240007   3.397   4.100  10.444  0.9735  2.3184  1.3309
 6198TIP3   OH240008   1.534   3.679   3.204 -0.0689  0.0212 -0.0437
 6198TIP3    H140009   1.602   3.661   3.269 -0.3643  1.6171  0.7523
 6198TIP3    H240010   1.576   3.662   3.120  1.2702  0.8156  0.4484
 6199TIP3   OH240011   3.059   5.281  14.411 -0.4730 -0.5114  0.7432
 6199TIP3    H140012   3.010   5.314  14.487  0.8206  0.0420  1.3551
 6199TIP3    H240013   3.132   5.342  14.401  0.1955 -1.4225 -0.0432
 6200TIP3   OH240014   3.431   5.311   6.537 -0.3731  0.1486  0.1573
 6200TIP3    H140015   3.428   5.280   6.446 -0.7543 -1.5983  0.7383
 6200TIP3    H240016   3.522   5.302   6.562 -0.4005 -0.1072  0.1753
 6201TIP3   OH240017   5.570   6.215  10.977 -0.2451 -0.0827 -0.0557
 6201TIP3    H140018   5.555   6.128  10.939  0.7097 -0.5745  0.6412
 6201TIP3    H240019   5.654   6.242  10.941  0.7552 -0.6286  1.7734
 6202TIP3   OH240020   3.211   6.013  12.003 -0.8516 -0.3557 -0.3485
 6202TIP3    H140021   3.164   6.067  11.940  1.7005  1.2999 -0.8959
 6202TIP3    H240022   3.198   6.058  12.087  1.2367  1.1488 -0.7965
 6203TIP3   OH240023   1.215   6.356   6.183  0.0830 -0.6240 -0.4026
 6203TIP3    H140024   1.196   6.265   6.160 -1.3086 -0.3349 -0.4303
 6203TIP3    H240025   1.148   6.379   6.247  1.6310 -0.2359  1.1190
 6204TIP3   OH240026   3.667   2.425  13.299  0.1529 -0.0136  0.1312
 6204TIP3    H140027   3.577   2.446  13.324  0.6875  0.9584  1.2521
 6204TIP3    H240028   3.697   2.363  13.366 -0.0319 -1.2160 -0.8588
 6205TIP3   OH240029   5.306   5.423   0.316  0.0928 -0.1866  0.4521
 6205TIP3    H140030   5.306   5.360   0.388 -2.2994 -0.3705  0.3501
 6205TIP3    H240031   5.334   5.506   0.356 -0.4358 -0.4706  1.4172
 6206TIP3   OH240032   0.286   0.200  11.491  0.2937  0.1428 -0.7284
 6206TIP3    H140033   0.333   0.177  11.570 -0.2153 -0.5840 -0.6330
 6206TIP3    H240034   0.350   0.191  11.421  0.6356  0.3983 -0.4466
 6207TIP3   OH240035   3.025   4.412  13.993  0.0713  0.0385 -0.3959
 6207TIP3    H140036   2.930   4.423  13.984 -0.4331 -0.5973  3.2992
 6207TIP3    H240037   3.053   4.486  14.047  1.3848 -0.7897  0.0909
 6208TIP3   OH240038   4.269   3.271  14.602  0.0946 -0.3050 -0.0720
 6208TIP3    H140039   4.268   3.363  14.628 -1.0431 -0.3081 -0.0944
 6208TIP3    H240040   4.211   3.228  14.665  0.4086 -0.9617 -0.2309
 6209TIP3   OH240041   1.076   5.814   6.059  0.6273  0.1826  0.7230
 6209TIP3    H140042   1.033   5.785   6.140 -1.0180 -0.3382 -0.3249
 6209TIP3    H240043   1.019   5.785   5.989  1.5143  1.5534 -0.6090
 6210TIP3   OH240044   2.720   3.918   0.213 -0.8866 -0.6273  0.2181
 6210TIP3    H140045   2.724   4.010   0.241 -0.3419 -0.3494 -0.7616
 6210TIP3    H240046   2.627   3.902   0.197 -0.5481  1.2908 -4.5756
 6211TIP3   OH240047   0.163   0.481   0.666 -0.5852  0.5276  0.4307
 6211TIP3    H140048   0.134   0.390   0.670  1.1278 -0.0796 -0.5780
 6211TIP3    H240049   0.147   0.508   0.575 -0.4608  1.0270  0.5517
 6212TIP3   OH240050   2.187   5.084   1.805  0.0027  0.4580  0.7570
 6212TIP3    H140051   2.111   5.082   1.862  0.8082 -2.4300  1.8169
 6212TIP3    H240052   2.245   5.148   1.844 -0.7069  0.6310  1.5246
 6213TIP3   OH240053   2.504   6.074  12.285  0.5481 -0.2523  0.2154
 6213TIP3    H140054   2.445   6.148  12.274 -1.1999 -1.8383 -1.2211
 6213TIP3    H240055   2.498   6.053  12.378 -0.9789 -0.2529  0.1274
 6214TIP3   OH240056   5.849   4.800   1.971  0.5554 -0.1517 -0.1009
 6214TIP3    H140057   5.771   4.806   1.917  1.5231  0.8628 -1.4156
 6214TIP3    H240058   5.820   4.827   2.058 -0.0247  2.7793 -1.1259
 6215TIP3   OH240059   5.239   2.339   3.272  0.3921  0.3573 -0.4332
 6215TIP3    H140060   5.171   2.294   3.324  0.5368 -1.3967 -1.7241
 6215TIP3    H240061   5.242   2.291   3.190  0.1918  3.1000 -2.0959
 6216TIP3   OH240062   5.982   0.334  13.233  0.3593  0.1147  0.2133
 6216TIP3    H140063   6.064   0.285  13.230  0.4841  0.3256  0.1825
 6216TIP3    H240064   5.989   0.398  13.162 -0.0991 -0.2887 -0.2038
 6217TIP3   OH240065   2.716   2.674   4.909 -0.5943  0.0617 -0.1697
 6217TIP3    H140066   2.692   2.690   5.000 -0.1490  0.4790 -0.1251
 6217TIP3    H240067   2.639   2.700   4.858 -1.0962 -0.8062  0.1280
 6218TIP3   OH240068   2.758   4.068  14.365  0.2520  0.2850  0.1780
 6218TIP3    H140069   2.739   4.007  14.436  0.1141 -0.4816 -0.5206
 6218TIP3    H240070   2.723   4.026  14.287  0.0287  1.3183 -0.2871
 6219TIP3   OH240071   6.184   0.608  16.906  0.4263  0.6360  0.7127
 6219TIP3    H140072   6.193   0.700  16.880  0.4750  0.4309  0.0187
 6219TIP3    H240073   6.100   0.605  16.952 -0.6801  0.5587 -1.2668
 6220TIP3   OH240074   4.545   1.356   5.103  0.0447 -1.1189 -0.6192
 6220TIP3    H140075   4.501   1.271   5.100 -0.5362 -0.8206 -0.8318
 6220TIP3    H240076   4.633   1.337   5.135 -0.5468 -1.6021  0.7597
 6221TIP3   OH240077   3.448   4.727   4.166 -0.5427 -0.0393 -0.1573
 6221TIP3    H140078   3.472   4.651   4.112 -1.0211  0.0872 -0.5513
 6221TIP3    H240079   3.388   4.777   4.111 -2.1668 -0.6581  1.0346
 6222TIP3   OH240080   1.922   4.367   3.067  0.4454 -0.4570 -0.8865
 6222TIP3    H140081   1.860   4.347   2.997  0.1198 -0.2956 -0.6436
 6222TIP3    H240082   1.916   4.462   3.078 -2.0497 -0.8507  1.7049
 6223TIP3   OH240083   6.729   4.982  15.877  0.2696  0.3592  0.2206
 6223TIP3    H140084   6.770   4.969  15.792 -1.1338 -0.4036 -0.3567
 6223TIP3    H240085   6.718   5.077  15.884  0.7548  0.4557 -0.2726
 6224TIP3   OH240086   3.899   0.625  13.557 -0.4590 -0.3490  0.1484
 6224TIP3    H140087   3.973   0.571  13.530  0.0640  1.0743 -1.3409
 6224TIP3    H240088   3.927   0.665  13.639  0.9001  1.1141 -1.0188
 6225TIP3   OH240089   0.350   4.125  10.909 -0.3627  0.3479 -0.1580
 6225TIP3    H140090   0.277   4.064  10.925  0.2819  0.0055  1.6403
 6225TIP3    H240091   0.311   4.211  10.921 -0.6863  0.2025 -0.1345
 6226TIP3   OH240092   0.310   2.530  13.879 -0.5377 -0.5831  0.1726
 6226TIP3    H140093   0.380   2.593  13.895 -0.9306  0.1800 -1.1030
 6226TIP3    H240094   0.334   2.454  13.932  0.7778  0.0160  0.4472
 6227TIP3   OH240095   5.072   2.615   3.643  0.2911 -0.3733  0.7387
 6227TIP3    H140096   4.993   2.582   3.602  0.5844  0.5230 -0.5714
 6227TIP3    H240097   5.129   2.538   3.651 -0.6049 -0.9810  1.5123
 6228TIP3   OH240098   6.564   3.014  11.551 -0.2098 -0.2560  0.0967
 6228TIP3    H140099   6.554   2.961  11.472 -0.3421  0.3476 -0.2968
 6228TIP3    H240100   6.621   2.962  11.608 -0.7427 -1.0322 -0.0848
 6229TIP3   OH240101   1.354   6.443  17.171 -0.6087  0.4968  0.2840
 6229TIP3    H140102   1.351   6.402  17.258 -1.3757 -1.8616 -0.7959
 6229TIP3    H240103   1.290   6.513  17.175 -1.0103  0.0785  1.4634
 6230TIP3   OH240104   5.312   3.562  17.021  0.4566  0.0319  0.1994
 6230TIP3    H140105   5.324   3.592  17.111  0.9853  0.0011  0.1402
 6230TIP3    H240106   5.261   3.630  16.979 -1.0731 -0.6435  0.9263
 6231TIP3   OH240107   0.968   3.509   5.684  0.1553  0.3097  0.0464
 6231TIP3    H140108   1.008   3.585   5.728  0.3212  0.3403 -0.1524
 6231TIP3    H240109   0.957   3.444   5.753  0.4514  0.3422  0.1265
 6232TIP3   OH240110   4.288   2.876  12.052 -0.0201 -0.0964 -0.6783
 6232TIP3    H140111   4.267   2.913  11.966 -1.0167 -0.2271 -0.5021
 6232TIP3    H240112   4.293   2.952  12.110  1.5106  0.0693 -1.0130
 6233TIP3   OH240113   3.349   6.394  12.085  0.4967  0.1745  0.1147
 6233TIP3    H140114   3.313   6.456  12.021  1.5843  0.6568 -0.0458
 6233TIP3    H240115   3.422   6.353  12.039 -0.4741 -1.5559  0.0696
 6234TIP3   OH240116   5.153   4.480  12.346 -0.1122 -0.1603  0.2631
 6234TIP3    H140117   5.080   4.542  12.343 -0.1667 -0.2941 -1.3253
 6234TIP3    H240118   5.230   4.534  12.363  0.0734  0.5817 -2.6996
 6235TIP3   OH240119   4.792   1.506   2.343  0.3475 -0.2986 -0.1157
 6235TIP3    H140120   4.828   1.555   2.416  0.3052 -0.0290 -0.2731
 6235TIP3    H240121   4.698   1.501   2.360  0.6048 -1.9898  0.8749
 6236TIP3   OH240122   4.926   5.833   2.070  0.1329 -0.2692 -0.7684
 6236TIP3    H140123   4.967   5.885   2.001 -2.1385  0.9851 -1.2343
 6236TIP3    H240124   4.860   5.892   2.108 -0.4358 -1.8197  0.7123
 6237TIP3   OH240125   1.376   0.634   0.206  0.2313  0.1432 -0.0094
 6237TIP3    H140126   1.392   0.727   0.189 -0.1309  0.2296  0.1243
 6237TIP3    H240127   1.402   0.622   0.297  0.0180  0.1739  0.0559
 6238TIP3   OH240128   6.366   5.512  12.230  0.1917 -0.2047 -0.3942
 6238TIP3    H140129   6.384   5.488  12.321 -0.2371 -1.4407 -0.6185
 6238TIP3    H240130   6.403   5.440  12.179 -0.7863 -0.2029 -1.1162
 6239TIP3   OH240131   0.900   1.389  17.098  0.0446  0.2130 -0.0626
 6239TIP3    H140132   0.968   1.321  17.107 -0.0192  0.3214  1.3944
 6239TIP3    H240133   0.911   1.422  17.009  2.0320  0.3540  0.2105
 6240TIP3   OH240134   2.593   3.923   5.256  0.3051  0.2004  0.2776
 6240TIP3    H140135   2.529   3.861   5.290  0.4259 -0.1325 -0.1067
 6240TIP3    H240136   2.553   4.009   5.272 -0.6036 -0.0307 -0.6799
 6241TIP3   OH240137   6.102   1.168   1.945 -0.2863 -0.1546 -0.0180
 6241TIP3    H140138   6.049   1.089   1.935 -1.9096  0.7054  1.5834
 6241TIP3    H240139   6.140   1.161   2.033  1.1180 -0.0541 -0.5892
 6242TIP3   OH240140   0.083   2.552   1.756  0.3246  0.1108 -0.0091
 6242TIP3    H140141   0.058   2.464   1.729 -0.0539  0.4489 -0.7786
 6242TIP3    H240142   0.179   2.554   1.747  0.1657  0.3810 -1.8595
 6243TIP3   OH240143   0.396   4.833  12.234 -0.0251  0.2430 -0.7546
 6243TIP3    H140144   0.479   4.862  12.196  0.8208 -2.7409 -1.3278
 6243TIP3    H240145   0.375   4.754  12.185 -0.7028 -1.7539  2.6628
 6244TIP3   OH240146   5.715   0.271  12.855  0.1941  0.2654  0.8134
 6244TIP3    H140147   5.675   0.286  12.769  1.0349 -2.2092 -0.0553
 6244TIP3    H240148   5.641   0.244  12.911  0.0779 -0.9675  0.0905
 6245TIP3   OH240149   3.997   0.788  10.967 -0.2283  0.0812 -0.2661
 6245TIP3    H140150   3.949   0.755  10.891  1.6928 -2.8782 -0.2790
 6245TIP3    H240151   4.075   0.828  10.929  0.1959 -0.4243  0.0681
 6246TIP3   OH240152   2.383   6.690  11.904  0.1418  0.0797 -0.2692
 6246TIP3    H140153   2.334   6.768  11.931 -0.1937  0.4163 -1.7489
 6246TIP3    H240154   2.320   6.618  11.911  0.1840  0.0950  0.2450
 6247TIP3   OH240155   2.637   4.604   1.366  0.4516  0.2380 -0.1659
 6247TIP3    H140156   2.708   4.594   1.302  0.5831  3.0436 -0.5151
 6247TIP3    H240157   2.573   4.661   1.322 -0.1010  1.0916  1.6852
 6248TIP3   OH240158   6.144   4.819   0.247 -0.0687 -0.3058  0.2333
 6248TIP3    H140159   6.221   4.853   0.293 -0.6379 -0.4481  1.3203
 6248TIP3    H240160   6.114   4.745   0.300 -1.1047 -0.0878 -0.0232
 6249TIP3   OH240161   6.080   5.633   6.038 -0.3174 -0.0298  0.3733
 6249TIP3    H140162   6.062   5.626   6.131  0.6640 -1.6283  0.4734
 6249TIP3    H240163   6.150   5.570   6.023 -0.5481  0.1241 -1.4592
 6250TIP3   OH240164   2.782   4.061   2.185 -0.5929 -0.0238  0.4049
 6250TIP3    H140165   2.722   4.007   2.237 -0.1484  0.4914  1.4714
 6250TIP3    H240166   2.763   4.037   2.095  1.6355 -4.1269  0.9447
 6251TIP3   OH240167   0.444   5.694   2.369  0.5910  0.0336  0.1488
 6251TIP3    H140168   0.535   5.715   2.349  1.2648 -1.8782  1.0545
 6251TIP3    H240169   0.425   5.740   2.451  1.9324 -2.4231  1.9152
 6252TIP3   OH240170   0.525   3.330  14.857 -0.3266 -0.3698 -0.4332
 6252TIP3    H140171   0.525   3.239  14.827  1.2700 -0.9873  1.3393
 6252TIP3    H240172   0.437   3.342  14.895  0.4028 -2.1153  1.9518
 6253TIP3   OH240173   6.706   6.135  15.518 -0.1355 -0.1768  0.2103
 6253TIP3    H140174   6.778   6.090  15.563  0.8298  1.5519  0.4501
 6253TIP3    H240175   6.744   6.163  15.434 -0.9121 -0.3499 -0.2069
 6254TIP3   OH240176   3.476   5.943   6.284  0.2584 -0.0919 -0.4477
 6254TIP3    H140177   3.550   5.949   6.344 -0.8359  1.3029  0.7895
 6254TIP3    H240178   3.408   5.998   6.323 -0.3807  1.1088 -3.1047
 6255TIP3   OH240179   5.866   5.107   5.952 -0.0929  0.0549  0.2688
 6255TIP3    H140180   5.853   5.130   6.044 -3.1960 -1.2091  0.2017
 6255TIP3    H240181   5.909   5.021   5.954 -1.5174 -0.6528  0.5468
 6256TIP3   OH240182   6.190   5.867   3.059  0.7970 -0.2252  0.3141
 6256TIP3    H140183   6.222   5.830   2.977  2.3074  0.4388  0.5915
 6256TIP3    H240184   6.265   5.913   3.096 -0.6422  1.9294  0.6703
 6257TIP3   OH240185   1.635   5.814  16.341  0.5324 -0.0507  0.3666
 6257TIP3    H140186   1.627   5.890  16.283  0.5543 -0.9051 -0.7545
 6257TIP3    H240187   1.616   5.850  16.428 -1.4764  0.8502 -0.4066
 6258TIP3   OH240188   3.953   3.595   3.156 -0.3236  0.6071 -0.3424
 6258TIP3    H140189   3.942   3.575   3.249 -0.0000  0.5824 -0.3103
 6258TIP3    H240190   4.000   3.519   3.121 -2.6532 -0.5707 -1.0329
 6259TIP3   OH240191   4.018   3.561  15.203 -0.4966  0.0476 -0.1272
 6259TIP3    H140192   3.994   3.527  15.117 -0.8024 -0.9831  0.3609
 6259TIP3    H240193   4.013   3.485  15.262  0.0866  0.6595  0.7280
 6260TIP3   OH240194   0.188   6.370   0.831  0.4844 -0.4505 -0.2886
 6260TIP3    H140195   0.269   6.403   0.793 -0.0137  0.8306 -0.2502
 6260TIP3    H240196   0.168   6.431   0.901  0.0215 -1.3480  0.3753
 6261TIP3   OH240197   3.472   5.473  13.035  0.2281 -0.1646  0.5300
 6261TIP3    H140198   3.445   5.479  12.943  0.3632 -2.8362  0.2835
 6261TIP3    H240199   3.417   5.537  13.081 -0.1957  0.8360 -1.3137
 6262TIP3   OH240200   3.565   0.360  10.074  0.0924  0.0885  0.5854
 6262TIP3    H140201   3.607   0.279  10.103 -0.3061 -0.4188 -0.2500
 6262TIP3    H240202   3.635   0.425  10.075  1.1837 -0.9772 -1.7866
 6263TIP3   OH240203   3.071   6.421   5.729 -0.1509 -0.1051 -0.2564
 6263TIP3    H140204   3.103   6.383   5.811 -0.8360  0.4537  0.2761
 6263TIP3    H240205   3.150   6.448   5.683  0.3563 -2.0928 -0.6132
 6264TIP3   OH240206   5.309   4.277   4.668  0.1889  0.0295 -0.2234
 6264TIP3    H140207   5.337   4.233   4.588 -0.5982 -0.3068 -0.3179
 6264TIP3    H240208   5.214   4.286   4.658  0.2568  1.2174  0.0540
 6265TIP3   OH240209   6.635   0.388   2.999  0.0734  0.2406  0.0279
 6265TIP3    H140210   6.641   0.397   2.904 -0.4697  1.1877  0.0751
 6265TIP3    H240211   6.592   0.304   3.012  0.4481 -0.0440 -0.5581
 6266TIP3   OH240212   5.821   4.799  13.006 -0.5260 -0.0940 -0.1735
 6266TIP3    H140213   5.842   4.855  13.081  1.2671 -0.4252 -0.4021
 6266TIP3    H240214   5.775   4.724  13.045 -1.5434  0.7640  0.3180
 6267TIP3   OH240215   5.168   3.272   5.584 -0.1824  0.1262  0.5544
 6267TIP3    H140216   5.262   3.271   5.562 -0.3425 -0.3085 -0.1264
 6267TIP3    H240217   5.147   3.181   5.603 -0.6979  0.0488 -0.3259
 6268TIP3   OH240218   4.808   1.914   2.309  0.3565 -0.5796 -0.2512
 6268TIP3    H140219   4.793   2.008   2.301  0.0743 -0.6230 -0.2352
 6268TIP3    H240220   4.811   1.898   2.404 -2.3560 -1.0179 -0.2067
 6269TIP3   OH240221   1.834   6.096  12.954 -0.0011 -0.1074  0.2436
 6269TIP3    H140222   1.872   6.017  12.916  3.1180  1.3129  0.2445
 6269TIP3    H240223   1.828   6.077  13.048  1.2135 -0.1576  0.3131
 6270TIP3   OH240224   0.056   0.625   3.678 -0.3864  0.1967  0.0037
 6270TIP3    H140225   0.025   0.588   3.595 -1.0765 -1.4935  0.9855
 6270TIP3    H240226   0.151   0.614   3.676 -0.2722  1.1681 -1.0069
 6271TIP3   OH240227   3.028   0.771  10.763  0.1696 -0.3220 -0.9504
 6271TIP3    H140228   3.090   0.750  10.833  0.2136 -0.6607 -1.0847
 6271TIP3    H240229   3.070   0.736  10.684 -0.7800 -1.7085 -0.8649
 6272TIP3   OH240230   4.701   2.149   1.829  0.7916 -0.0118 -0.3680
 6272TIP3    H140231   4.641   2.076   1.837 -0.5737  1.2360  1.1516
 6272TIP3    H240232   4.692   2.197   1.911  1.8965  1.6917 -1.1964
 6273TIP3   OH240233   6.266   6.508   2.697 -0.2920 -0.4546  0.2395
 6273TIP3    H140234   6.359   6.484   2.702 -0.7181 -1.7865  2.5964
 6273TIP3    H240235   6.247   6.513   2.603  1.9247 -1.0837 -0.2665
 6274TIP3   OH240236   5.785   2.421  16.481 -0.4887 -0.0325 -0.3229
 6274TIP3    H140237   5.789   2.435  16.575 -2.6005  1.2235 -0.3830
 6274TIP3    H240238   5.748   2.502  16.446 -1.9092 -1.3465 -1.9689
 6275TIP3   OH240239   1.203   6.032  12.465 -0.1281 -0.3969 -0.3014
 6275TIP3    H140240   1.166   6.119  12.479  0.6171  0.0959 -1.3357
 6275TIP3    H240241   1.204   5.992  12.552 -0.7755  0.5087  0.1233
 6276TIP3   OH240242   6.481   4.705  15.355  0.0880 -0.4145  0.4051
 6276TIP3    H140243   6.565   4.722  15.398 -0.6020  1.1408  1.1889
 6276TIP3    H240244   6.424   4.775  15.387 -1.2924 -1.0227 -0.7057
 6277TIP3   OH240245   5.830   3.877  14.953  0.7045  0.2464 -0.1417
 6277TIP3    H140246   5.745   3.920  14.943 -1.4659 -3.3508  1.6071
 6277TIP3    H240247   5.870   3.918  15.029 -1.7264 -1.2958  2.0538
 6278TIP3   OH240248   0.563   5.788   0.949  0.1191 -0.1807 -0.3731
 6278TIP3    H140249   0.599   5.860   0.898  1.6233  0.5065  1.6181
 6278TIP3    H240250   0.633   5.763   1.009 -1.4688 -1.2476  1.0853
 6279TIP3   OH240251   2.740   5.875  13.049  0.8177 -0.0386  0.3734
 6279TIP3    H140252   2.726   5.843  13.138 -0.0204 -0.5096  0.0797
 6279TIP3    H240253   2.692   5.814  12.994  0.6468  0.7285 -0.3405
 6280TIP3   OH240254   5.771   0.301  16.256 -0.0299 -0.4608  0.4556
 6280TIP3    H140255   5.860   0.268  16.269  0.2919  0.4635  0.6741
 6280TIP3    H240256   5.714   0.228  16.280  0.6813 -1.2845 -0.3329
 6281TIP3   OH240257   3.633   4.745  15.017 -0.3340  0.3110 -0.0513
 6281TIP3    H140258   3.665   4.836  15.021  0.1231  0.0975  1.6391
 6281TIP3    H240259   3.600   4.727  15.105 -1.7811 -0.6986 -0.7715
 6282TIP3   OH240260   5.588   3.278  13.187  0.1079 -0.6194  0.0849
 6282TIP3    H140261   5.499   3.248  13.203  0.1885 -1.4803 -0.9697
 6282TIP3    H240262   5.580   3.371  13.169 -0.4361 -0.4627  1.0974
 6283TIP3   OH240263   2.217   5.060  12.067  0.0273 -0.2756 -0.4345
 6283TIP3    H140264   2.187   5.133  12.011 -0.9735 -0.0985  0.3188
 6283TIP3    H240265   2.223   5.099  12.154  2.3787 -0.3407 -0.5364
 6284TIP3   OH240266   4.039   5.139  12.060 -0.3330 -0.5697 -0.1565
 6284TIP3    H140267   4.128   5.135  12.026  0.4718 -2.9978  2.0464
 6284TIP3    H240268   4.020   5.049  12.088 -2.4407  0.4523  1.9033
 6285TIP3   OH240269   0.136   6.774   1.366 -0.0284  0.2026 -0.2928
 6285TIP3    H140270   0.153   6.712   1.436  0.0971 -0.4870 -0.9239
 6285TIP3    H240271   0.223   6.797   1.333 -0.1444 -0.4616 -1.0673
 6286TIP3   OH240272   1.566   1.598   3.189 -0.0992 -0.2827 -0.0116
 6286TIP3    H140273   1.640   1.659   3.193 -0.4192 -0.0055  2.9037
 6286TIP3    H240274   1.592   1.532   3.125  2.0710  0.6103 -0.0701
 6287TIP3   OH240275   6.760   4.354  12.557 -0.3381 -0.0774  0.6160
 6287TIP3    H140276   6.784   4.316  12.641 -1.7732  0.0424  1.0962
 6287TIP3    H240277   6.671   4.322  12.540  0.6238 -1.6098 -1.7632
 6288TIP3   OH240278   1.352   5.667  12.987 -0.0301  0.5007 -0.2922
 6288TIP3    H140279   1.296   5.645  12.912  0.1024 -2.2307  0.3500
 6288TIP3    H240280   1.419   5.725  12.951 -0.0449 -0.6676 -2.2779
 6289TIP3   OH240281   5.573   2.640   6.668  0.5617 -0.5627  1.2175
 6289TIP3    H140282   5.607   2.604   6.586  0.1175  0.6482  0.4936
 6289TIP3    H240283   5.619   2.723   6.678 -0.9345  0.2944  1.0940
 6290TIP3   OH240284   3.219   6.599  13.332 -0.0923  0.2133 -0.0374
 6290TIP3    H140285   3.303   6.568  13.301 -0.1186 -1.8631  1.8509
 6290TIP3    H240286   3.200   6.676  13.278  3.7038  1.6521  0.5319
 6291TIP3   OH240287   5.803   0.192  10.530  0.1760 -0.2390 -0.4562
 6291TIP3    H140288   5.797   0.101  10.500  1.1882  0.9683 -4.6454
 6291TIP3    H240289   5.896   0.212  10.526  0.0220  0.8132  1.0109
 6292TIP3   OH240290   4.302   5.901  11.777  0.1955  0.4550  0.1793
 6292TIP3    H140291   4.281   5.953  11.699  1.3192  0.3034 -0.2349
 6292TIP3    H240292   4.366   5.954  11.825  0.9446 -0.2969  0.0227
 6293TIP3   OH240293   5.268   5.982  13.871 -0.1203 -0.3069  0.3954
 6293TIP3    H140294   5.230   5.909  13.822  0.5963  0.6640 -1.6508
 6293TIP3    H240295   5.322   5.940  13.938  1.2508 -1.6706 -1.5182
 6294TIP3   OH240296   1.025   1.854  11.960 -0.0006 -0.1255 -0.2638
 6294TIP3    H140297   1.114   1.821  11.951  0.3254  1.0634 -1.4055
 6294TIP3    H240298   1.032   1.926  12.023 -0.5362 -1.4917  1.3932
 6295TIP3   OH240299   6.241   0.651   4.365  0.1458 -0.0767 -0.3147
 6295TIP3    H140300   6.302   0.716   4.330  0.2534  0.4111  0.7515
 6295TIP3    H240301   6.192   0.698   4.431  0.7871 -1.2835  1.0600
 6296TIP3   OH240302   0.253   3.788  13.152  0.1970  0.9337  0.4239
 6296TIP3    H140303   0.239   3.849  13.225 -0.8413  1.3447 -0.1058
 6296TIP3    H240304   0.180   3.726  13.158  0.0365  1.0403 -0.3287
 6297TIP3   OH240305   6.489   1.942  16.302 -0.5858 -0.9459  0.1750
 6297TIP3    H140306   6.554   2.011  16.315  0.5592 -1.6821 -1.4506
 6297TIP3    H240307   6.538   1.861  16.318 -0.8201 -1.5544 -2.0684
 6298TIP3   OH240308   3.348   3.022  15.081  0.9830 -0.0466 -0.8786
 6298TIP3    H140309   3.275   3.002  15.139  0.1673  3.4278 -0.5515
 6298TIP3    H240310   3.413   3.065  15.137  1.3290  0.9174 -1.9749
 6299TIP3   OH240311   4.332   5.595   3.161  0.3018 -0.0359  0.5299
 6299TIP3    H140312   4.365   5.514   3.198 -1.9276 -1.4276 -0.4443
 6299TIP3    H240313   4.258   5.569   3.106 -0.7831  2.6787  0.5807
 6300TIP3   OH240314   4.825   3.539  12.643  0.1383  0.2244  0.6070
 6300TIP3    H140315   4.741   3.545  12.688 -0.7498  0.2641 -1.0429
 6300TIP3    H240316   4.873   3.617  12.672  0.0701 -0.3760  2.4211
 6301TIP3   OH240317   2.734   3.742  16.931 -0.3076  0.2168 -0.1335
 6301TIP3    H140318   2.673   3.691  16.879 -0.2485 -0.0010  0.0104
 6301TIP3    H240319   2.738   3.827  16.887 -1.5036  0.5868  0.4300
 6302TIP3   OH240320   1.545   1.979   1.147  0.0248 -0.1930  0.1227
 6302TIP3    H140321   1.574   2.069   1.155  1.0158 -0.6558  2.1620
 6302TIP3    H240322   1.451   1.983   1.166 -0.0275  0.4843 -0.2868
 6303TIP3   OH240323   4.288   3.947   3.420  0.3559 -0.4729 -0.1218
 6303TIP3    H140324   4.334   3.991   3.491  1.2826  0.1472 -1.0816
 6303TIP3    H240325   4.205   3.993   3.412  0.1395 -0.7141  0.7239
 6304TIP3   OH240326   6.735   5.517   1.529 -0.1946 -0.2275 -0.1902
 6304TIP3    H140327   6.772   5.495   1.444  0.2211 -0.1814 -0.0250
 6304TIP3    H240328   6.776   5.454   1.589 -0.4982 -0.2718 -0.0267
 6305TIP3   OH240329   3.976   6.732  10.816  0.2537  0.4942  0.3684
 6305TIP3    H140330   3.993   6.692  10.902 -1.1477 -1.8027 -0.3905
 6305TIP3    H240331   3.911   6.676  10.776 -0.1608  2.3671 -1.6571
 6306TIP3   OH240332   1.358   4.702   5.987 -0.0857  0.5145 -0.2175
 6306TIP3    H140333   1.424   4.768   6.007  1.6064 -1.5444  1.2062
 6306TIP3    H240334   1.278   4.752   5.971  1.2751  2.9183  0.2564
 6307TIP3   OH240335   2.530   4.344   1.372  0.0669 -0.1328 -0.6876
 6307TIP3    H140336   2.599   4.277   1.367  0.1320 -0.3963  2.4194
 6307TIP3    H240337   2.577   4.425   1.395 -0.5777 -0.3188  1.4685
 6308TIP3   OH240338   4.117   4.416  13.842 -0.0711 -0.3942  0.1220
 6308TIP3    H140339   4.038   4.464  13.819 -1.1840 -1.3803  1.8250
 6308TIP3    H240340   4.146   4.455  13.924  1.7806  0.6281 -0.9993
 6309TIP3   OH240341   1.937   5.852  12.868  0.3835  0.0403 -0.3563
 6309TIP3    H140342   1.963   5.912  12.798  1.7213 -1.5745 -1.2930
 6309TIP3    H240343   1.870   5.796  12.828 -0.4843  0.5602  0.3531
 6310TIP3   OH240344   0.190   1.761   0.592 -0.2207  0.5562 -0.3132
 6310TIP3    H140345   0.189   1.808   0.675 -1.0064 -0.6380  0.3616
 6310TIP3    H240346   0.282   1.763   0.565  0.4084 -0.7919  1.6003
 6311TIP3   OH240347   2.033   0.930   0.941 -0.6376  0.0257 -0.0216
 6311TIP3    H140348   1.977   1.007   0.948  0.8449  1.2006 -0.8194
 6311TIP3    H240349   1.976   0.861   0.907 -1.9265  0.8057  0.5462
 6312TIP3   OH240350   1.549   6.096   1.086 -0.1743  0.7120 -0.0147
 6312TIP3    H140351   1.494   6.096   1.164 -1.8418  0.2859 -1.1768
 6312TIP3    H240352   1.492   6.128   1.016  1.1113  0.4741 -1.1877
 6313TIP3   OH240353   0.961   3.217   1.681 -0.2067 -0.0874 -0.0571
 6313TIP3    H140354   0.939   3.124   1.691 -1.1056 -0.0992 -1.8133
 6313TIP3    H240355   0.881   3.256   1.645  0.3914  1.2361  0.0238
 6314TIP3   OH240356   2.335   6.077   6.132 -0.0230 -0.5465 -0.2195
 6314TIP3    H140357   2.301   6.086   6.221 -1.0381  1.5555 -0.7907
 6314TIP3    H240358   2.331   5.983   6.114  1.0999 -1.1045  2.2833
 6315TIP3   OH240359   1.257   4.933   6.165 -0.1657 -1.1066  0.6695
 6315TIP3    H140360   1.349   4.931   6.137 -0.3033 -0.6156  0.1767
 6315TIP3    H240361   1.252   5.008   6.224 -0.7874  0.3771 -1.2185
 6316TIP3   OH240362   2.436   5.773   3.219 -0.2323  0.6637  0.8175
 6316TIP3    H140363   2.413   5.694   3.170  0.8655  0.9626 -0.1957
 6316TIP3    H240364   2.491   5.742   3.291 -2.6664  0.1034  2.4781
 6317TIP3   OH240365   5.282   2.451   2.514 -0.2389  0.0768 -0.4517
 6317TIP3    H140366   5.247   2.479   2.430 -0.3043  0.6825 -0.2215
 6317TIP3    H240367   5.208   2.459   2.575  0.1545  0.8511 -0.0732
 6318TIP3   OH240368   0.333   4.018  16.778  0.4836  0.0910 -0.2521
 6318TIP3    H140369   0.346   4.019  16.683  0.6882  0.2199 -0.2251
 6318TIP3    H240370   0.349   3.927  16.804 -1.2235 -0.3007 -0.5619
 6319TIP3   OH240371   2.457   4.527  16.740  0.3237  0.2964 -0.0703
 6319TIP3    H140372   2.552   4.516  16.737  0.5408  1.9868 -0.1924
 6319TIP3    H240373   2.441   4.608  16.691 -1.1285  0.2615  0.3233
 6320TIP3   OH240374   2.615   5.361   2.491 -0.1948  0.3276  0.2395
 6320TIP3    H140375   2.671   5.378   2.566 -0.7396 -0.4848  0.8374
 6320TIP3    H240376   2.528   5.388   2.519 -0.0089  2.2248 -0.9171
 6321TIP3   OH240377   5.973   6.476   3.134  0.0831 -0.5423  0.3633
 6321TIP3    H140378   5.980   6.566   3.164  1.3037 -0.4120 -0.2886
 6321TIP3    H240379   6.044   6.465   3.071 -0.6573 -1.6691 -0.3157
 6322TIP3   OH240380   4.963   4.465  15.557 -0.0217  0.0621  0.6441
 6322TIP3    H140381   4.913   4.394  15.598  1.4070 -1.0911  0.4444
 6322TIP3    H240382   5.000   4.514  15.630  0.0270 -0.1670  0.7732
 6323TIP3   OH240383   5.776   2.775  14.880 -0.0863 -0.4265 -0.0002
 6323TIP3    H140384   5.851   2.722  14.906  0.6093 -0.7636 -2.5917
 6323TIP3    H240385   5.784   2.854  14.934  1.1560 -1.1715  0.9596
 6324TIP3   OH240386   2.572   4.263  14.381  0.0770 -0.4549  0.1842
 6324TIP3    H140387   2.652   4.216  14.404  0.9773  1.0296  0.1456
 6324TIP3    H240388   2.550   4.233  14.293  0.7637 -0.6457  0.0771
 6325TIP3   OH240389   3.276   0.776  16.590 -0.3644 -0.2318 -0.5977
 6325TIP3    H140390   3.189   0.781  16.549 -1.3744 -1.4085  1.2965
 6325TIP3    H240391   3.299   0.683  16.586 -0.6749 -0.4629  1.7620
 6326TIP3   OH240392   6.607   4.181  15.686  0.2215  0.8300 -0.2803
 6326TIP3    H140393   6.533   4.131  15.652 -1.1917  1.3712  1.8722
 6326TIP3    H240394   6.614   4.155  15.778  1.4587  2.2507  0.0580
 6327TIP3   OH240395   2.467   6.272  14.294 -0.2984 -0.6761  0.0117
 6327TIP3    H140396   2.405   6.306  14.359 -0.0971 -0.4403  0.0825
 6327TIP3    H240397   2.536   6.338  14.291  0.7405 -1.6982  1.0728
 6328TIP3   OH240398   3.042   4.575   3.972  0.0878  0.7249 -0.0353
 6328TIP3    H140399   2.982   4.648   3.982  0.5335  1.1421 -0.3852
 6328TIP3    H240400   3.003   4.520   3.904 -0.2198  0.6601  0.1913
 6329TIP3   OH240401   6.308   6.360  15.510 -0.3536 -0.1064  0.7771
 6329TIP3    H140402   6.215   6.382  15.506 -0.5113 -0.2804  2.7816
 6329TIP3    H240403   6.311   6.266  15.491 -0.5180  0.0153  0.1343
 6330TIP3   OH240404   6.518   1.977  12.412  0.2715 -0.5601  0.2956
 6330TIP3    H140405   6.553   2.056  12.454 -0.2387  0.5874 -1.3961
 6330TIP3    H240406   6.440   2.006  12.366  0.4867 -1.8943 -0.9690
 6331TIP3   OH240407   6.245   6.460  15.870 -0.2528  0.0111 -0.1301
 6331TIP3    H140408   6.157   6.497  15.859  0.1314  0.6259 -1.1940
 6331TIP3    H240409   6.230   6.375  15.912 -1.2774  0.5476  0.6219
 6332TIP3   OH240410   4.514   3.367   4.962  0.5529 -0.0033  0.5966
 6332TIP3    H140411   4.467   3.293   4.924 -0.3210  1.5925 -1.5397
 6332TIP3    H240412   4.577   3.327   5.023  0.5163 -2.5244 -0.9429
 6333TIP3   OH240413   4.154   5.494  12.062  0.1647  0.2259 -0.2672
 6333TIP3    H140414   4.213   5.560  12.100  2.1407 -1.9629  0.5926
 6333TIP3    H240415   4.203   5.458  11.988 -0.8851 -0.3367 -0.7007
 6334TIP3   OH240416   5.414   2.235  13.656  0.3315  0.6893 -0.2567
 6334TIP3    H140417   5.502   2.247  13.694  0.3152  1.1475 -0.3574
 6334TIP3    H240418   5.410   2.142  13.634 -0.1740  0.0824  2.1866
 6335TIP3   OH240419   0.859   3.823  16.569 -0.0831  0.2426  0.0900
 6335TIP3    H140420   0.885   3.859  16.654  0.4884  2.7286 -1.0812
 6335TIP3    H240421   0.853   3.729  16.583  1.4986  0.4685  2.5001
 6336TIP3   OH240422   0.062   2.808   1.618  0.3215  0.5948  0.4514
 6336TIP3    H140423   0.045   2.749   1.691  0.8839  0.9796  0.9008
 6336TIP3    H240424  -0.019   2.809   1.568  0.4094 -0.7936  0.2745
 6337TIP3   OH240425   3.989   4.910   6.738 -0.0236 -0.6716 -0.0831
 6337TIP3    H140426   3.897   4.899   6.713 -0.9862  1.3587  2.2920
 6337TIP3    H240427   4.002   4.848   6.809 -0.0178  0.0277  0.5442
 6338TIP3   OH240428   1.805   3.980   6.198 -0.7611 -0.1896  0.2761
 6338TIP3    H140429   1.806   3.963   6.293 -1.4488  0.2908  0.3718
 6338TIP3    H240430   1.891   4.016   6.180  0.3380 -2.6714  0.2682
 6339TIP3   OH240431   3.706   2.509  14.084  0.6146  0.6511  0.4886
 6339TIP3    H140432   3.758   2.466  14.016  1.6233 -0.6998  2.0979
 6339TIP3    H240433   3.684   2.440  14.146 -0.5710  1.8041  1.3834
 6340TIP3   OH240434   0.642   2.865   0.327 -0.0550  0.1433  0.2086
 6340TIP3    H140435   0.729   2.890   0.296 -1.2579  2.8491 -1.0838
 6340TIP3    H240436   0.603   2.818   0.253 -0.2540  0.2065  0.2743
 6341TIP3   OH240437   0.016   5.397   6.147  0.7556 -0.2696  1.2198
 6341TIP3    H140438   0.035   5.485   6.114 -0.8826 -0.5791 -0.6252
 6341TIP3    H240439   0.011   5.408   6.242  0.5553  1.6441  1.0141
 6342TIP3   OH240440   6.718   2.899  12.039 -0.4667  0.2295  0.4456
 6342TIP3    H140441   6.660   2.924  11.968  0.0078 -0.6174 -0.2440
 6342TIP3    H240442   6.756   2.982  12.069 -2.2887  0.8340  1.1528
 6343TIP3   OH240443   2.813   5.576   3.586  0.4241  0.2798  0.6103
 6343TIP3    H140444   2.885   5.578   3.523  0.3199  0.5488  0.5020
 6343TIP3    H240445   2.847   5.622   3.663  0.1527  0.9472  0.3332
 6344TIP3   OH240446   6.629   1.543  11.722  0.0416  0.1314  0.1483
 6344TIP3    H140447   6.544   1.499  11.711  0.8473 -1.5010  0.2794
 6344TIP3    H240448   6.615   1.604  11.794 -0.7656 -0.8068  0.8029
 6345TIP3   OH240449   6.166   5.514   2.665 -0.6027  0.3063 -0.4514
 6345TIP3    H140450   6.172   5.510   2.761 -1.1136  0.8954 -0.3940
 6345TIP3    H240451   6.118   5.594   2.647 -1.3976 -0.3171 -1.1667
 6346TIP3   OH240452   5.107   4.420   1.141  0.0116 -0.2448  0.2667
 6346TIP3    H140453   5.149   4.473   1.209  0.9804 -0.3692 -0.2174
 6346TIP3    H240454   5.015   4.415   1.167  0.4549 -0.6403  1.7868
 6347TIP3   OH240455   6.580   2.786   6.121 -0.0037 -0.2090 -0.3361
 6347TIP3    H140456   6.509   2.745   6.170 -0.2861  0.2179 -0.3828
 6347TIP3    H240457   6.659   2.745   6.155 -0.2748 -0.7496 -0.3396
 6348TIP3   OH240458   3.506   4.183  13.162 -0.0275  0.1566  0.5402
 6348TIP3    H140459   3.415   4.193  13.187 -0.1460 -1.0388  0.6427
 6348TIP3    H240460   3.522   4.088  13.166  0.7047  0.1762 -1.2077
 6349TIP3   OH240461   4.926   5.490   1.906 -0.6840  0.2962 -0.5365
 6349TIP3    H140462   4.937   5.470   1.999  0.1264 -0.3336 -0.7566
 6349TIP3    H240463   4.860   5.428   1.875  1.0693 -1.3790 -0.9871
 6350TIP3   OH240464   2.302   6.014  11.635 -0.0503  0.1618 -0.7427
 6350TIP3    H140465   2.214   6.048  11.650  0.4947  0.6747  1.4714
 6350TIP3    H240466   2.290   5.920  11.622 -0.6670 -0.3002  2.6846
 6351TIP3   OH240467   5.438   6.067  15.305 -0.0309 -0.2367 -0.2526
 6351TIP3    H140468   5.348   6.057  15.336  0.2557 -0.3246  0.5643
 6351TIP3    H240469   5.475   5.979  15.312  0.8594  0.2680  1.7711
 6352TIP3   OH240470   0.717   3.583   6.021  0.7558  0.8340 -0.7017
 6352TIP3    H140471   0.663   3.607   6.096  1.1409 -0.8796  0.1676
 6352TIP3    H240472   0.807   3.599   6.051  0.8786  0.7135 -1.0063
 6353TIP3   OH240473   1.596   4.953   5.438  0.3988  0.7683 -0.0675
 6353TIP3    H140474   1.684   4.921   5.419  0.5901  1.5908 -0.5689
 6353TIP3    H240475   1.573   5.008   5.363 -1.7572 -1.8591 -1.3981
 6354TIP3   OH240476   5.410   1.075  14.184  0.0609 -0.6361 -0.0599
 6354TIP3    H140477   5.336   1.131  14.161  0.0540 -0.5192  0.2361
 6354TIP3    H240478   5.392   1.048  14.274  0.4956 -0.4107  0.0981
 6355TIP3   OH240479   0.221   1.602   5.693 -0.0430 -0.2024  0.0719
 6355TIP3    H140480   0.287   1.601   5.623  0.2796  1.7403  0.3174
 6355TIP3    H240481   0.266   1.643   5.767 -1.2772  0.4353  0.4768
 6356TIP3   OH240482   5.625   1.932  12.528 -0.5468  0.2337 -0.3847
 6356TIP3    H140483   5.601   1.847  12.491  1.0143 -0.2496 -0.3157
 6356TIP3    H240484   5.666   1.912  12.612  2.0874  0.8341 -1.4593
 6357TIP3   OH240485   5.330   4.111   2.410 -0.1819 -0.1966 -0.1638
 6357TIP3    H140486   5.306   4.095   2.319  1.6490 -0.2358 -0.6493
 6357TIP3    H240487   5.352   4.205   2.413  0.9853 -0.4629 -0.0598
 6358TIP3   OH240488   1.455   4.900  13.793 -0.5068  0.6040 -0.4682
 6358TIP3    H140489   1.382   4.878  13.851 -0.2431 -2.4126 -1.2119
 6358TIP3    H240490   1.525   4.840  13.817  0.7225  1.4583 -1.7908
 6359TIP3   OH240491   0.551   2.694   1.880 -0.5163 -0.4536  0.4764
 6359TIP3    H140492   0.588   2.609   1.903  0.7301  0.2423  1.0650
 6359TIP3    H240493   0.502   2.721   1.958 -1.5702 -0.9725  0.0105
 6360TIP3   OH240494   4.691   6.065   5.091 -0.5990  0.2308 -0.3365
 6360TIP3    H140495   4.607   6.084   5.049 -0.0360  1.9590 -0.7125
 6360TIP3    H240496   4.676   6.087   5.183 -0.9087 -0.6317 -0.1713
 6361TIP3   OH240497   1.028   0.772  11.131  0.2684 -0.2246 -0.0727
 6361TIP3    H140498   0.985   0.706  11.076 -1.1923 -0.4545  1.2892
 6361TIP3    H240499   1.042   0.846  11.073 -1.7402 -0.2638 -0.6613
 6362TIP3   OH240500   6.661   0.003   1.735  0.1895  0.0907 -0.2530
 6362TIP3    H140501   6.649  -0.064   1.668 -0.3386  0.8906 -0.9691
 6362TIP3    H240502   6.707   0.074   1.690  1.3507 -0.0600  0.6725
 6363TIP3   OH240503   2.516   4.273  13.244 -0.2968 -0.7713  0.4177
 6363TIP3    H140504   2.523   4.255  13.338 -0.4934 -0.8805  0.4109
 6363TIP3    H240505   2.435   4.230  13.218 -1.4362  1.1662  0.6403
 6364TIP3   OH240506   1.986   5.649  13.122  0.1902 -0.4754 -0.1834
 6364TIP3    H140507   1.988   5.713  13.051  0.6939 -0.5864 -0.2717
 6364TIP3    H240508   1.934   5.690  13.191 -1.0021 -0.7055 -0.9379
 6365TIP3   OH240509   4.071   6.680   0.444  0.1423  0.4663  0.4555
 6365TIP3    H140510   4.096   6.644   0.359 -2.8395  2.9115 -1.5579
 6365TIP3    H240511   4.120   6.762   0.450  0.8399 -0.0081  1.4331
 6366TIP3   OH240512   6.338   6.467   5.448 -0.9841 -0.5537 -0.3294
 6366TIP3    H140513   6.327   6.372   5.437 -0.8297 -0.5051 -0.9475
 6366TIP3    H240514   6.374   6.477   5.536  0.6941 -1.1993 -0.9214
 6367TIP3   OH240515   0.443   5.458  16.966 -0.2339 -0.0976 -0.8347
 6367TIP3    H140516   0.489   5.382  16.931  0.8244  0.3896 -0.5415
 6367TIP3    H240517   0.462   5.457  17.060 -1.1277 -0.0955 -0.6485
 6368TIP3   OH240518   5.949   0.397  12.648  0.3192 -0.1281  0.2193
 6368TIP3    H140519   5.917   0.436  12.567  2.9158 -0.9733 -1.2416
 6368TIP3    H240520   5.951   0.471  12.710 -2.0524  0.4323 -0.3105
 6369TIP3   OH240521   3.876   6.733  15.088 -0.0393 -0.3130 -0.1170
 6369TIP3    H140522   3.843   6.783  15.163 -1.0281 -1.0261 -0.0758
 6369TIP3    H240523   3.798   6.697  15.046  0.5517 -0.3949 -1.1586
 6370TIP3   OH240524   3.490   4.850  10.711  0.2217 -0.0886 -0.1139
 6370TIP3    H140525   3.557   4.823  10.648 -0.0301 -1.5396  0.2082
 6370TIP3    H240526   3.433   4.773  10.719 -0.6863  0.6558  0.6468
 6371TIP3   OH240527   6.356   3.509   5.219 -0.6469  0.5312  0.1700
 6371TIP3    H140528   6.337   3.597   5.187  1.2286  1.1637  0.7358
 6371TIP3    H240529   6.415   3.472   5.153  1.9961  1.2818  2.0244
 6372TIP3   OH240530   4.434   5.757   5.867 -0.6216  0.6253  0.0187
 6372TIP3    H140531   4.408   5.665   5.866 -1.9436  0.9994 -0.7837
 6372TIP3    H240532   4.400   5.792   5.949 -0.8169  0.5967 -0.0508
 6373TIP3   OH240533   1.576   0.467   3.410 -0.3026  0.4375  0.4029
 6373TIP3    H140534   1.528   0.522   3.472  0.6192  0.3756  1.1875
 6373TIP3    H240535   1.640   0.421   3.464  0.6431  0.5364 -0.6282
 6374TIP3   OH240536   5.126   4.915   1.595 -0.0664 -0.5097 -0.0221
 6374TIP3    H140537   5.197   4.850   1.593 -1.2724 -1.8612  0.1890
 6374TIP3    H240538   5.047   4.865   1.574 -1.2550  0.5661  1.7022
 6375TIP3   OH240539   4.488   6.691  14.248 -0.3346 -0.0824  0.5108
 6375TIP3    H140540   4.451   6.749  14.314 -1.1798 -0.0467  0.0196
 6375TIP3    H240541   4.486   6.743  14.167 -1.2109 -0.8237  0.0403
 6376TIP3   OH240542   3.241   1.807   0.542  0.3191  0.0323 -0.2567
 6376TIP3    H140543   3.214   1.735   0.485  0.0372  0.5779 -0.8133
 6376TIP3    H240544   3.203   1.885   0.502  0.8610  0.5272  0.1870
 6377TIP3   OH240545   1.980   5.506  12.891  0.8062 -0.5390 -0.3891
 6377TIP3    H140546   1.980   5.534  12.983 -0.7386 -0.7295 -0.3089
 6377TIP3    H240547   1.957   5.413  12.895 -0.1093 -0.3407 -1.0176
 6378TIP3   OH240548   6.099   3.283  14.588  0.4245  0.2579  0.1619
 6378TIP3    H140549   6.003   3.286  14.585  0.4566  0.1744 -1.4377
 6378TIP3    H240550   6.125   3.261  14.499  2.0449  3.4932 -0.2273
 6379TIP3   OH240551   5.478   6.326   1.861 -0.3175  0.0685 -0.4716
 6379TIP3    H140552   5.457   6.404   1.913  1.2019  0.7249 -0.8461
 6379TIP3    H240553   5.559   6.348   1.815 -0.0925 -1.5868 -0.8920
 6380TIP3   OH240554   3.367   2.476   2.121  0.3278 -0.3323 -0.3954
 6380TIP3    H140555   3.436   2.529   2.081  0.1720 -0.2553 -0.5635
 6380TIP3    H240556   3.404   2.449   2.206  0.1718  0.5608 -0.0340
 6381TIP3   OH240557   5.569   5.909  14.555  0.3352 -0.2477  0.4310
 6381TIP3    H140558   5.486   5.955  14.564  0.5797  0.3542 -0.3772
 6381TIP3    H240559   5.576   5.890  14.461  2.7721  2.8097 -0.0639
 6382TIP3   OH240560   4.107   4.400  17.160 -0.3455 -0.2133 -0.2652
 6382TIP3    H140561   4.177   4.377  17.100  0.8744 -1.0114  1.4323
 6382TIP3    H240562   4.113   4.496  17.168  1.0629 -0.3560  0.4784
 6383TIP3   OH240563   5.908   3.959  16.639  0.0943 -0.0753  0.4629
 6383TIP3    H140564   5.983   3.902  16.656 -0.4375 -1.1271 -0.6287
 6383TIP3    H240565   5.879   3.934  16.551  0.5654  2.6703 -0.5246
 6384TIP3   OH240566   0.796   0.904  14.508  0.1183  0.3494 -0.4084
 6384TIP3    H140567   0.869   0.925  14.567  0.3274  1.4280 -1.0392
 6384TIP3    H240568   0.815   0.953  14.428 -0.8545 -0.0533 -0.8926
 6385TIP3   OH240569   1.851   0.377   3.151 -0.2955  0.8245 -0.2171
 6385TIP3    H140570   1.839   0.285   3.130 -1.7260  1.0763 -0.5140
 6385TIP3    H240571   1.930   0.379   3.205 -0.6521 -0.6472  0.3732
 6386TIP3   OH240572   5.405   6.202  13.081  0.3902 -0.4546 -0.0126
 6386TIP3    H140573   5.324   6.156  13.060 -0.0639  1.2566 -2.1520
 6386TIP3    H240574   5.444   6.151  13.152 -1.1525 -2.8823 -0.8606
 6387TIP3   OH240575   3.332   3.486   2.597 -0.1725 -0.4150 -0.0351
 6387TIP3    H140576   3.283   3.565   2.575 -1.6197 -0.9938  1.0403
 6387TIP3    H240577   3.410   3.519   2.642 -0.0431  0.4681 -0.8893
 6388TIP3   OH240578   1.565   0.337  11.176  0.0675  0.3945  0.1403
 6388TIP3    H140579   1.568   0.242  11.191  1.1537  0.1403 -1.6313
 6388TIP3    H240580   1.564   0.374  11.265  4.1913 -1.1461  0.9783
 6389TIP3   OH240581   5.447   3.841  12.871  0.0972  0.1558 -0.1804
 6389TIP3    H140582   5.486   3.912  12.820 -0.2740 -1.0605 -2.2409
 6389TIP3    H240583   5.377   3.883  12.921 -0.6478  1.1165 -1.9843
 6390TIP3   OH240584   5.992   5.841  12.628 -0.4175 -0.5165 -0.2316
 6390TIP3    H140585   6.001   5.867  12.720 -1.6281 -0.8693  0.0031
 6390TIP3    H240586   5.901   5.862  12.607 -0.2063 -0.6524 -1.2853
 6391TIP3   OH240587   3.081   6.102   1.209  0.0512  0.2620 -0.2928
 6391TIP3    H140588   3.081   6.045   1.132  3.1832  0.8721 -0.8315
 6391TIP3    H240589   3.124   6.051   1.277 -0.8700  0.4693  0.4543
 6392TIP3   OH240590   3.765   0.526   0.488 -0.0508  0.0139  0.0500
 6392TIP3    H140591   3.854   0.497   0.468 -0.1908 -0.4120  0.0530
 6392TIP3    H240592   3.712   0.447   0.484 -0.0429 -0.1350  2.2900
 6393TIP3   OH240593   3.486   0.452   3.697 -0.6175 -0.0955 -0.0298
 6393TIP3    H140594   3.560   0.492   3.650 -0.6630  0.4225  0.3347
 6393TIP3    H240595   3.420   0.439   3.629 -2.2621  4.4387  0.5574
 6394TIP3   OH240596   3.923   2.600   2.159  0.3884  0.0075  0.2684
 6394TIP3    H140597   3.988   2.541   2.122  0.5260 -0.2096  0.8623
 6394TIP3    H240598   3.962   2.687   2.149 -0.1886  0.0988 -1.4040
 6395TIP3   OH240599   1.597   3.284  11.687 -0.7298 -0.0287  0.0146
 6395TIP3    H140600   1.587   3.379  11.680 -1.6084 -0.0067  1.2019
 6395TIP3    H240601   1.539   3.249  11.619 -1.5812  0.2773  0.5611
 6396TIP3   OH240602   5.038   4.168  11.764 -0.1882  0.0911  0.6062
 6396TIP3    H140603   5.037   4.201  11.675  0.4116 -1.0442  0.1754
 6396TIP3    H240604   4.952   4.192  11.800 -1.5708 -1.9474 -1.2019
 6397TIP3   OH240605   4.777   3.376  11.331  0.1345  0.0952  0.2567
 6397TIP3    H140606   4.754   3.327  11.411 -0.7215  0.4131  0.2117
 6397TIP3    H240607   4.703   3.360  11.272  0.1949  0.8637 -0.0228
 6398TIP3   OH240608   3.414   6.355   4.843 -0.1884 -0.3882  0.0393
 6398TIP3    H140609   3.491   6.305   4.816 -0.0089 -0.6881  1.0752
 6398TIP3    H240610   3.343   6.291   4.843 -0.6317  0.0994 -1.8287
 6399TIP3   OH240611   4.112   1.248  15.864  0.5466 -0.0391  0.8718
 6399TIP3    H140612   4.022   1.279  15.877  0.7572  0.0254  2.2736
 6399TIP3    H240613   4.158   1.274  15.944  2.1657  1.1507 -0.3905
 6400TIP3   OH240614   6.293   0.577   0.089  0.7349  0.3232  0.6607
 6400TIP3    H140615   6.366   0.624   0.049  1.3278  0.5350  1.9661
 6400TIP3    H240616   6.331   0.535   0.166  0.0678 -1.7526 -0.1104
 6401TIP3   OH240617   3.278   5.283  12.757 -0.2108 -0.1922  0.0780
 6401TIP3    H140618   3.360   5.283  12.706  0.1892 -0.5834  0.7083
 6401TIP3    H240619   3.267   5.374  12.785 -1.0335  0.2608 -1.6403
 6402TIP3   OH240620   4.207   5.560  15.261  0.0330 -0.1897  0.3503
 6402TIP3    H140621   4.134   5.615  15.287 -0.4287 -0.5059 -0.2892
 6402TIP3    H240622   4.196   5.480  15.313  0.4412  0.1259  0.9308
 6403TIP3   OH240623   5.481   2.230  12.722 -0.5505 -0.0234 -0.0366
 6403TIP3    H140624   5.402   2.272  12.757 -1.8030 -1.1407 -1.4815
 6403TIP3    H240625   5.494   2.271  12.636  0.0107 -0.3950 -0.1333
 6404TIP3   OH240626   6.360   3.737   1.966 -0.3773  0.4017 -0.3492
 6404TIP3    H140627   6.335   3.829   1.962  0.1875  0.6635  1.4713
 6404TIP3    H240628   6.430   3.727   1.902  0.5755  1.5934  0.4927
 6405TIP3   OH240629   3.212   2.245  15.962  0.1734 -0.2524  0.1180
 6405TIP3    H140630   3.186   2.337  15.952  2.4281  0.6347  1.9742
 6405TIP3    H240631   3.178   2.202  15.884 -0.4228  2.2783 -1.0649
 6406TIP3   OH240632   0.966   1.662  12.856  0.2874 -0.0043  0.0734
 6406TIP3    H140633   0.988   1.669  12.763  0.9064 -1.5355  0.0760
 6406TIP3    H240634   0.896   1.597  12.860  1.2185 -0.9987  0.7796
 6407TIP3   OH240635   5.346   0.676   5.942  0.2916  0.3343  0.2281
 6407TIP3    H140636   5.384   0.760   5.915 -0.7359  0.7073 -0.0975
 6407TIP3    H240637   5.355   0.676   6.037  1.0113  0.4597  0.1663
 6408TIP3   OH240638   2.460   3.471  11.116  0.2654 -0.0856  0.0594
 6408TIP3    H140639   2.403   3.548  11.109  1.1826  0.6424  0.4274
 6408TIP3    H240640   2.403   3.402  11.152 -0.4345  0.5649  0.2241
 6409TIP3   OH240641   1.225   2.246  13.259  0.4841 -0.1721  0.2849
 6409TIP3    H140642   1.198   2.171  13.207  2.5858 -1.4040  0.9165
 6409TIP3    H240643   1.180   2.235  13.343 -0.3365  0.0679 -0.1189
 6410TIP3   OH240644   5.582   3.953  11.240  0.3502 -0.2559 -0.3519
 6410TIP3    H140645   5.631   3.874  11.218  1.0630 -0.9642  3.3912
 6410TIP3    H240646   5.645   4.024  11.230  0.2811 -0.3882 -1.7739
 6411TIP3   OH240647   2.628   2.711  13.706  0.2288  0.5115 -0.6744
 6411TIP3    H140648   2.625   2.652  13.631  0.3443 -1.6814  1.0085
 6411TIP3    H240649   2.716   2.700  13.741 -0.2054  0.6417  0.4716
 6412TIP3   OH240650   4.369   5.341  16.631 -0.3960  0.9681  0.2388
 6412TIP3    H140651   4.341   5.381  16.548 -0.0570  0.6922 -0.0087
 6412TIP3    H240652   4.430   5.405  16.668 -0.2122  0.8909  0.0677
 6413TIP3   OH240653   5.228   1.447   5.012 -0.7184  0.0796 -0.5872
 6413TIP3    H140654   5.196   1.536   5.001  0.4435  0.5198 -0.5155
 6413TIP3    H240655   5.165   1.392   4.965  0.2046  1.2210 -3.2782
 6414TIP3   OH240656   0.606   5.235   5.635  0.8063  0.1548  0.0685
 6414TIP3    H140657   0.517   5.239   5.670  0.5766 -1.4956 -0.2863
 6414TIP3    H240658   0.661   5.215   5.711  0.9720  1.7732  0.3994
 6415TIP3   OH240659   0.613   3.681   4.768  0.5048  0.0620 -0.2905
 6415TIP3    H140660   0.575   3.705   4.684  2.3805 -0.6895 -1.3723
 6415TIP3    H240661   0.708   3.688   4.755  0.8801 -1.8293  1.2136
 6416TIP3   OH240662   3.285   6.064   0.620 -0.2693  0.1414  0.4565
 6416TIP3    H140663   3.276   6.102   0.707 -0.9296  0.7702  0.1194
 6416TIP3    H240664   3.364   6.106   0.584  1.2144 -1.6644  1.5244
 6417TIP3   OH240665   2.385   3.373  16.426 -0.2122  0.5841  0.3789
 6417TIP3    H140666   2.372   3.302  16.488 -0.3903  1.4325  1.3275
 6417TIP3    H240667   2.466   3.351  16.380 -1.6126 -1.5401 -1.1583
 6418TIP3   OH240668   6.174   1.941  10.999  0.5904  0.8127 -0.3886
 6418TIP3    H140669   6.256   1.913  11.039  0.0976  1.7148  1.2886
 6418TIP3    H240670   6.177   1.904  10.911  0.9251 -2.7021  0.9924
 6419TIP3   OH240671   5.218   3.897   6.724  0.2791 -0.4170  0.2643
 6419TIP3    H140672   5.225   3.831   6.793  0.2762 -2.3341 -1.5063
 6419TIP3    H240673   5.124   3.914   6.716  0.2192 -0.7613  0.2297
 6420TIP3   OH240674   6.696   2.085   2.162  0.0057  0.5608  0.1045
 6420TIP3    H140675   6.622   2.118   2.211 -0.2408  2.7047 -1.6317
 6420TIP3    H240676   6.685   1.990   2.161 -1.7968  0.7544  1.2708
 6421TIP3   OH240677   1.222   4.462  14.163  0.6050  0.0861 -0.0304
 6421TIP3    H140678   1.223   4.375  14.204 -0.0921  0.7257  1.3657
 6421TIP3    H240679   1.311   4.494  14.172  0.7207 -0.2461 -0.0050
 6422TIP3   OH240680   1.500   5.084   2.149  0.8009  0.3566  0.1713
 6422TIP3    H140681   1.558   5.150   2.111  0.3653  0.2990 -0.5921
 6422TIP3    H240682   1.426   5.079   2.089  0.0588  0.3321  1.0815
 6423TIP3   OH240683   4.901   3.486  13.262  0.0105 -0.4625 -0.1945
 6423TIP3    H140684   4.824   3.524  13.219  0.9539  0.1909 -1.3442
 6423TIP3    H240685   4.965   3.558  13.264  0.2061 -0.6612  1.7598
 6424TIP3   OH240686   0.196   3.828   1.256 -0.0104  0.3137 -0.5374
 6424TIP3    H140687   0.252   3.900   1.228  1.3847 -0.2045  0.8201
 6424TIP3    H240688   0.255   3.753   1.266 -1.0522 -0.4277  0.2594
 6425TIP3   OH240689   3.846   3.313  15.630  0.1189  0.1072  0.3810
 6425TIP3    H140690   3.881   3.354  15.709  0.7173 -0.5407  0.4502
 6425TIP3    H240691   3.772   3.261  15.661 -0.6552  1.1245  0.2939
 6426TIP3   OH240692   5.562   1.487   1.666 -0.1423 -0.3123 -0.5307
 6426TIP3    H140693   5.543   1.568   1.618 -0.0915 -0.2456 -0.4379
 6426TIP3    H240694   5.582   1.424   1.597  0.1928 -0.1470 -0.5893
 6427TIP3   OH240695   3.017   4.676  11.869  0.2507  0.1581 -0.2529
 6427TIP3    H140696   2.931   4.691  11.829  0.6265 -0.3558 -1.2775
 6427TIP3    H240697   2.998   4.637  11.954 -0.5565  0.8623 -0.1052
 6428TIP3   OH240698   6.310   4.018   1.876 -0.3075  0.3568 -0.0600
 6428TIP3    H140699   6.292   4.088   1.813 -0.6771 -1.5557 -2.1696
 6428TIP3    H240700   6.403   3.998   1.864 -0.3212  0.1442  0.1822
 6429TIP3   OH240701   4.824   3.314  12.978  0.7975 -0.3445 -0.7691
 6429TIP3    H140702   4.794   3.228  13.008  1.7174 -0.4660 -0.1942
 6429TIP3    H240703   4.897   3.294  12.919 -1.1632 -0.1354 -3.3847
 6430TIP3   OH240704   6.326   2.988  11.187 -0.5800 -0.2873 -0.0510
 6430TIP3    H140705   6.315   3.082  11.174 -0.8854 -0.3928 -0.5654
 6430TIP3    H240706   6.289   2.971  11.273 -1.4767 -0.1082 -0.3965
 6431TIP3   OH240707   2.592   3.686  11.276 -0.1639  0.2115  0.5233
 6431TIP3    H140708   2.555   3.736  11.203  1.9410  0.9524 -0.0698
 6431TIP3    H240709   2.634   3.611  11.234  0.6415  0.3880  1.0121
 6432TIP3   OH240710   2.079   4.625   4.635 -0.3242  0.6889 -0.4282
 6432TIP3    H140711   2.106   4.614   4.544 -1.4600 -1.2587 -0.5673
 6432TIP3    H240712   2.148   4.678   4.674  1.7221 -0.9830 -1.6749
 6433TIP3   OH240713   0.457   0.052   5.906 -0.4535 -0.9959 -0.7419
 6433TIP3    H140714   0.373   0.093   5.927  0.2107  0.2205 -0.4507
 6433TIP3    H240715   0.462   0.056   5.811  0.1650  0.7468 -0.6580
 6434TIP3   OH240716   3.181   2.599   0.956  0.4298 -0.2646 -0.2472
 6434TIP3    H140717   3.113   2.533   0.970 -1.1346  1.3637 -0.0070
 6434TIP3    H240718   3.263   2.549   0.951 -0.4034 -1.9899  2.5983
 6435TIP3   OH240719   1.689   5.442   5.400 -0.2294 -0.0224  0.3876
 6435TIP3    H140720   1.636   5.432   5.480  0.6079 -1.4516  0.7897
 6435TIP3    H240721   1.626   5.437   5.329 -0.8292 -0.0978  0.9148
 6436TIP3   OH240722   4.113   1.912   3.911 -0.1388 -0.0321 -0.6368
 6436TIP3    H140723   4.204   1.889   3.932 -0.2629 -0.9461 -1.0638
 6436TIP3    H240724   4.074   1.938   3.994  0.5303  0.4348 -0.4628
 6437TIP3   OH240725   4.687   2.018  11.717  0.1635 -0.5481  0.6827
 6437TIP3    H140726   4.597   1.987  11.706  0.1427 -0.3861  0.3630
 6437TIP3    H240727   4.678   2.113  11.731  0.3965 -0.1604 -1.5169
 6438TIP3   OH240728   5.443   3.175  11.576  0.2651 -0.1977 -0.3542
 6438TIP3    H140729   5.497   3.104  11.540  1.5949  0.0698  1.0894
 6438TIP3    H240730   5.504   3.231  11.622 -1.1129  0.6931  0.4277
 6439TIP3   OH240731   1.568   1.650  11.998  0.1179  0.5321 -0.3578
 6439TIP3    H140732   1.566   1.574  11.941  0.9710  0.0526  0.2445
 6439TIP3    H240733   1.554   1.615  12.086  1.3471  0.9625  0.0197
 6440TIP3   OH240734   6.589   3.158   3.413 -0.1651 -0.4510  0.3999
 6440TIP3    H140735   6.525   3.198   3.471 -0.1628 -0.6912  0.5704
 6440TIP3    H240736   6.545   3.080   3.379 -0.9554  0.8044 -1.5701
 6441TIP3   OH240737   3.399   6.604  16.814  0.4535  0.0459 -0.3101
 6441TIP3    H140738   3.322   6.548  16.806 -0.4429  1.3264 -0.7492
 6441TIP3    H240739   3.366   6.685  16.854  1.6468  0.4449 -0.1157
 6442TIP3   OH240740   6.211   1.412   1.197  0.0578 -0.4342 -0.2114
 6442TIP3    H140741   6.199   1.322   1.225  0.9061  0.2418  2.5063
 6442TIP3    H240742   6.175   1.465   1.269 -0.7312  1.3973 -1.8946
 6443TIP3   OH240743   1.528   5.510   3.826 -0.6448 -0.3394  0.6042
 6443TIP3    H140744   1.549   5.485   3.736  0.3364 -2.1185  1.3095
 6443TIP3    H240745   1.520   5.606   3.823 -1.1128 -0.4157 -1.4673
 6444TIP3   OH240746   3.012   3.513   0.209  0.0162  0.1289 -0.3338
 6444TIP3    H140747   3.060   3.490   0.288 -2.4056 -1.1921  0.8098
 6444TIP3    H240748   2.971   3.597   0.230  0.5857  0.5135 -0.7492
 6445TIP3   OH240749   5.175   4.247   3.220  0.0731 -0.9762  1.4209
 6445TIP3    H140750   5.179   4.342   3.233 -0.4774 -0.8042  0.3770
 6445TIP3    H240751   5.164   4.211   3.308  1.2212 -0.1254  1.9279
 6446TIP3   OH240752   1.845   4.812  15.066 -0.3389  0.5784  0.1397
 6446TIP3    H140753   1.828   4.761  15.145  3.4759  0.2655  0.8757
 6446TIP3    H240754   1.903   4.756  15.014  0.1759  2.2815 -1.1448
 6447TIP3   OH240755   1.151   5.140   3.329  0.6923 -0.2309 -0.2233
 6447TIP3    H140756   1.163   5.058   3.378  0.5332  0.3856  0.8592
 6447TIP3    H240757   1.190   5.122   3.243 -0.5564 -1.8932 -0.4641
 6448TIP3   OH240758   6.726   5.399   5.085  0.3400 -0.6267 -0.5587
 6448TIP3    H140759   6.789   5.427   5.020  1.8148  0.4108  1.2533
 6448TIP3    H240760   6.745   5.454   5.162 -2.6722 -0.3680  0.0645
 6449TIP3   OH240761   5.588   5.951   3.673  0.4687  0.0550 -0.5348
 6449TIP3    H140762   5.661   5.915   3.724 -0.1821  0.1562  0.4936
 6449TIP3    H240763   5.625   5.968   3.587  1.5528 -0.3045 -0.1525
 6450TIP3   OH240764   1.282   1.067  12.328  0.0563  0.5818  0.1074
 6450TIP3    H140765   1.356   1.128  12.337 -0.3056  1.0134  0.1641
 6450TIP3    H240766   1.300   0.999  12.392  0.0380  1.0662  0.6304
 6451TIP3   OH240767   3.749   0.063   0.236  0.4881  0.2289  0.0439
 6451TIP3    H140768   3.688   0.132   0.210  1.8569  0.6684 -2.1481
 6451TIP3    H240769   3.807   0.052   0.160  0.4132 -3.2214  0.4178
 6452TIP3   OH240770   2.729   4.001  12.942  0.3087  0.3838  0.0702
 6452TIP3    H140771   2.714   3.922  12.889 -2.0002  1.1047 -0.4111
 6452TIP3    H240772   2.671   3.991  13.017 -1.0173  2.2036 -0.6620
 6453TIP3   OH240773   4.575   4.362  14.689 -0.1189 -0.5778 -0.4986
 6453TIP3    H140774   4.570   4.305  14.613 -1.3369 -0.9444 -0.1642
 6453TIP3    H240775   4.484   4.386  14.707  0.0796 -0.9606  1.1749
 6454TIP3   OH240776   1.188   1.040   5.413 -0.0970  0.1543  0.4452
 6454TIP3    H140777   1.169   1.011   5.502 -1.5422 -1.6874 -0.4306
 6454TIP3    H240778   1.283   1.041   5.407  0.0185  0.8737  2.1764
 6455TIP3   OH240779   5.036   2.073  15.864  0.0773  0.0544  0.0174
 6455TIP3    H140780   5.070   2.028  15.787  1.9567  2.2184 -0.4723
 6455TIP3    H240781   5.091   2.040  15.936  1.3532  1.3958 -0.3165
 6456TIP3   OH240782   3.115   2.497   4.066  0.2962 -0.0097  0.3879
 6456TIP3    H140783   3.046   2.551   4.029 -0.4237 -0.9893  0.2913
 6456TIP3    H240784   3.196   2.532   4.028  0.0404  2.2528  1.8227
 6457TIP3   OH240785   4.813   1.118   1.270  0.2059 -0.4393 -0.2432
 6457TIP3    H140786   4.723   1.119   1.304  0.6844  0.4534  1.0288
 6457TIP3    H240787   4.846   1.206   1.289  1.8206 -1.2133  0.5764
 6458TIP3   OH240788   0.781   0.265  11.789 -0.0941  0.0031 -0.7271
 6458TIP3    H140789   0.778   0.241  11.697 -1.2969  0.7412 -0.8808
 6458TIP3    H240790   0.764   0.359  11.791  0.6609  0.1347  0.1933
 6459TIP3   OH240791   2.787   1.433  14.479 -0.4692 -0.1536  1.0081
 6459TIP3    H140792   2.784   1.418  14.385 -2.8931  0.3682  0.9460
 6459TIP3    H240793   2.879   1.449  14.499  0.1657 -1.0257 -1.1393
 6460TIP3   OH240794   3.057   6.612  16.650  0.3785  0.1827 -0.3473
 6460TIP3    H140795   3.085   6.686  16.596  0.3738  0.5042  0.0896
 6460TIP3    H240796   3.060   6.645  16.740 -0.3623 -0.1138 -0.2112
 6461TIP3   OH240797   4.397   5.396   4.826  0.6112 -0.2862  0.1143
 6461TIP3    H140798   4.465   5.358   4.881  1.8491  2.9830  0.9759
 6461TIP3    H240799   4.428   5.485   4.808 -2.4084  0.5497 -1.2903
 6462TIP3   OH240800   6.321   1.934   2.391  0.9156 -0.0006 -0.2090
 6462TIP3    H140801   6.335   1.914   2.484 -0.0234  0.1862 -0.0263
 6462TIP3    H240802   6.312   2.029   2.388 -0.7841 -0.1457 -0.2518
 6463TIP3   OH240803   2.865   0.560   3.576  0.1560 -0.1318  0.4557
 6463TIP3    H140804   2.822   0.547   3.492  1.4473 -0.7863 -0.1118
 6463TIP3    H240805   2.906   0.646   3.569  0.7781 -0.4501  0.1904
 6464TIP3   OH240806   5.504   1.461  15.111 -0.7437 -0.4330  0.2589
 6464TIP3    H140807   5.513   1.429  15.021 -0.9691  0.4987 -0.1004
 6464TIP3    H240808   5.588   1.505  15.128 -0.7540 -0.4921  0.4578
 6465TIP3   OH240809   5.666   1.698  12.345  0.3033 -0.2844  0.2615
 6465TIP3    H140810   5.745   1.701  12.399  0.4851  0.6971 -0.0395
 6465TIP3    H240811   5.595   1.680  12.406  0.5353  0.6066  0.8077
 6466TIP3   OH240812   0.346   4.560   2.530  0.0690 -0.4499 -0.4705
 6466TIP3    H140813   0.360   4.469   2.502 -0.8895 -1.1249  1.2205
 6466TIP3    H240814   0.270   4.556   2.587  0.8857  1.2015  0.7518
 6467TIP3   OH240815   1.774   1.408  12.200  0.3979 -0.1964 -0.0057
 6467TIP3    H140816   1.713   1.341  12.169 -0.6073  1.0580 -0.7855
 6467TIP3    H240817   1.814   1.442  12.121  2.3657 -1.2048  0.5202
 6468TIP3   OH240818   5.457   2.557   5.995  0.4535 -0.4865  0.2405
 6468TIP3    H140819   5.381   2.599   6.035  0.1604 -0.0823 -0.7219
 6468TIP3    H240820   5.527   2.565   6.060  0.3968  1.4431  0.0978
 6469TIP3   OH240821   6.194   2.092   3.858 -0.6474  0.0403  0.0763
 6469TIP3    H140822   6.162   2.131   3.777  0.1267 -0.1105 -0.3098
 6469TIP3    H240823   6.117   2.050   3.897 -1.3376  1.3836  0.1688
 6470TIP3   OH240824   2.454   5.584   1.326  0.8364  0.1713 -0.0093
 6470TIP3    H140825   2.425   5.547   1.242 -1.3890  0.0537  0.7834
 6470TIP3    H240826   2.430   5.676   1.321  0.2989  0.0742  0.6573
 6471TIP3   OH240827   6.355   3.571  16.943 -0.0272 -0.6466 -0.2193
 6471TIP3    H140828   6.419   3.623  16.895  0.1091  1.8038  2.4720
 6471TIP3    H240829   6.407   3.503  16.986  0.1751 -1.2713 -1.4270
 6472TIP3   OH240830   1.716   4.951  16.104 -0.1222  0.0634 -0.0698
 6472TIP3    H140831   1.636   4.943  16.052  0.9441  0.9156 -1.8663
 6472TIP3    H240832   1.785   4.915  16.049  1.0320  0.9983  0.7320
 6473TIP3   OH240833   1.653   3.907  15.414  0.1210 -0.0004  0.4017
 6473TIP3    H140834   1.564   3.874  15.426  0.4103  0.0083  2.7146
 6473TIP3    H240835   1.650   3.998  15.442  1.1846 -0.4361  2.0384
 6474TIP3   OH240836   2.854   3.713   0.333 -0.3649 -0.1388  0.2879
 6474TIP3    H140837   2.821   3.780   0.273 -0.9705 -0.5641  0.1470
 6474TIP3    H240838   2.887   3.763   0.408  0.4113  0.3983 -0.3935
 6475TIP3   OH240839   0.448   4.126  17.205  0.0428  0.4333  0.0278
 6475TIP3    H140840   0.522   4.171  17.166  0.7030 -0.0558  0.7051
 6475TIP3    H240841   0.371   4.165  17.163  0.6552  1.3775 -0.2184
 6476TIP3   OH240842   3.095   5.192   2.848  0.2819 -0.3282 -1.0160
 6476TIP3    H140843   3.187   5.172   2.830  0.2751 -0.4513 -0.9118
 6476TIP3    H240844   3.055   5.108   2.867 -0.1196 -0.4183 -2.2222
 6477TIP3   OH240845   6.646   2.315   0.318  0.2105  0.7174  0.4804
 6477TIP3    H140846   6.591   2.307   0.240  2.0452  0.4900 -0.8403
 6477TIP3    H240847   6.651   2.409   0.335  1.4874  0.9331 -0.9544
 6478TIP3   OH240848   3.642   2.498  15.530 -0.0479  0.3300  0.3741
 6478TIP3    H140849   3.676   2.488  15.619  1.6133 -0.0388 -0.2948
 6478TIP3    H240850   3.621   2.408  15.502 -2.5103  0.6284  1.1182
 6479TIP3   OH240851   6.472   3.097  15.032 -0.2272  0.2343 -0.1001
 6479TIP3    H140852   6.532   3.085  14.958  1.4531 -0.0342  1.2661
 6479TIP3    H240853   6.442   3.009  15.053 -0.5045  0.2796 -0.3135
 6480TIP3   OH240854   5.201   3.955   3.307 -0.0196  0.7068  0.4133
 6480TIP3    H140855   5.274   4.005   3.270 -0.5256  1.2188  0.0999
 6480TIP3    H240856   5.220   3.952   3.401  0.6753  0.3866  0.2702
 6481TIP3   OH240857   5.547   4.077  11.838 -0.8812 -0.1425  0.0435
 6481TIP3    H140858   5.602   4.054  11.763 -0.4669  0.3746  0.1897
 6481TIP3    H240859   5.588   4.034  11.913 -0.8432  0.0040  0.1065
 6482TIP3   OH240860   6.139   0.998  12.406  0.1122  0.2506  0.3555
 6482TIP3    H140861   6.224   1.002  12.362 -0.4783 -2.0804 -1.1234
 6482TIP3    H240862   6.076   1.030  12.341 -0.4996 -1.1001  0.2551
 6483TIP3   OH240863   4.080   0.768  12.351  0.0085 -0.1103  0.4848
 6483TIP3    H140864   4.082   0.675  12.326  0.1481 -0.6027  2.3044
 6483TIP3    H240865   4.120   0.813  12.276 -2.2659 -1.2488 -1.4819
 6484TIP3   OH240866   4.945   0.268  16.258  0.5619 -0.7726  0.4031
 6484TIP3    H140867   4.876   0.229  16.312 -0.4268 -1.3123 -1.2366
 6484TIP3    H240868   5.020   0.209  16.269  0.5216 -0.6323  1.5213
 6485TIP3   OH240869   1.410   1.564   5.512  0.1665  0.2446  0.2039
 6485TIP3    H140870   1.491   1.515   5.526  0.2097  0.4103  0.5456
 6485TIP3    H240871   1.433   1.655   5.532 -0.1739  0.2532  0.5620
 6486TIP3   OH240872   2.653   0.812   2.693 -0.0285 -0.0063  0.5740
 6486TIP3    H140873   2.635   0.884   2.632 -0.1659 -0.1736  0.4150
 6486TIP3    H240874   2.590   0.824   2.763  0.9109  0.8765  1.2778
 6487TIP3   OH240875   5.795   0.412  12.388  0.3199  0.3054  0.2907
 6487TIP3    H140876   5.767   0.321  12.378  0.0746  0.5228 -1.0325
 6487TIP3    H240877   5.755   0.458  12.315 -1.2629  1.8862  2.1103
 6488TIP3   OH240878   3.598   3.385   5.292  1.2445  0.0333  0.0128
 6488TIP3    H140879   3.551   3.367   5.211  0.9279 -1.5760  0.5300
 6488TIP3    H240880   3.687   3.355   5.276  0.7180 -2.1561  0.8710
 6489TIP3   OH240881   5.384   5.276   1.543 -0.3046 -0.1366 -0.0517
 6489TIP3    H140882   5.299   5.247   1.576  0.0169  0.2445  1.1174
 6489TIP3    H240883   5.445   5.208   1.570 -0.0823  0.0509 -0.0817
 6490TIP3   OH240884   0.637   2.909  14.524  0.9488 -0.2223 -0.0732
 6490TIP3    H140885   0.720   2.862  14.510  1.1516  0.3278 -0.7791
 6490TIP3    H240886   0.592   2.860  14.592  1.8158 -0.5871  0.2375
 6491TIP3   OH240887   6.197   4.178   1.430  0.5754 -0.5668 -0.8831
 6491TIP3    H140888   6.116   4.129   1.443 -0.8675  2.1442  0.9088
 6491TIP3    H240889   6.237   4.139   1.352 -0.8166 -4.0387  0.0498
 6492TIP3   OH240890   5.950   6.206  14.389 -0.0226 -0.2353  0.3554
 6492TIP3    H140891   5.871   6.164  14.357  0.4350 -0.3694 -0.6298
 6492TIP3    H240892   5.941   6.297  14.363  0.2333 -0.2895  0.0780
 6493TIP3   OH240893   2.325   3.464  14.341  0.2560 -0.3886 -0.0525
 6493TIP3    H140894   2.344   3.510  14.259  1.1050  1.8157  1.3255
 6493TIP3    H240895   2.232   3.442  14.335 -0.3801  2.2098 -0.4786
 6494TIP3   OH240896   2.358   4.897  15.114 -0.0204  0.0024 -0.2427
 6494TIP3    H140897   2.323   4.947  15.040 -0.1809  0.4382  0.1255
 6494TIP3    H240898   2.282   4.852  15.151 -0.2111  1.0110  0.6062
 6495TIP3   OH240899   5.560   6.209   3.439 -0.1723 -0.3012  0.1497
 6495TIP3    H140900   5.614   6.131   3.427  0.5925 -0.0938  2.1656
 6495TIP3    H240901   5.613   6.281   3.405  0.2633 -0.2758  0.8906
 6496TIP3   OH240902   5.862   6.044   1.273 -0.2411  0.8114  0.2041
 6496TIP3    H140903   5.869   6.047   1.369  1.0599  2.7608  0.0872
 6496TIP3    H240904   5.768   6.040   1.256 -0.4116 -1.5478  1.5810
 6497TIP3   OH240905   0.754   6.259  13.709  0.1749  0.0304 -0.2047
 6497TIP3    H140906   0.753   6.174  13.753 -0.4302 -0.4716 -1.1631
 6497TIP3    H240907   0.835   6.259  13.659 -1.5517 -1.5585 -3.1531
 6498TIP3   OH240908   2.459   1.943  13.948  0.0803  0.4871 -0.3335
 6498TIP3    H140909   2.462   1.848  13.943 -1.2713  0.4189  0.0105
 6498TIP3    H240910   2.437   1.971  13.859 -0.1646  0.4555 -0.2809
 6499TIP3   OH240911   5.167   2.066   1.200  0.3267  0.2791  0.0391
 6499TIP3    H140912   5.108   2.017   1.143 -0.0558 -0.3090  0.9331
 6499TIP3    H240913   5.202   2.001   1.261  0.0532  1.0417  1.0357
 6500TIP3   OH240914   0.309   0.505   0.994  0.4312 -0.0724 -0.3105
 6500TIP3    H140915   0.347   0.593   0.994  0.0473  0.1033 -1.8999
 6500TIP3    H240916   0.217   0.518   1.015  0.5374 -0.1748  0.2252
 6501TIP3   OH240917   4.239   6.246  16.340 -0.4260 -0.2862  0.4226
 6501TIP3    H140918   4.304   6.267  16.274 -0.1227 -1.2121  0.4206
 6501TIP3    H240919   4.290   6.226  16.419 -0.8331  2.1745  1.3491
 6502TIP3   OH240920   3.657   0.547  13.638  0.2696 -0.2775 -0.5108
 6502TIP3    H140921   3.670   0.523  13.730  0.7678  2.4272  0.1942
 6502TIP3    H240922   3.744   0.575  13.609  0.3716 -2.2994 -2.2031
 6503TIP3   OH240923   3.888   6.270  12.952 -0.2474  0.0791  0.7942
 6503TIP3    H140924   3.811   6.304  12.997 -0.8561 -0.7412  0.3713
 6503TIP3    H240925   3.929   6.348  12.913 -0.9436  0.4924  0.8803
 6504TIP3   OH240926   1.527   3.714  15.780  0.0309  0.2276 -0.2561
 6504TIP3    H140927   1.607   3.710  15.728  0.6745 -0.3768  0.7678
 6504TIP3    H240928   1.481   3.632  15.760  1.1007 -0.8148  1.4025
 6505TIP3   OH240929   5.203   1.203  13.762  0.3409 -0.2549  0.4243
 6505TIP3    H140930   5.115   1.167  13.776 -0.1368  1.5824  2.4144
 6505TIP3    H240931   5.262   1.131  13.785 -0.6187 -1.1462  0.1645
 6506TIP3   OH240932   2.006   6.400  15.718 -0.4538 -0.8635  0.1054
 6506TIP3    H140933   2.076   6.340  15.690 -0.3364 -0.9982  0.6829
 6506TIP3    H240934   1.994   6.381  15.811  1.6801  2.0567  1.0702
 6507TIP3   OH240935   1.040   3.394   4.094  0.1136 -0.4890  0.1109
 6507TIP3    H140936   1.065   3.332   4.026 -0.2241 -1.7084  1.0812
 6507TIP3    H240937   1.069   3.479   4.060  2.4192 -1.4036 -0.3600
 6508TIP3   OH240938   6.257   4.173  16.200  0.1500  0.4427  0.3788
 6508TIP3    H140939   6.185   4.156  16.139  0.4008 -0.0507  0.2195
 6508TIP3    H240940   6.223   4.241  16.258  0.2988  1.7047 -0.9923
 6509TIP3   OH240941   5.719   0.120   2.829  0.0348 -0.2693  0.4644
 6509TIP3    H140942   5.730   0.211   2.802 -0.1934 -1.2566 -3.1836
 6509TIP3    H240943   5.808   0.091   2.849  0.6173 -0.2607 -1.9385
 6510TIP3   OH240944   6.724   0.725  12.905 -0.6674  0.2553  0.8468
 6510TIP3    H140945   6.711   0.810  12.948  1.7435  0.8719  0.4130
 6510TIP3    H240946   6.710   0.744  12.812 -0.3788  0.1112  0.7768
 6511TIP3   OH240947   3.547   0.208   0.154  0.0597 -0.1005 -0.1070
 6511TIP3    H140948   3.506   0.261   0.086  1.8296  2.0400  0.4228
 6511TIP3    H240949   3.477   0.193   0.218 -0.3130  2.1502  0.0331
 6512TIP3   OH240950   4.186   3.164  13.814  0.6259 -0.2683 -0.2232
 6512TIP3    H140951   4.239   3.107  13.759  2.0788 -0.2602  1.1293
 6512TIP3    H240952   4.163   3.109  13.890  0.4820  0.3803  0.2043
 6513TIP3   OH240953   6.000   4.425  12.123 -0.3316 -0.1053  0.2553
 6513TIP3    H140954   5.954   4.355  12.077  0.6310 -0.6278  0.0892
 6513TIP3    H240955   6.000   4.397  12.215 -0.7386  0.1124  0.3237
 6514TIP3   OH240956   5.109   5.651   2.247 -0.6638  0.1491 -0.2492
 6514TIP3    H140957   5.111   5.734   2.200  1.9860 -0.2051 -0.8579
 6514TIP3    H240958   5.044   5.599   2.200 -1.8251  1.6110 -0.3016
 6515TIP3   OH240959   3.053   0.412   4.601  0.5003  0.1271 -0.0307
 6515TIP3    H140960   3.033   0.490   4.652 -0.5948  0.6712 -1.2313
 6515TIP3    H240961   3.141   0.427   4.566  0.7840  0.2683  0.7458
 6516TIP3   OH240962   5.076   3.165  10.423  0.2886 -0.2008 -0.8319
 6516TIP3    H140963   5.044   3.203  10.505 -0.0729 -1.9900 -0.1171
 6516TIP3    H240964   5.171   3.178  10.426  0.4670 -1.7375  0.6643
 6517TIP3   OH240965   0.362   0.657  14.947  1.1444 -0.5394  0.2581
 6517TIP3    H140966   0.432   0.704  14.901  1.2173 -1.5796 -0.7075
 6517TIP3    H240967   0.355   0.573  14.901  0.3152 -1.0635  1.3200
 6518TIP3   OH240968   2.907   3.806   2.743 -0.7629 -0.1815 -0.1495
 6518TIP3    H140969   2.974   3.845   2.799 -0.1996 -0.2548 -0.7666
 6518TIP3    H240970   2.857   3.750   2.802 -1.9432  1.8750  0.8776
 6519TIP3   OH240971   0.180   2.166  15.622 -0.6816  0.0811  0.0848
 6519TIP3    H140972   0.231   2.246  15.608  1.8703 -1.3796  0.8315
 6519TIP3    H240973   0.095   2.198  15.654  0.0735  2.5180 -0.2420
 6520TIP3   OH240974   6.087   0.914  12.015  0.1648 -0.5873 -0.0902
 6520TIP3    H140975   6.043   0.966  12.083 -0.3848 -0.4018 -0.5829
 6520TIP3    H240976   6.106   0.831  12.057  1.3375  0.1191  0.8091
 6521TIP3   OH240977   3.473   5.383  11.887 -0.5332  0.3924 -0.9705
 6521TIP3    H140978   3.419   5.357  11.961 -0.1599  1.8325 -0.1853
 6521TIP3    H240979   3.532   5.308  11.873  0.8133  0.9221  1.5421
 6522TIP3   OH240980   0.057   5.245  11.744 -0.7027 -0.1485 -0.0878
 6522TIP3    H140981  -0.008   5.259  11.813  1.1935  0.6975  1.5597
 6522TIP3    H240982   0.061   5.150  11.734 -0.9626 -0.2783  0.9874
 6523TIP3   OH240983   1.606   2.507   1.737  0.4430  0.4909 -0.8517
 6523TIP3    H140984   1.609   2.557   1.819 -1.3315 -0.9635  0.1638
 6523TIP3    H240985   1.695   2.474   1.726  0.6187  0.3423  0.7725
 6524TIP3   OH240986   5.324   1.716   5.629 -0.1903 -0.0156 -0.1709
 6524TIP3    H140987   5.373   1.661   5.689  0.1562  0.0544 -0.3908
 6524TIP3    H240988   5.296   1.791   5.683  0.7588  0.4199 -0.2755
 6525TIP3   OH240989   4.174   0.932  12.061 -0.0388  0.8088 -0.1946
 6525TIP3    H140990   4.086   0.965  12.080  0.0278  0.5139  0.6293
 6525TIP3    H240991   4.192   0.963  11.972 -1.9753 -1.2678 -1.3654
 6526TIP3   OH240992   1.879   5.862  12.031  0.5105 -0.2631 -0.0385
 6526TIP3    H140993   1.910   5.833  12.117  1.1101 -0.1101 -0.2036
 6526TIP3    H240994   1.903   5.955  12.027  1.0502 -0.4251 -0.6274
 6527TIP3   OH240995   1.266   1.634   3.761  0.5661  0.3435  0.0402
 6527TIP3    H140996   1.192   1.600   3.710 -0.5595 -0.0811  1.8877
 6527TIP3    H240997   1.343   1.608   3.712 -0.4546 -0.8977 -0.9472
 6528TIP3   OH240998   5.443   1.004  11.674  0.0522  0.0406  0.1498
 6528TIP3    H140999   5.441   0.913  11.706  0.1092 -0.2739 -0.7246
 6528TIP3    H241000   5.477   0.997  11.585 -1.0147  0.8020 -0.3257
 6529TIP3   OH241001   0.779   5.286  16.502  0.2995  0.2000  0.1052
 6529TIP3    H141002   0.753   5.376  16.484 -0.1674  0.0741  0.1625
 6529TIP3    H241003   0.849   5.269  16.438 -0.3067  0.2684 -0.5897
 6530TIP3   OH241004   3.295   3.176  13.284 -0.3325 -0.8102 -0.2003
 6530TIP3    H141005   3.230   3.118  13.244 -1.7947 -0.4128  1.5233
 6530TIP3    H241006   3.249   3.217  13.357  1.9980 -0.8418  1.3437
 6531TIP3   OH241007   4.362   1.535   6.636 -0.6859 -0.4224 -0.0937
 6531TIP3    H141008   4.423   1.481   6.585 -1.7194 -1.7562  0.0426
 6531TIP3    H241009   4.383   1.625   6.611 -1.8642 -1.0564 -3.7105
 6532TIP3   OH241010   6.201   2.840   6.643  0.1394  0.2203 -0.2897
 6532TIP3    H141011   6.111   2.853   6.673 -0.4501 -1.8213 -1.1157
 6532TIP3    H241012   6.249   2.817   6.722  0.1231  2.0867  0.2895
 6533TIP3   OH241013   3.223   5.466  14.489 -0.3336  0.1144  0.1215
 6533TIP3    H141014   3.174   5.527  14.544  1.0927  1.4170 -0.0272
 6533TIP3    H241015   3.290   5.429  14.548  0.4780  0.6683 -0.4514
 6534TIP3   OH241016   5.894   4.434   3.591 -0.4123 -0.0295  0.1499
 6534TIP3    H141017   5.912   4.527   3.576  0.0949 -0.2929 -0.9517
 6534TIP3    H241018   5.979   4.397   3.617 -0.5039 -0.2720  0.1092
 6535TIP3   OH241019   3.656   6.535   1.089 -1.0421 -0.3887  0.0258
 6535TIP3    H141020   3.644   6.440   1.092 -1.1169 -0.4264 -1.1940
 6535TIP3    H241021   3.734   6.547   1.034 -1.5933  0.2828 -0.6239
 6536TIP3   OH241022   4.071   3.876  14.793 -0.6508  0.1353 -0.6094
 6536TIP3    H141023   4.135   3.921  14.739 -0.7741  0.9280 -0.0923
 6536TIP3    H241024   3.991   3.928  14.784 -1.4214 -1.2105 -1.7835
 6537TIP3   OH241025   3.083   1.221  16.740  0.1557 -0.2798 -0.3707
 6537TIP3    H141026   2.992   1.248  16.727 -0.2038 -0.6742  1.1229
 6537TIP3    H241027   3.116   1.200  16.653 -0.8608  0.8865 -1.0421
 6538TIP3   OH241028   5.530   6.786  12.405 -0.1034 -0.0056  0.2354
 6538TIP3    H141029   5.513   6.867  12.454  1.1113  0.2635  0.2288
 6538TIP3    H241030   5.557   6.723  12.472 -2.0954 -0.7319  0.3843
 6539TIP3   OH241031   5.220   1.721   3.450 -0.4772 -0.0854 -0.7233
 6539TIP3    H141032   5.278   1.652   3.482  0.1143  0.9056  0.3860
 6539TIP3    H241033   5.133   1.681   3.449 -0.0993 -0.9316 -0.3524
 6540TIP3   OH241034   5.066   0.099   0.476 -0.0064 -0.5432  0.7105
 6540TIP3    H141035   5.059   0.192   0.496 -2.5044 -0.3131 -0.9631
 6540TIP3    H241036   5.157   0.086   0.449  0.0188  1.6967 -0.3309
 6541TIP3   OH241037   3.272   2.799   0.038  0.4205 -0.9228  0.8566
 6541TIP3    H141038   3.329   2.872   0.015  0.8991 -1.1323  1.3616
 6541TIP3    H241039   3.248   2.758  -0.045 -0.2918  0.1404  0.5276
 6542TIP3   OH241040   6.775   2.041  12.313  0.1902 -0.5211  0.0784
 6542TIP3    H141041   6.688   2.011  12.340 -0.3085 -0.1433 -1.0917
 6542TIP3    H241042   6.806   2.095  12.386 -0.9447  0.1003  0.1102
 6543TIP3   OH241043   0.700   4.408   2.041  0.2132 -0.2545 -0.3717
 6543TIP3    H141044   0.734   4.377   2.125  0.6562  2.5912  0.5802
 6543TIP3    H241045   0.772   4.392   1.979  1.0105  0.2455  0.4074
 6544TIP3   OH241046   0.887   5.412  14.957  0.6696 -0.2146  0.3474
 6544TIP3    H141047   0.811   5.442  14.908  0.3468 -1.6300 -0.0653
 6544TIP3    H241048   0.939   5.363  14.893 -0.4669 -3.3096  1.6828
 6545TIP3   OH241049   1.303   0.394   4.791  0.0511  0.4895 -0.7209
 6545TIP3    H141050   1.276   0.307   4.764  0.0889  1.1643 -3.0827
 6545TIP3    H241051   1.327   0.385   4.883 -2.1131 -1.4812 -0.3061
 6546TIP3   OH241052   6.009   0.426   4.082  0.3680 -1.1472  0.0408
 6546TIP3    H141053   6.073   0.498   4.076  0.3558 -1.0957  0.4950
 6546TIP3    H241054   6.059   0.353   4.118  0.6152 -1.6614 -1.3533
 6547TIP3   OH241055   3.352   6.592  15.365 -0.1284 -0.0685 -0.1623
 6547TIP3    H141056   3.317   6.602  15.453  0.1124 -5.3747  0.6899
 6547TIP3    H241057   3.446   6.602  15.375  0.1461 -3.1306  0.7135
 6548TIP3   OH241058   2.654   1.951  11.452 -0.1571 -0.2202 -0.2297
 6548TIP3    H141059   2.746   1.925  11.463  0.0394  0.8222  0.6397
 6548TIP3    H241060   2.610   1.871  11.422  1.0967 -0.6422 -1.0016
 6549TIP3   OH241061   5.973   4.824   5.477  0.0695  0.2744  1.0820
 6549TIP3    H141062   6.004   4.915   5.472 -0.5848  0.5581  2.1110
 6549TIP3    H241063   5.986   4.799   5.569  0.8033 -0.8773  0.6835
 6550TIP3   OH241064   1.054   3.632   5.407  0.3146 -0.2320 -0.1077
 6550TIP3    H141065   1.077   3.591   5.491  1.5419  2.4577  0.9280
 6550TIP3    H241066   0.958   3.635   5.408  0.2880 -0.9865  0.8151
 6551TIP3   OH241067   5.667   0.610   0.776  0.4623  0.6210 -0.2704
 6551TIP3    H141068   5.665   0.540   0.841  1.3889  1.2879  0.4810
 6551TIP3    H241069   5.716   0.573   0.702  3.5617  1.4489  1.2912
 6552TIP3   OH241070   4.793   1.895   1.639  1.4490 -0.1512  0.0156
 6552TIP3    H141071   4.851   1.904   1.563  2.3419  1.9378  0.9004
 6552TIP3    H241072   4.795   1.981   1.681 -1.2905 -0.4285  0.8091
 6553TIP3   OH241073   1.364   3.863   6.022  0.1310 -0.1863  0.0477
 6553TIP3    H141074   1.333   3.886   5.934 -1.2115 -0.9645  0.2963
 6553TIP3    H241075   1.294   3.809   6.058  2.1151 -2.6513  0.3684
 6554TIP3   OH241076   1.722   4.425   3.424 -0.1778 -0.3280 -0.7111
 6554TIP3    H141077   1.711   4.347   3.370  1.2736 -1.2199  0.2530
 6554TIP3    H241078   1.748   4.392   3.510  0.2145  1.2024 -0.2209
 6555TIP3   OH241079   2.378   3.255  15.697 -0.3719  0.1336  0.2260
 6555TIP3    H141080   2.384   3.309  15.618  1.5934 -2.2454 -1.3369
 6555TIP3    H241081   2.364   3.317  15.768 -1.2040  2.4092 -1.8656
 6556TIP3   OH241082   0.919   5.034   3.605  0.4079  0.0232  0.0100
 6556TIP3    H141083   0.908   5.129   3.598 -2.5126 -0.3829 -1.8470
 6556TIP3    H241084   0.857   5.008   3.673 -0.1192 -0.7704 -0.7704
 6557TIP3   OH241085   0.485   1.512  10.707 -0.2801  0.1933  0.2503
 6557TIP3    H141086   0.509   1.498  10.799  0.6492  1.2574  0.1812
 6557TIP3    H241087   0.568   1.533  10.664 -0.8877  0.8563 -0.6025
 6558TIP3   OH241088   6.503   0.772  13.079 -0.6730  0.6057  0.2950
 6558TIP3    H141089   6.523   0.695  13.132 -0.5606  1.2026  1.1095
 6558TIP3    H241090   6.569   0.837  13.103  2.3323 -0.6692 -3.9435
 6559TIP3   OH241091   6.106   1.193  12.580  0.5927  0.3154 -0.0951
 6559TIP3    H141092   6.084   1.112  12.534 -0.3618 -0.1690  1.1680
 6559TIP3    H241093   6.058   1.261  12.532 -0.8183 -0.2570  0.4827
 6560TIP3   OH241094   2.444   6.069   5.073  0.5453 -0.2093 -0.2576
 6560TIP3    H141095   2.509   6.094   5.007  0.2109 -0.6591 -0.7523
 6560TIP3    H241096   2.379   6.140   5.070 -1.6490 -2.2435 -3.3132
 6561TIP3   OH241097   6.164   1.556  14.416  0.0383 -1.0073 -0.5851
 6561TIP3    H141098   6.166   1.463  14.392  0.2214 -0.9591 -0.7576
 6561TIP3    H241099   6.115   1.559  14.498  1.4937 -1.4498  0.3188
 6562TIP3   OH241100   2.111   2.249  15.809  0.5802  0.2667 -0.3907
 6562TIP3    H141101   2.082   2.340  15.813 -0.2527 -0.0063 -0.1867
 6562TIP3    H241102   2.079   2.210  15.891 -1.7742 -0.9972 -1.8723
 6563TIP3   OH241103   0.756   2.068   0.258 -0.0544  0.0325  0.2083
 6563TIP3    H141104   0.718   2.146   0.299  0.7671  0.9110 -0.6868
 6563TIP3    H241105   0.706   1.996   0.296 -0.1624  0.9089  1.8005
 6564TIP3   OH241106   3.637   6.202   5.321  0.8242  0.0942  0.3616
 6564TIP3    H141107   3.598   6.265   5.382 -1.3913 -0.1270 -0.7789
 6564TIP3    H241108   3.631   6.118   5.368  1.8646  0.3849  1.0329
 6565TIP3   OH241109   2.922   5.549  12.850 -0.5365  0.3083 -0.1459
 6565TIP3    H141110   2.993   5.507  12.898 -0.9031  0.2214  0.3259
 6565TIP3    H241111   2.961   5.574  12.766 -0.4287 -1.4065 -0.6302
 6566TIP3   OH241112   1.800   5.722   5.304 -0.4193 -0.0153 -0.2769
 6566TIP3    H141113   1.881   5.772   5.310 -0.2682 -0.2464 -0.4237
 6566TIP3    H241114   1.824   5.633   5.328 -0.8094  0.1031  0.5815
 6567TIP3   OH241115   0.947   5.392   3.320 -0.3224 -0.0103 -0.1034
 6567TIP3    H141116   1.027   5.362   3.364 -0.5694  0.3792  0.6194
 6567TIP3    H241117   0.978   5.437   3.242  0.0666 -2.0801 -1.1814
 6568TIP3   OH241118   3.279   3.530  12.871  0.6171 -0.3482  0.1928
 6568TIP3    H141119   3.280   3.572  12.957  0.4043  1.1322 -0.5185
 6568TIP3    H241120   3.338   3.583  12.817  0.5207 -1.0908 -0.6543
 6569TIP3   OH241121   0.936   6.721   3.680  0.1082 -0.3564 -0.4651
 6569TIP3    H141122   1.019   6.750   3.641  0.5797 -1.6367 -0.4235
 6569TIP3    H241123   0.901   6.657   3.619  0.4065 -1.6999  0.7357
 6570TIP3   OH241124   4.140   0.670  13.975  0.0455 -0.0513  0.7963
 6570TIP3    H141125   4.148   0.576  13.994  0.4367  0.3133  2.4755
 6570TIP3    H241126   4.190   0.713  14.044  1.5472  1.3345 -1.1051
 6571TIP3   OH241127   2.651   3.115  15.798  0.3628  0.1395 -0.4492
 6571TIP3    H141128   2.681   3.138  15.886  1.7031  0.9371 -1.0892
 6571TIP3    H241129   2.717   3.054  15.765 -1.5803 -2.3071  0.0958
 6572TIP3   OH241130   1.424   1.492   0.684 -0.5371  0.4448 -0.4218
 6572TIP3    H141131   1.479   1.543   0.625 -1.7431  1.8551 -0.3310
 6572TIP3    H241132   1.340   1.485   0.640 -1.1444  0.6483  0.6880
 6573TIP3   OH241133   1.992   6.319  15.983 -0.4786 -0.1959  0.1725
 6573TIP3    H141134   2.030   6.405  16.001 -3.1634  1.1503 -0.2302
 6573TIP3    H241135   1.991   6.275  16.068  1.8647 -0.2648  0.1926
 6574TIP3   OH241136   3.182   2.438  11.534 -0.0851  0.0361 -0.4466
 6574TIP3    H141137   3.232   2.358  11.551  0.9468  0.4950 -1.2589
 6574TIP3    H241138   3.090   2.411  11.537  0.2121 -0.8808  0.7539
 6575TIP3   OH241139   1.711   3.118   2.522 -0.3176  0.7554 -0.9311
 6575TIP3    H141140   1.667   3.076   2.596  0.5099 -1.0358 -1.4428
 6575TIP3    H241141   1.640   3.144   2.463 -0.9213  1.3828  0.0484
 6576TIP3   OH241142   5.369   3.864   1.632 -0.0619 -0.1070 -0.0765
 6576TIP3    H141143   5.298   3.802   1.614  0.1816 -0.2098 -0.7277
 6576TIP3    H241144   5.327   3.950   1.630 -0.3771 -0.2479  0.6960
 6577TIP3   OH241145   3.538   0.128  12.156  0.1314 -0.2730 -0.5457
 6577TIP3    H141146   3.602   0.195  12.178 -1.2739  0.7834  0.3994
 6577TIP3    H241147   3.484   0.167  12.088 -1.7715  0.2437  1.2117
 6578TIP3   OH241148   0.983   0.400  14.570  0.3934  0.0806  0.3085
 6578TIP3    H141149   0.994   0.478  14.624  1.7984  0.7344 -0.8588
 6578TIP3    H241150   0.931   0.429  14.495 -0.7720 -0.5990  0.8326
 6579TIP3   OH241151   3.307   1.166   1.484 -0.2374  0.3223 -0.3308
 6579TIP3    H141152   3.225   1.148   1.529  1.0622 -3.6654  0.7019
 6579TIP3    H241153   3.371   1.108   1.527  2.3405  0.7766 -3.3451
 6580TIP3   OH241154   3.393   3.320   5.052  0.0168 -0.3675  0.2635
 6580TIP3    H141155   3.410   3.246   4.993 -0.3848  0.3485 -0.7615
 6580TIP3    H241156   3.379   3.394   4.994  1.4380  0.7480  1.3228
 6581TIP3   OH241157   0.566   2.830   3.117  0.8824  0.5608 -0.0084
 6581TIP3    H141158   0.577   2.831   3.212  0.5738 -0.3805  0.0391
 6581TIP3    H241159   0.474   2.851   3.102  1.0462  1.2091 -0.1224
 6582TIP3   OH241160   4.682   3.934   5.201 -0.7566 -0.1282 -0.3064
 6582TIP3    H141161   4.732   4.015   5.198  0.6235 -0.9548  0.0053
 6582TIP3    H241162   4.712   3.889   5.280 -0.9355 -1.3094 -0.8839
 6583TIP3   OH241163   0.181   1.630  14.415  0.1360 -0.0179  1.0173
 6583TIP3    H141164   0.153   1.687  14.487 -1.0668 -1.3903  1.6420
 6583TIP3    H241165   0.130   1.550  14.426  0.7650 -0.6726 -0.7119
 6584TIP3   OH241166   2.872   6.070  14.918  0.2768 -0.0996 -0.5657
 6584TIP3    H141167   2.788   6.040  14.885  0.1437  0.0108 -0.3354
 6584TIP3    H241168   2.897   6.005  14.984  0.1414  0.1239 -0.2937
 6585TIP3   OH241169   6.283   6.538   5.116 -0.1109 -0.4435  0.2331
 6585TIP3    H141170   6.204   6.529   5.169 -0.6286 -0.5651 -0.5647
 6585TIP3    H241171   6.342   6.470   5.149 -0.1253  0.0050  1.1985
 6586TIP3   OH241172   3.467   2.729  14.098  0.1179  0.6404 -0.1579
 6586TIP3    H141173   3.476   2.811  14.146 -0.2829 -0.0528  1.1553
 6586TIP3    H241174   3.556   2.698  14.086  0.1720 -0.0617  1.7793
 6587TIP3   OH241175   2.520   6.151  16.537 -0.3485  0.6609  0.7088
 6587TIP3    H141176   2.452   6.166  16.472  0.7933  1.2603 -0.3842
 6587TIP3    H241177   2.500   6.212  16.608 -0.7303  1.0996  0.2272
 6588TIP3   OH241178   5.736   5.138  11.662 -0.2753 -0.1684 -0.0751
 6588TIP3    H141179   5.661   5.082  11.679 -2.2011  1.5635 -2.5213
 6588TIP3    H241180   5.706   5.226  11.684  1.2370  0.4663 -0.4654
 6589TIP3   OH241181   3.726   4.958  13.854  0.3333 -0.4268 -0.3095
 6589TIP3    H141182   3.643   4.910  13.863  1.2439 -1.9240  0.2342
 6589TIP3    H241183   3.715   5.010  13.774 -0.8371 -1.2166 -0.6722
 6590TIP3   OH241184   5.558   0.008   6.158 -0.2388  0.0477 -0.2628
 6590TIP3    H141185   5.632   0.016   6.098 -1.5842 -1.0378 -2.1296
 6590TIP3    H241186   5.545   0.097   6.193  0.4398  0.7455 -1.7525
 6591TIP3   OH241187   1.298   3.500  15.191  0.3769  0.1784 -0.3473
 6591TIP3    H141188   1.327   3.589  15.211 -0.2722 -0.0309  1.6755
 6591TIP3    H241189   1.206   3.510  15.164  0.3233  0.1457 -0.1830
 6592TIP3   OH241190   2.441   0.562  14.454 -0.0887  0.6691 -0.7770
 6592TIP3    H141191   2.481   0.632  14.505 -1.7086  0.9691  0.1298
 6592TIP3    H241192   2.375   0.606  14.401 -0.8143 -0.0964 -0.5229
 6593TIP3   OH241193   6.060   1.698  15.549  0.3502 -0.1249 -0.4092
 6593TIP3    H141194   5.999   1.691  15.476  0.4918 -1.0829 -0.4366
 6593TIP3    H241195   6.073   1.608  15.579 -0.2091  0.3153  1.2101
 6594TIP3   OH241196   2.759   4.228   4.400  0.1111  0.1802  0.1336
 6594TIP3    H141197   2.793   4.211   4.488 -0.9061 -0.4978  0.4011
 6594TIP3    H241198   2.832   4.205   4.342  0.6865  0.3493  0.7842
 6595TIP3   OH241199   6.593   0.001  13.066 -0.5101  0.1775 -0.0314
 6595TIP3    H141200   6.609  -0.070  13.005  1.8518  0.2919  0.4052
 6595TIP3    H241201   6.673   0.053  13.065 -0.5696  0.4337  2.8192
 6596TIP3   OH241202   1.615   2.326  16.126  0.2116 -0.0475 -0.5241
 6596TIP3    H141203   1.680   2.393  16.149  0.2891  0.2925 -1.6603
 6596TIP3    H241204   1.538   2.349  16.177 -0.2733  1.8676 -2.0318
 6597TIP3   OH241205   0.841   6.427  16.079 -0.0673  0.0405  0.1470
 6597TIP3    H141206   0.907   6.477  16.031  1.3557 -1.0758  0.9103
 6597TIP3    H241207   0.868   6.336  16.069 -0.1465 -0.2641  2.4328
 6598TIP3   OH241208   5.105   5.469   3.737 -0.4733 -0.2748  0.3728
 6598TIP3    H141209   5.182   5.438   3.689 -2.1250 -1.2988 -1.7233
 6598TIP3    H241210   5.093   5.405   3.808  0.6583 -0.0492  0.7729
 6599TIP3   OH241211   3.433   6.163   3.398  0.1117  0.2263  0.3603
 6599TIP3    H141212   3.478   6.092   3.352  0.1391 -0.2671  1.1323
 6599TIP3    H241213   3.448   6.144   3.491  1.3106  1.9995  0.5591
 6600TIP3   OH241214   2.603   0.167  11.907  0.8594 -0.0900 -0.6771
 6600TIP3    H141215   2.548   0.219  11.847  2.3598  0.7256 -1.3676
 6600TIP3    H241216   2.549   0.090  11.927 -0.0897  0.1295 -2.2512
 6601TIP3   OH241217   3.358   4.471  12.202 -0.0652 -0.5935 -0.1604
 6601TIP3    H141218   3.373   4.560  12.172 -0.0061 -0.5725 -0.0676
 6601TIP3    H241219   3.392   4.469  12.291 -2.0720 -0.0946  0.6391
 6602TIP3   OH241220   2.705   1.719   3.180 -0.0799 -0.2661 -0.2742
 6602TIP3    H141221   2.722   1.752   3.092  1.3830  0.2547  0.1987
 6602TIP3    H241222   2.773   1.655   3.196 -1.2181 -1.4467 -0.0768
 6603TIP3   OH241223   4.395   5.824  16.000  0.2224 -0.6735 -0.9847
 6603TIP3    H141224   4.372   5.855  16.087 -0.0273 -0.5749 -1.0845
 6603TIP3    H241225   4.484   5.858  15.985  0.4517 -1.0882 -0.5802
 6604TIP3   OH241226   6.015   1.984  17.122  0.2341 -0.2172 -0.2310
 6604TIP3    H141227   5.938   1.930  17.141  0.2477 -0.4182 -0.7330
 6604TIP3    H241228   6.010   2.056  17.185 -0.1217 -0.4720  0.0340
 6605TIP3   OH241229   2.336   6.068  12.069  0.1572  0.1883 -0.2117
 6605TIP3    H141230   2.373   6.098  11.986  0.5499 -1.9054 -0.8253
 6605TIP3    H241231   2.411   6.062  12.128  0.1184  0.1495 -0.1669
 6606TIP3   OH241232   6.636   0.764  13.697  0.2987 -0.1407 -0.5028
 6606TIP3    H141233   6.714   0.812  13.670  0.9582 -1.0669 -0.2431
 6606TIP3    H241234   6.615   0.708  13.622 -0.6810  0.7950 -0.9452
 6607TIP3   OH241235   0.206   1.207  12.501 -0.1122  0.2506  0.0400
 6607TIP3    H141236   0.151   1.176  12.573 -1.1220  2.0257  0.0641
 6607TIP3    H241237   0.236   1.293  12.529  0.0453  0.6711 -1.3767
 6608TIP3   OH241238   4.766   3.697  14.293 -0.2082  0.4351 -0.4862
 6608TIP3    H141239   4.847   3.645  14.293 -0.1020  0.5785  0.4507
 6608TIP3    H241240   4.704   3.646  14.242  0.4261  0.2376 -1.0645
 6609TIP3   OH241241   5.704   4.553   4.892  0.3179 -0.2932  0.4266
 6609TIP3    H141242   5.619   4.533   4.852 -0.4280 -0.1750  1.9296
 6609TIP3    H241243   5.750   4.604   4.825 -0.4091 -1.1743 -0.7801
 6610TIP3   OH241244   4.496   0.123   2.880  0.0728  0.2223 -0.4353
 6610TIP3    H141245   4.581   0.159   2.855 -0.7637  1.0302 -2.2670
 6610TIP3    H241246   4.502   0.108   2.974  1.2483  2.9975 -0.0375
 6611TIP3   OH241247   3.578   6.588   5.710  0.1681 -0.7560 -0.4639
 6611TIP3    H141248   3.569   6.505   5.756 -1.3093 -0.9286 -1.0378
 6611TIP3    H241249   3.612   6.649   5.776  0.9133 -1.7162  0.0500
 6612TIP3   OH241250   2.959   2.335   2.304  0.1512  0.1701  0.8035
 6612TIP3    H141251   2.926   2.291   2.226  1.2203  1.0856 -0.1890
 6612TIP3    H241252   2.894   2.316   2.372 -0.0144 -1.9353  0.1064
 6613TIP3   OH241253   1.941   2.330   3.119 -0.1980  0.3888 -0.1269
 6613TIP3    H141254   1.851   2.297   3.130 -0.5377  1.5184  0.5780
 6613TIP3    H241255   1.931   2.412   3.071  0.5951 -0.2156 -1.3439
 6614TIP3   OH241256   0.213   2.466   0.523 -0.0018  0.4300 -0.2756
 6614TIP3    H141257   0.271   2.484   0.598 -1.9488 -1.2346  1.6853
 6614TIP3    H241258   0.250   2.388   0.483  0.5179  0.8002 -0.5316
 6615TIP3   OH241259   3.625   0.379  16.967  0.2465  0.0747 -0.2884
 6615TIP3    H141260   3.530   0.393  16.968  0.2461  0.0733 -0.2973
 6615TIP3    H241261   3.661   0.452  17.017  0.2291 -0.0098 -0.1527
 6616TIP3   OH241262   3.926   1.999   1.233 -0.0775 -0.1265  0.1011
 6616TIP3    H141263   3.832   2.017   1.233 -0.4039 -1.7753 -1.2894
 6616TIP3    H241264   3.936   1.925   1.293  0.0399 -1.3316 -1.3867
 6617TIP3   OH241265   4.847   5.290   3.122  0.0609 -0.3956  0.3789
 6617TIP3    H141266   4.855   5.220   3.186  0.4302 -1.3229 -0.6576
 6617TIP3    H241267   4.779   5.259   3.061 -2.0617  1.5374  1.6672
 6618TIP3   OH241268   4.972   5.425   5.832 -0.4272 -0.3379 -0.3421
 6618TIP3    H141269   5.062   5.393   5.825 -0.0853  0.3750  0.6473
 6618TIP3    H241270   4.955   5.469   5.749 -0.3336 -1.6625 -1.0625
 6619TIP3   OH241271   5.072   5.002   0.607  0.0355  0.5199  0.1801
 6619TIP3    H141272   5.004   5.009   0.674  0.9345 -0.4221  1.2146
 6619TIP3    H241273   5.152   4.985   0.656  0.6645 -0.4682 -1.1544
 6620TIP3   OH241274   0.403   1.888  11.710 -0.2452  0.0664  0.2869
 6620TIP3    H141275   0.374   1.967  11.756 -0.1251 -0.1403  0.7222
 6620TIP3    H241276   0.323   1.835  11.700 -0.8776  1.4945 -2.5376
 6621TIP3   OH241277   5.483   0.393  12.384  0.5569  0.4348 -1.0952
 6621TIP3    H141278   5.472   0.487  12.375 -1.1366  0.2392 -1.2721
 6621TIP3    H241279   5.513   0.364  12.298  3.6394  1.1263 -0.3048
 6622TIP3   OH241280   6.582   3.943   3.137  0.4920  0.2479  0.3010
 6622TIP3    H141281   6.533   3.865   3.111 -2.6249  2.1306  0.1949
 6622TIP3    H241282   6.548   3.964   3.225  1.3563  1.4026  0.3667
 6623TIP3   OH241283   5.310   0.431   4.696 -0.0053 -0.2461 -0.0220
 6623TIP3    H141284   5.235   0.411   4.752  0.1628  3.0571  1.5031
 6623TIP3    H241285   5.271   0.456   4.612 -0.5701  0.3240  0.4036
 6624TIP3   OH241286   2.113   3.685   2.205 -0.1899 -0.6046 -0.6994
 6624TIP3    H141287   2.182   3.625   2.175 -1.2682 -2.0757 -0.2652
 6624TIP3    H241288   2.032   3.649   2.168 -0.9252  0.2506  0.0651
 6625TIP3   OH241289   1.680   3.475  15.564 -0.1781 -0.4327 -0.0854
 6625TIP3    H141290   1.705   3.453  15.474  1.9415 -1.0461  0.6287
 6625TIP3    H241291   1.656   3.391  15.604 -1.6980 -0.0856 -0.2232
 6626TIP3   OH241292   2.020   2.843  13.502 -0.3384 -0.3027 -0.2553
 6626TIP3    H141293   2.023   2.835  13.598 -1.6487  1.7298 -0.0150
 6626TIP3    H241294   2.108   2.818  13.474  0.3008 -0.2064  1.5399
 6627TIP3   OH241295   0.711   2.877   5.285 -0.1171 -0.2734  0.2321
 6627TIP3    H141296   0.750   2.946   5.340  0.6053 -0.1106 -0.4727
 6627TIP3    H241297   0.781   2.813   5.275  0.3045  0.4870 -1.8652
 6628TIP3   OH241298   6.509   3.361  12.463 -0.3494 -0.4456 -0.2042
 6628TIP3    H141299   6.601   3.387  12.456 -0.5341  0.4276  0.5118
 6628TIP3    H241300   6.496   3.299  12.391  0.7107 -0.3176 -0.5141
 6629TIP3   OH241301   0.429   2.850  11.499  0.4232  0.3089  0.7662
 6629TIP3    H141302   0.364   2.885  11.438  1.3412 -0.3562 -0.6019
 6629TIP3    H241303   0.513   2.878  11.464  0.9368  0.5392  2.1330
 6630TIP3   OH241304   5.166   0.108  15.586  0.3863  0.1552  0.0341
 6630TIP3    H141305   5.251   0.079  15.553  0.1158  0.0961 -0.6120
 6630TIP3    H241306   5.187   0.178  15.648  0.8660  0.6868 -0.7131
 6631TIP3   OH241307   2.141   3.140   3.329  0.4297 -0.1106  0.3726
 6631TIP3    H141308   2.157   3.046   3.331 -2.6534 -0.7085  0.4909
 6631TIP3    H241309   2.129   3.165   3.421 -1.8244 -0.2485  0.1521
 6632TIP3   OH241310   4.141   6.318   4.793  0.2401 -0.0498 -0.8268
 6632TIP3    H141311   4.177   6.230   4.780  1.6901  0.7985 -2.7154
 6632TIP3    H241312   4.191   6.374   4.733 -2.3287  1.6337 -1.4897
 6633TIP3   OH241313   4.325   3.719  11.839  0.3276  0.5866  0.9734
 6633TIP3    H141314   4.359   3.706  11.927 -0.9429 -0.7662  1.2902
 6633TIP3    H241315   4.237   3.753  11.852 -0.1278 -0.2706  0.2516
 6634TIP3   OH241316   3.292   0.311  16.270  0.0861  0.0098 -0.0195
 6634TIP3    H141317   3.288   0.403  16.247  0.0016 -0.7955 -3.5780
 6634TIP3    H241318   3.383   0.286  16.256  0.4208 -0.1657  2.2736
 6635TIP3   OH241319   5.769   4.787  11.127 -0.0678 -0.3544 -0.3649
 6635TIP3    H141320   5.836   4.855  11.125  0.0822 -0.5195 -1.2693
 6635TIP3    H241321   5.737   4.781  11.036  0.0663 -1.6262 -0.3425
 6636TIP3   OH241322   6.772   4.770   1.341  0.0049  0.5115 -0.0231
 6636TIP3    H141323   6.836   4.703   1.364  1.2424  1.1461 -1.5841
 6636TIP3    H241324   6.822   4.852   1.340 -0.7538  0.9568 -1.6023
 6637TIP3   OH241325   1.033   1.714   3.535  0.1578 -0.3051  0.2473
 6637TIP3    H141326   1.051   1.733   3.443  2.3446 -0.5582  0.6119
 6637TIP3    H241327   1.006   1.622   3.535  2.1794 -0.9214  0.0918
 6638TIP3   OH241328   5.136   1.671  13.325  0.7725  0.2032 -0.4855
 6638TIP3    H141329   5.101   1.738  13.266 -2.5698 -0.8713  0.1885
 6638TIP3    H241330   5.148   1.594  13.270  0.5398  0.0930 -0.3827
 6639TIP3   OH241331   0.550   1.231   4.758  0.2386  0.0701  0.5644
 6639TIP3    H141332   0.552   1.241   4.663  1.9472  0.7096  0.6436
 6639TIP3    H241333   0.568   1.318   4.792  0.2263 -0.2708  1.4710
 6640TIP3   OH241334   1.140   6.718   3.222  0.2576 -0.3756 -0.1502
 6640TIP3    H141335   1.201   6.645   3.220  1.0179  0.2490  0.0527
 6640TIP3    H241336   1.154   6.759   3.308 -0.2799 -0.0895 -0.1951
 6641TIP3   OH241337   0.577   6.596  15.929 -0.5692  0.3415  0.2092
 6641TIP3    H141338   0.638   6.529  15.897 -1.7729 -0.7952  0.2359
 6641TIP3    H241339   0.501   6.589  15.871 -1.7443 -0.0587  1.7598
 6642TIP3   OH241340   0.027   0.510   2.496  0.2621 -0.2347  0.4235
 6642TIP3    H141341   0.036   0.564   2.418  0.7594  0.2734  0.8269
 6642TIP3    H241342   0.099   0.447   2.489  1.5533  1.0832  1.4692
 6643TIP3   OH241343   0.423   1.519  13.192 -0.2577 -0.3803  0.0583
 6643TIP3    H141344   0.512   1.502  13.225  0.1705  0.9070 -0.4024
 6643TIP3    H241345   0.383   1.575  13.260 -0.4755 -0.3856 -0.0662
 6644TIP3   OH241346   1.912   4.999  10.906 -0.2215  0.5464  1.0042
 6644TIP3    H141347   1.938   4.939  10.976  1.1220  1.0476  0.9547
 6644TIP3    H241348   1.875   5.075  10.952 -0.6948  0.2509  1.1134
 6645TIP3   OH241349   1.291   5.764  11.837 -0.3008  0.2486  0.4737
 6645TIP3    H141350   1.376   5.734  11.869 -0.9369 -3.2974 -0.8676
 6645TIP3    H241351   1.303   5.774  11.742 -1.6283 -1.4608  0.0917
 6646TIP3   OH241352   2.308   1.692  13.909 -0.6699 -0.0451 -0.0032
 6646TIP3    H141353   2.263   1.772  13.881 -2.7911 -0.3904  2.1683
 6646TIP3    H241354   2.241   1.624  13.902  0.4684 -1.2052  0.2533
 6647TIP3   OH241355   3.967   3.962  11.178 -0.2422 -0.5947  0.0784
 6647TIP3    H141356   3.937   3.896  11.117  0.3114  1.0271 -2.0097
 6647TIP3    H241357   4.041   4.004  11.134  1.2194 -0.4802  2.5544
 6648TIP3   OH241358   5.656   1.459   1.910  0.2876 -0.5268 -0.1668
 6648TIP3    H141359   5.580   1.469   1.966 -0.0464  0.1161 -0.7292
 6648TIP3    H241360   5.620   1.450   1.822  0.8465 -0.6141 -0.3879
 6649TIP3   OH241361   0.331   3.898   3.465  0.2984  0.0723  0.2364
 6649TIP3    H141362   0.270   3.902   3.391  1.0663  1.6186 -0.3336
 6649TIP3    H241363   0.388   3.824   3.445 -0.0559 -0.0658 -0.2771
 6650TIP3   OH241364   3.460   6.236   0.381  0.5423  0.1890  0.0586
 6650TIP3    H141365   3.506   6.153   0.368 -0.2810 -0.2532 -0.0220
 6650TIP3    H241366   3.474   6.284   0.299  2.6835  0.9535  0.8277
 6651TIP3   OH241367   1.968   5.644  10.659  0.1235 -0.0564 -0.0198
 6651TIP3    H141368   2.019   5.716  10.622 -1.1094  0.9768  0.2555
 6651TIP3    H241369   1.896   5.686  10.705 -0.6634 -1.4657  0.0838
 6652TIP3   OH241370   4.245   2.109   2.380  0.3367  0.2833 -0.2850
 6652TIP3    H141371   4.264   2.016   2.371  0.7633  0.4096 -0.7295
 6652TIP3    H241372   4.328   2.153   2.360  0.0902  0.7642 -0.2710
 6653TIP3   OH241373   3.059   4.713  13.697  0.1216 -0.1642 -0.9584
 6653TIP3    H141374   2.969   4.723  13.664  0.2687 -0.1169 -1.3552
 6653TIP3    H241375   3.108   4.782  13.652  0.6397 -1.0944 -1.8207
 6654TIP3   OH241376   4.150   4.306   1.261 -0.3121 -0.0322 -0.3861
 6654TIP3    H141377   4.100   4.305   1.342 -0.8220  0.2774 -0.6971
 6654TIP3    H241378   4.195   4.221   1.260  0.8707  0.5476  0.9319
 6655TIP3   OH241379   3.638   2.040  15.162  0.6384 -0.3413 -0.1721
 6655TIP3    H141380   3.638   2.133  15.187  1.8809 -0.8691  1.9248
 6655TIP3    H241381   3.554   2.007  15.196  2.0041 -0.8894  2.8333
 6656TIP3   OH241382   5.442   1.822   2.608  0.4599  0.2610 -0.1852
 6656TIP3    H141383   5.478   1.909   2.590 -1.0568  1.1994  1.1757
 6656TIP3    H241384   5.519   1.764   2.607  1.0871  1.0433 -4.3064
 6657TIP3   OH241385   4.246   3.367   2.353 -0.3473  0.0776  0.0616
 6657TIP3    H141386   4.338   3.386   2.331 -0.5840  0.2686 -0.8081
 6657TIP3    H241387   4.233   3.277   2.324 -0.6344  0.2976 -0.5110
 6658TIP3   OH241388   2.115   1.441  15.530  0.2005 -0.0306 -0.6109
 6658TIP3    H141389   2.135   1.471  15.618  0.0360  0.7589 -0.8448
 6658TIP3    H241390   2.179   1.486  15.474 -0.4209  0.3335 -1.0302
 6659TIP3   OH241391   0.327   4.735  12.492 -0.7725 -0.4984  0.0277
 6659TIP3    H141392   0.373   4.777  12.420 -1.0551 -1.0526 -0.4734
 6659TIP3    H241393   0.241   4.713  12.458 -0.2550 -2.5120 -0.0900
 6660TIP3   OH241394   2.984   4.544   4.731  0.4401 -0.1307  0.9421
 6660TIP3    H141395   2.925   4.589   4.671  0.6863  0.7179  1.3246
 6660TIP3    H241396   2.942   4.553   4.817  0.9534  0.2013  1.1662
 6661TIP3   OH241397   0.543   2.182   3.690 -0.4165  0.4432 -0.0457
 6661TIP3    H141398   0.541   2.087   3.703  2.2382  0.1840 -1.4049
 6661TIP3    H241399   0.604   2.214   3.757  0.7000  0.8914 -1.2646
 6662TIP3   OH241400   4.940   4.509  13.443  0.0815  0.5494  0.2145
 6662TIP3    H141401   4.847   4.513  13.467  0.5954  0.1254  2.4469
 6662TIP3    H241402   4.941   4.518  13.348 -2.2050  1.1497  0.2141
 6663TIP3   OH241403   5.485   3.583  12.938  0.1539  1.1174 -0.0482
 6663TIP3    H141404   5.440   3.557  13.018 -1.5917  2.1138 -0.6616
 6663TIP3    H241405   5.449   3.670  12.918  0.1930  0.6904 -2.1479
 6664TIP3   OH241406   3.173   6.727  11.703  0.1711  0.4459  0.3847
 6664TIP3    H141407   3.171   6.812  11.657 -0.2761 -0.5544 -1.4879
 6664TIP3    H241408   3.085   6.717  11.739 -0.3389 -0.0607 -0.9791
 6665TIP3   OH241409   4.552   6.655   0.666 -0.2132 -0.5925 -0.4196
 6665TIP3    H141410   4.586   6.714   0.598 -0.3004 -0.5518 -0.4278
 6665TIP3    H241411   4.471   6.697   0.696  0.2865 -0.1537  0.3331
 6666TIP3   OH241412   2.053   2.376  16.555  0.3829 -0.4109 -0.6938
 6666TIP3    H141413   2.111   2.449  16.578 -1.2603  0.8715 -0.5008
 6666TIP3    H241414   2.067   2.362  16.462  0.9634 -0.0763 -0.6578
 6667TIP3   OH241415   6.245   4.901  14.966 -0.2247  0.3515  0.0349
 6667TIP3    H141416   6.273   4.815  14.936  2.4063  1.3601 -0.5756
 6667TIP3    H241417   6.167   4.884  15.019  1.3941 -2.6295  1.5975
 6668TIP3   OH241418   6.142   1.276  11.886  0.0124  0.7207  0.2248
 6668TIP3    H141419   6.116   1.316  11.969  0.7313  1.0942  0.2724
 6668TIP3    H241420   6.234   1.250  11.900  0.3889  1.5388 -0.7335
 6669TIP3   OH241421   6.716   0.706   1.970 -0.5695  0.2612  0.0447
 6669TIP3    H141422   6.656   0.692   1.896  0.7298  0.8756 -1.1273
 6669TIP3    H241423   6.791   0.649   1.951 -0.7943 -0.5720  1.5560
 6670TIP3   OH241424   5.327   3.007  16.861  0.0031 -0.5213  0.2419
 6670TIP3    H141425   5.338   3.091  16.905 -0.5730 -0.3275  0.0158
 6670TIP3    H241426   5.397   3.004  16.797 -0.6489  0.2907 -0.5283
 6671TIP3   OH241427   3.777   0.529  15.700  0.3858  0.0343 -0.1462
 6671TIP3    H141428   3.697   0.477  15.700 -0.5647  1.4657 -0.5030
 6671TIP3    H241429   3.752   0.612  15.741  1.7253  0.4404 -0.1163
 6672TIP3   OH241430   1.834   5.688   2.977  0.0160 -0.2062 -0.1583
 6672TIP3    H141431   1.834   5.728   2.890  0.7570  1.5804  0.6447
 6672TIP3    H241432   1.889   5.745   3.030 -3.4309  0.8767  2.4352
 6673TIP3   OH241433   3.922   6.091  11.767 -0.5355  0.4949 -0.2730
 6673TIP3    H141434   3.840   6.048  11.743 -0.3660  1.3890 -2.5937
 6673TIP3    H241435   3.909   6.183  11.745  0.3482  1.0245  1.3311
 6674TIP3   OH241436   5.554   1.924  13.837  0.1902 -0.1622  0.0702
 6674TIP3    H141437   5.567   1.858  13.905  2.5413  0.5527  0.3681
 6674TIP3    H241438   5.538   2.005  13.885  3.2636  0.6328 -0.1199
 6675TIP3   OH241439   2.977   6.351   5.212  0.3200 -0.3339  0.1918
 6675TIP3    H141440   3.037   6.378   5.143  1.4042 -0.0000  1.2487
 6675TIP3    H241441   3.029   6.295   5.269 -0.6093 -0.7488  0.6493
 6676TIP3   OH241442   5.921   5.757   5.781 -0.3431  0.4153 -0.2014
 6676TIP3    H141443   5.891   5.848   5.782 -1.4082  0.0730  0.4063
 6676TIP3    H241444   5.859   5.711   5.838  1.2283 -0.3715  0.9200
 6677TIP3   OH241445   6.650   2.580   0.284  0.3207 -0.0808 -0.1650
 6677TIP3    H141446   6.696   2.576   0.200 -1.5335  3.2001 -1.3879
 6677TIP3    H241447   6.641   2.673   0.302  0.6304 -0.7333  3.6914
 6678TIP3   OH241448   4.680   4.888  13.731 -0.4613 -0.3688  0.2073
 6678TIP3    H141449   4.710   4.811  13.779  0.9408 -0.0548 -0.1284
 6678TIP3    H241450   4.586   4.875  13.720 -0.2456 -2.0098  0.1784
 6679TIP3   OH241451   5.686   0.584  11.656  0.3391  0.6185 -0.5575
 6679TIP3    H141452   5.744   0.660  11.658  2.2903 -0.8355  0.7283
 6679TIP3    H241453   5.613   0.607  11.713 -0.6541  2.6769 -2.5856
 6680TIP3   OH241454   1.885   0.796  14.791 -0.1757  0.3041 -0.0532
 6680TIP3    H141455   1.817   0.845  14.745 -0.6013 -0.1125  0.1386
 6680TIP3    H241456   1.898   0.717  14.738  0.0480  0.3090 -0.0046
 6681TIP3   OH241457   5.319   4.624   5.870 -0.2424 -0.3980  0.3628
 6681TIP3    H141458   5.350   4.656   5.955 -1.2313 -1.0762  0.9876
 6681TIP3    H241459   5.364   4.540   5.858 -0.1562 -0.3360  0.2551
 6682TIP3   OH241460   0.865   4.798  13.552  0.0868 -0.4212 -0.3383
 6682TIP3    H141461   0.780   4.764  13.527 -0.6903  0.3857  1.1577
 6682TIP3    H241462   0.878   4.873  13.494  0.3432 -1.2710 -1.3991
 6683TIP3   OH241463   5.614   5.846  15.267  0.7319  0.1570  0.1685
 6683TIP3    H141464   5.604   5.757  15.303  1.1828  0.0622  0.0688
 6683TIP3    H241465   5.703   5.847  15.233  0.8499  0.7660  0.4903
 6684TIP3   OH241466   3.915   3.366  16.384  0.2506  0.0117 -0.1653
 6684TIP3    H141467   3.896   3.365  16.290 -0.7126  0.4925  0.0153
 6684TIP3    H241468   3.955   3.281  16.401  0.2419 -0.1612 -0.9751
 6685TIP3   OH241469   5.375   5.305   4.582 -0.6737  0.0168  0.5700
 6685TIP3    H141470   5.375   5.381   4.640 -0.1893 -0.5400  1.3132
 6685TIP3    H241471   5.287   5.304   4.543 -0.1560  1.9079 -0.7235
 6686TIP3   OH241472   2.829   5.772  15.538 -0.0013  0.1658 -0.3103
 6686TIP3    H141473   2.837   5.864  15.566  0.2031  0.5089 -1.4753
 6686TIP3    H241474   2.864   5.722  15.611  0.0737  1.0247  0.2580
 6687TIP3   OH241475   1.025   1.435   3.710  0.1460 -0.4203 -0.3306
 6687TIP3    H141476   0.945   1.454   3.760  0.1970 -3.3349  0.9701
 6687TIP3    H241477   1.041   1.342   3.725  2.3396 -0.4860 -2.7298
 6688TIP3   OH241478   3.454   6.210  11.899 -0.2085 -0.4149  0.4739
 6688TIP3    H141479   3.520   6.280  11.904 -1.2015  0.5426  0.2508
 6688TIP3    H241480   3.411   6.223  11.815  0.1686 -1.8248  0.0528
 6689TIP3   OH241481   5.366   2.495   2.064  0.0330  0.0355  0.3403
 6689TIP3    H141482   5.450   2.484   2.108  1.2718  1.1415 -1.6743
 6689TIP3    H241483   5.343   2.408   2.032  0.8425 -0.1026  0.1370
 6690TIP3   OH241484   0.624   5.773   1.662 -0.0093 -0.6771 -0.3791
 6690TIP3    H141485   0.579   5.694   1.692  0.2265 -1.0707 -1.0460
 6690TIP3    H241486   0.570   5.845   1.694  0.2831 -1.0748  1.0630
 6691TIP3   OH241487   0.219   4.509   4.201 -0.3059  0.0248 -0.1217
 6691TIP3    H141488   0.295   4.524   4.145  1.0763  1.8559  2.1454
 6691TIP3    H241489   0.226   4.418   4.228  0.8749  0.0629 -0.2728
 6692TIP3   OH241490   3.329   6.420   5.343 -0.3538 -0.1862 -0.5229
 6692TIP3    H141491   3.413   6.462   5.323  0.4666 -1.7424 -0.4641
 6692TIP3    H241492   3.286   6.410   5.259  0.1074 -0.5904 -0.7115
 6693TIP3   OH241493   2.071   0.082  11.678 -0.2745 -0.3559  0.4897
 6693TIP3    H141494   2.126   0.133  11.737  1.5200 -0.1547 -1.2867
 6693TIP3    H241495   2.041   0.145  11.612  0.0538 -1.1141 -0.4014
 6694TIP3   OH241496   3.491   6.385  11.434 -0.2341 -0.1752 -0.3486
 6694TIP3    H141497   3.408   6.357  11.473 -0.2006  0.7194  0.3769
 6694TIP3    H241498   3.465   6.435  11.356 -0.3451 -0.7100 -0.6570
 6695TIP3   OH241499   5.407   3.707  12.066 -0.3684 -0.1736 -0.2533
 6695TIP3    H141500   5.411   3.661  12.149  0.3735 -1.5034 -1.0108
 6695TIP3    H241501   5.387   3.639  12.002  0.4409  0.5962 -1.3396
 6696TIP3   OH241502   5.917   6.389   1.600  0.1445  0.0573 -0.8625
 6696TIP3    H141503   5.837   6.379   1.652  1.3872 -2.6371  0.5757
 6696TIP3    H241504   5.954   6.301   1.594  2.0155  0.9342 -3.1815
 6697TIP3   OH241505   3.846   5.592  16.417 -0.1210  0.4833 -0.6793
 6697TIP3    H141506   3.856   5.552  16.504  1.0187 -0.2845 -1.1623
 6697TIP3    H241507   3.867   5.684  16.431 -3.1085  1.0504  0.5100
 6698TIP3   OH241508   3.191   1.233  15.717 -0.1160  0.6499 -0.2009
 6698TIP3    H141509   3.287   1.233  15.712  0.0317 -0.6402  2.2093
 6698TIP3    H241510   3.164   1.173  15.647  0.8340  0.6958 -0.6235
 6699TIP3   OH241511   1.228   5.152   1.399 -0.3636 -0.0196  0.8057
 6699TIP3    H141512   1.215   5.238   1.439  0.0015 -0.5651  2.1312
 6699TIP3    H241513   1.189   5.090   1.461 -1.0110 -0.7773 -0.3429
 6700TIP3   OH241514   0.653   0.847  17.189  0.0830 -0.0239  0.1815
 6700TIP3    H141515   0.629   0.756  17.170  0.6288 -0.2910  0.7676
 6700TIP3    H241516   0.574   0.885  17.228  0.8363 -1.1440  2.9324
 6701TIP3   OH241517   0.673   2.727  12.375 -0.6186 -0.5267 -0.1592
 6701TIP3    H141518   0.615   2.674  12.320 -1.6545 -0.7894  1.1515
 6701TIP3    H241519   0.616   2.793  12.414  0.3187  0.3909 -0.3232
 6702TIP3   OH241520   0.115   5.367   1.710 -0.6825 -0.1523  0.2640
 6702TIP3    H141521   0.185   5.426   1.736 -2.0698  1.3445  0.7139
 6702TIP3    H241522   0.151   5.280   1.722  2.2464  0.5417 -2.6590
 6703TIP3   OH241523   1.031   0.416  11.385  0.8723  0.5731 -0.4159
 6703TIP3    H141524   1.109   0.377  11.345  1.0271  0.0640  0.3828
 6703TIP3    H241525   0.963   0.350  11.374  0.5499  1.0002 -1.0698
 6704TIP3   OH241526   4.905   2.746  14.435  0.1056  0.1589  0.2658
 6704TIP3    H141527   4.885   2.804  14.362  0.8116  0.4969  0.3335
 6704TIP3    H241528   4.974   2.689  14.400  2.4523  2.1420  1.5401
 6705TIP3   OH241529   2.944   3.564  12.380 -0.0689  0.4316  0.5221
 6705TIP3    H141530   2.918   3.605  12.462 -1.1378  0.8806 -0.0190
 6705TIP3    H241531   3.038   3.548  12.389 -0.3055 -0.2006  2.1087
 6706TIP3   OH241532   6.442   0.309   5.092 -0.2487 -0.3191  0.8976
 6706TIP3    H141533   6.467   0.343   5.178 -1.5889 -0.6382  1.4227
 6706TIP3    H241534   6.403   0.224   5.110 -0.6612 -0.3268 -0.0148
 6707TIP3   OH241535   2.311   3.691  11.106 -0.1880  0.2171  0.6556
 6707TIP3    H141536   2.389   3.745  11.094 -0.6255  0.6995 -0.1070
 6707TIP3    H241537   2.259   3.739  11.171 -0.3996  0.5254  0.2634
 6708TIP3   OH241538   0.266   5.008   5.690 -0.0383  0.6292 -0.2286
 6708TIP3    H141539   0.306   5.043   5.611 -0.2615 -1.5512 -1.3464
 6708TIP3    H241540   0.176   4.987   5.665 -0.0458 -0.3022  0.5176
 6709TIP3   OH241541   6.057   4.130  16.000  0.0087  0.3518 -0.0751
 6709TIP3    H141542   6.035   4.219  15.972 -1.0699  0.3958  0.8812
 6709TIP3    H241543   5.990   4.108  16.066  0.3291 -1.1173 -0.2204
 6710TIP3   OH241544   0.952   4.158  11.257  0.3462 -0.0058 -0.2079
 6710TIP3    H141545   0.894   4.228  11.229  1.5346  1.4906  0.9556
 6710TIP3    H241546   0.953   4.163  11.352 -1.0219 -2.8578  0.0236
 6711TIP3   OH241547   3.288   1.165   3.077  0.2659  0.5909 -0.2939
 6711TIP3    H141548   3.251   1.099   3.018 -0.8114 -0.7608  1.8222
 6711TIP3    H241549   3.369   1.125   3.109  0.4745  1.0066 -0.3020
 6712TIP3   OH241550   3.802   3.856   5.658  0.4203 -0.1906 -0.3769
 6712TIP3    H141551   3.717   3.840   5.700 -0.0560  0.3280 -1.1255
 6712TIP3    H241552   3.831   3.770   5.631  0.5957 -0.4981  0.7459
 6713TIP3   OH241553   3.798   5.994  12.937 -0.0712 -0.0889 -0.0251
 6713TIP3    H141554   3.869   5.937  12.908 -0.9774 -1.4972  0.4287
 6713TIP3    H241555   3.828   6.083  12.918  0.8722 -0.7768 -1.8877
 6714TIP3   OH241556   0.336   0.599   4.285  0.3942 -0.2975 -0.3580
 6714TIP3    H141557   0.359   0.563   4.371 -0.3502 -0.5499 -0.2626
 6714TIP3    H241558   0.243   0.579   4.275 -0.1060  1.8516 -0.1718
 6715TIP3   OH241559   3.847   1.359   3.813  0.0374 -0.3815  0.0242
 6715TIP3    H141560   3.845   1.446   3.852  0.6765 -0.6192  0.6032
 6715TIP3    H241561   3.866   1.374   3.720 -0.6010  0.1371 -0.0186
 6716TIP3   OH241562   4.011   4.911   0.063 -0.4726 -0.3374 -0.4792
 6716TIP3    H141563   4.011   4.952   0.150 -0.5700 -0.8989 -0.2161
 6716TIP3    H241564   3.939   4.848   0.066 -0.3551 -0.4929 -0.9060
 6717TIP3   OH241565   0.984   2.987  11.488  0.0990  0.3707  0.0275
 6717TIP3    H141566   0.977   2.992  11.392 -2.9348 -0.2687  0.1691
 6717TIP3    H241567   0.930   3.060  11.520 -2.0400 -1.6848  1.2695
 6718TIP3   OH241568   1.673   2.349  14.469 -0.0779 -0.4253 -0.1040
 6718TIP3    H141569   1.610   2.421  14.464 -0.6370 -0.8400  0.8228
 6718TIP3    H241570   1.755   2.387  14.437 -1.1433 -0.3099 -2.9011
 6719TIP3   OH241571   1.755   3.181  14.718  0.1509 -0.1429 -0.7157
 6719TIP3    H141572   1.850   3.181  14.708  0.3082  0.3558  0.6305
 6719TIP3    H241573   1.736   3.100  14.765  0.1691  0.9068  1.1394
 6720TIP3   OH241574   3.986   6.336  11.683  0.7156  0.3613 -0.0868
 6720TIP3    H141575   4.070   6.382  11.687  0.0035  1.6780  0.2466
 6720TIP3    H241576   3.923   6.405  11.661 -0.1041 -0.8337 -1.5448
 6721TIP3   OH241577   5.142   6.543   0.220 -0.0224  0.4205  0.5025
 6721TIP3    H141578   5.213   6.553   0.157  0.2103 -0.5903  0.6001
 6721TIP3    H241579   5.108   6.632   0.232  1.7944  1.0442  1.1250
 6722TIP3   OH241580   0.328   0.582   3.581  0.0062  0.2545  0.0068
 6722TIP3    H141581   0.361   0.494   3.600  0.7494  0.1323 -1.7975
 6722TIP3    H241582   0.396   0.640   3.614  0.6754  0.0769 -1.0376
 6723TIP3   OH241583   1.838   4.262  12.812 -0.5365 -0.0940 -0.9779
 6723TIP3    H141584   1.791   4.262  12.729  0.1926 -2.4596 -1.4364
 6723TIP3    H241585   1.843   4.170  12.837  2.1327  0.2502  0.0043
 6724TIP3   OH241586   3.451   4.925  13.173 -0.1926  0.1824  0.1004
 6724TIP3    H141587   3.492   4.927  13.259  0.0816  0.4966 -0.0337
 6724TIP3    H241588   3.467   5.013  13.137 -1.1924  0.3841  0.1407
 6725TIP3   OH241589   3.694   1.354  15.616  0.3033 -0.2809 -0.4900
 6725TIP3    H141590   3.655   1.297  15.550 -1.3146 -1.0233  1.0534
 6725TIP3    H241591   3.666   1.442  15.593 -0.3562 -0.5537 -0.7224
 6726TIP3   OH241592   1.510   5.091  14.263  0.2944  0.4642 -0.1695
 6726TIP3    H141593   1.425   5.052  14.242  0.9705 -0.6983 -0.8136
 6726TIP3    H241594   1.571   5.016  14.265  1.3013  1.2834  0.2504
 6727TIP3   OH241595   4.196   0.783  16.251 -0.1953  0.3688 -0.4642
 6727TIP3    H141596   4.259   0.713  16.239 -0.2269  0.1669  0.4999
 6727TIP3    H241597   4.158   0.796  16.164  1.6286  0.9464 -1.2014
 6728TIP3   OH241598   3.660   0.175   4.248 -0.0415 -0.0813 -0.7471
 6728TIP3    H141599   3.571   0.150   4.222 -0.7889  0.6224  1.0214
 6728TIP3    H241600   3.669   0.142   4.337  2.2176 -1.8769 -1.6163
 6729TIP3   OH241601   3.920   1.711   1.109  0.0454  0.8416  0.4210
 6729TIP3    H141602   3.858   1.673   1.172  0.6662  2.7989  2.2874
 6729TIP3    H241603   3.935   1.641   1.045 -1.8498 -0.6595  1.5348
 6730TIP3   OH241604   0.983   0.609  13.616 -0.0645  0.1635 -0.7546
 6730TIP3    H141605   0.920   0.680  13.607  0.3364  0.6713  0.3181
 6730TIP3    H241606   1.069   0.652  13.618  0.3406 -0.5262 -2.2543
 6731TIP3   OH241607   1.685   5.191   3.194  0.1109  0.0634 -0.3301
 6731TIP3    H141608   1.659   5.220   3.107  1.7746  1.9042 -0.2352
 6731TIP3    H241609   1.678   5.095   3.190 -1.3093  0.2057 -1.9767
 6732TIP3   OH241610   4.472   3.810  12.317  0.3850  0.2309 -0.1762
 6732TIP3    H141611   4.461   3.905  12.316  0.5449  0.2676 -3.2842
 6732TIP3    H241612   4.551   3.796  12.368 -0.2195  1.6909  1.1997
 6733TIP3   OH241613   0.583   0.332  11.133 -0.4648  0.1650  0.3614
 6733TIP3    H141614   0.493   0.351  11.105 -0.8434 -2.7423 -0.5957
 6733TIP3    H241615   0.573   0.300  11.223 -0.1961  1.3677  0.8237
 6734TIP3   OH241616   4.254   0.981  13.962 -0.8003 -0.3912 -0.3121
 6734TIP3    H141617   4.198   0.933  13.901 -1.8975  1.4575 -0.8329
 6734TIP3    H241618   4.231   0.947  14.049 -0.1622 -2.1195 -0.8020
 6735TIP3   OH241619   0.178   5.964   1.322 -0.1492  0.0200 -0.0078
 6735TIP3    H141620   0.106   5.905   1.301 -1.6996  0.2779  4.0874
 6735TIP3    H241621   0.255   5.924   1.281 -1.6795 -3.1485  0.0446
 6736TIP3   OH241622   2.685   2.397  16.161  0.6788 -0.5043  0.7998
 6736TIP3    H141623   2.757   2.335  16.175  1.4974  0.5740  1.4203
 6736TIP3    H241624   2.723   2.467  16.108 -0.4795 -0.9466 -0.6619
 6737TIP3   OH241625   4.617   0.927   5.016 -0.4979  0.1701  0.1124
 6737TIP3    H141626   4.621   0.839   5.053  1.0817  0.2415  0.1508
 6737TIP3    H241627   4.550   0.972   5.068 -0.4355 -0.6415  0.9101
 6738TIP3   OH241628   6.146   2.265  14.801 -0.3458  0.3117  0.8196
 6738TIP3    H141629   6.081   2.196  14.806  1.0068 -0.9724  1.0404
 6738TIP3    H241630   6.108   2.331  14.743 -1.7255 -0.5234  0.7669
 6739TIP3   OH241631   0.752   4.127   2.669  0.5682 -0.1168 -0.3067
 6739TIP3    H141632   0.795   4.069   2.732  1.8498  0.8834 -0.2338
 6739TIP3    H241633   0.824   4.175   2.628 -0.4137  0.8235 -0.9460
 6740TIP3   OH241634   2.450   0.543   3.187 -0.0170 -0.5250  0.7577
 6740TIP3    H141635   2.385   0.590   3.135 -1.0068 -0.9377  1.6319
 6740TIP3    H241636   2.432   0.568   3.277  0.7504 -1.0052  1.0523
 6741TIP3   OH241637   2.112   2.236  15.272  0.3771 -0.8687 -0.9873
 6741TIP3    H141638   2.028   2.192  15.284  0.7493 -1.5162 -0.6535
 6741TIP3    H241639   2.170   2.167  15.238  0.6117 -0.2702 -1.8068
 6742TIP3   OH241640   5.866   3.881   3.592 -0.0855 -0.3054  0.6854
 6742TIP3    H141641   5.810   3.944   3.637  0.4864 -0.2641  1.3604
 6742TIP3    H241642   5.937   3.864   3.654  2.1430  1.7423 -1.2049
 6743TIP3   OH241643   5.383   2.180  16.653  0.1069  0.0462  0.1429
 6743TIP3    H141644   5.337   2.125  16.590  0.7263 -0.5063  0.1705
 6743TIP3    H241645   5.432   2.242  16.600 -1.1289  1.0287  0.1223
 6744TIP3   OH241646   5.315   4.086   1.434  0.5318  0.0193  0.0397
 6744TIP3    H141647   5.371   4.134   1.374  0.5331 -0.0665 -0.0275
 6744TIP3    H241648   5.272   4.153   1.486  0.7299  0.0821  0.1204
 6745TIP3   OH241649   1.904   4.357  11.240 -0.4309 -0.2917 -0.2645
 6745TIP3    H141650   1.882   4.440  11.199 -1.6716 -0.3670  0.2158
 6745TIP3    H241651   1.886   4.291  11.173 -1.6066 -0.3421  0.0816
 6746TIP3   OH241652   0.719   3.687   0.187  0.4272 -0.0060  0.2607
 6746TIP3    H141653   0.664   3.755   0.149  0.7911  0.7218  1.0172
 6746TIP3    H241654   0.770   3.653   0.114 -3.6444 -3.3249 -1.2637
 6747TIP3   OH241655   2.024   2.697  16.404  0.2293 -0.4907  0.3136
 6747TIP3    H141656   1.987   2.617  16.366  1.2647 -1.3532  1.1090
 6747TIP3    H241657   1.993   2.767  16.347  1.4834 -1.7302 -1.9350
 6748TIP3   OH241658   4.228   2.590   2.371 -0.4931  0.1126 -0.5546
 6748TIP3    H141659   4.272   2.556   2.293  0.0943 -0.4836  0.0252
 6748TIP3    H241660   4.149   2.537   2.379 -0.0674 -0.4775 -0.2047
 6749TIP3   OH241661   0.441   4.534   4.032  0.2312  0.4309 -0.1351
 6749TIP3    H141662   0.465   4.446   4.004 -0.2214  1.0898 -2.6827
 6749TIP3    H241663   0.524   4.583   4.035  0.6617 -0.3880  2.5679
 6750TIP3   OH241664   4.210   2.972   4.359  0.0847 -0.1514 -0.3809
 6750TIP3    H141665   4.187   2.951   4.450  1.4746 -0.7493 -0.1444
 6750TIP3    H241666   4.133   2.949   4.308 -0.4867 -0.4025  0.5836
 6751TIP3   OH241667   6.123   5.380   0.998  0.1861  0.0161  0.0221
 6751TIP3    H141668   6.148   5.296   0.961  1.2973  0.4855 -0.3019
 6751TIP3    H241669   6.203   5.432   0.998 -0.5713  1.2159 -0.1509
 6752TIP3   OH241670   6.412   2.809   2.092 -0.1584  0.0408 -0.3218
 6752TIP3    H141671   6.378   2.898   2.085  0.8695  0.4291 -0.4511
 6752TIP3    H241672   6.504   2.817   2.070  0.1429 -0.9106  0.5518
 6753TIP3   OH241673   3.442   5.978   1.931 -0.1713 -0.4935 -0.6016
 6753TIP3    H141674   3.447   6.068   1.962  1.9040 -0.0902 -1.9900
 6753TIP3    H241675   3.444   5.925   2.011 -1.5738  0.6720  0.2251
 6754TIP3   OH241676   6.371   5.421   5.230  0.2492  0.5759 -0.0035
 6754TIP3    H141677   6.401   5.512   5.236  1.9100  0.1742 -1.5848
 6754TIP3    H241678   6.426   5.374   5.294  1.2359  0.2695 -1.0569
 6755TIP3   OH241679   2.178   3.560  16.801 -0.1310 -0.2728 -0.4845
 6755TIP3    H141680   2.197   3.479  16.847 -1.4105  0.1817  0.8889
 6755TIP3    H241681   2.084   3.574  16.814  0.2116  1.8395 -0.0001
 6756TIP3   OH241682   0.330   2.174  16.110  0.1300 -0.5398  0.0264
 6756TIP3    H141683   0.303   2.200  16.198  1.6203 -1.1107  0.6659
 6756TIP3    H241684   0.308   2.081  16.105  0.7064 -0.6832  0.0732
 6757TIP3   OH241685   2.060   5.812   4.694 -0.3082  0.4210 -0.8930
 6757TIP3    H141686   2.024   5.809   4.783 -0.9172  0.7779 -1.1262
 6757TIP3    H241687   1.999   5.867   4.645 -0.2457 -0.1783 -1.6553
 6758TIP3   OH241688   5.550   3.146  14.182  0.1510 -0.2681 -0.6194
 6758TIP3    H141689   5.582   3.209  14.246 -1.1096  0.3315 -0.5603
 6758TIP3    H241690   5.576   3.182  14.097 -0.6155  0.3705 -0.5891
 6759TIP3   OH241691   2.704   0.756   2.104  0.4582 -0.0594 -0.1994
 6759TIP3    H141692   2.730   0.664   2.112 -0.9430 -0.7009 -2.5230
 6759TIP3    H241693   2.650   0.773   2.181 -0.8672 -1.7693 -0.7224
 6760TIP3   OH241694   5.324   0.204   3.081 -0.2833 -0.0145 -0.5985
 6760TIP3    H141695   5.418   0.211   3.094 -0.3776  2.3494 -1.0225
 6760TIP3    H241696   5.315   0.151   3.001  0.7074  0.4131 -0.9992
 6761TIP3   OH241697   4.880   3.614  13.756  0.0225 -0.6245 -0.4400
 6761TIP3    H141698   4.949   3.588  13.695 -0.4551 -0.9233 -0.8447
 6761TIP3    H241699   4.807   3.640  13.701  0.0188  0.2649 -0.0126
 6762TIP3   OH241700   0.756   2.665  15.790 -0.3192  0.0371  0.2492
 6762TIP3    H141701   0.793   2.634  15.707 -0.6517  0.4766 -0.0674
 6762TIP3    H241702   0.685   2.604  15.809  1.7871 -1.9497  1.8497
 6763TIP3   OH241703   0.342   0.252  16.776 -0.6076  0.4736  0.3876
 6763TIP3    H141704   0.296   0.172  16.752  0.7343  0.4237 -2.1629
 6763TIP3    H241705   0.417   0.223  16.827 -0.5359  0.1642  0.1046
 6764TIP3   OH241706   0.810   3.417   0.854 -0.1496 -0.3771 -0.1395
 6764TIP3    H141707   0.756   3.462   0.789  0.1001 -0.6274 -0.5243
 6764TIP3    H241708   0.755   3.344   0.884 -0.4782  0.0635  0.3404
 6765TIP3   OH241709   0.109   6.511  12.025 -0.0693  0.3931  0.7640
 6765TIP3    H141710   0.202   6.511  12.001 -0.7896  1.6481 -2.1992
 6765TIP3    H241711   0.110   6.508  12.121  3.0193  0.2240  0.8019
 6766TIP3   OH241712   6.459   0.782  12.486  0.1047  0.5296 -0.5995
 6766TIP3    H141713   6.411   0.862  12.507 -0.9991 -0.0461 -0.9231
 6766TIP3    H241714   6.453   0.774  12.391  1.3250  0.7528 -0.7062
 6767TIP3   OH241715   4.112   0.482  12.364  0.1273 -0.0485 -0.1496
 6767TIP3    H141716   4.158   0.415  12.314 -1.1004 -1.7441  0.9280
 6767TIP3    H241717   4.160   0.486  12.447 -1.0326 -1.0928  0.5832
 6768TIP3   OH241718   0.232   5.104   2.735 -0.2153 -0.3590  0.1161
 6768TIP3    H141719   0.296   5.066   2.795  1.6485  3.2616  0.5792
 6768TIP3    H241720   0.261   5.077   2.648  1.1332  0.0481  0.4265
 6769TIP3   OH241721   5.110   6.261   0.495  0.1147  0.1342  0.2825
 6769TIP3    H141722   5.137   6.209   0.419 -0.0256 -1.0865  1.0689
 6769TIP3    H241723   5.136   6.209   0.571 -0.2256  1.1077  1.0790
 6770TIP3   OH241724   6.148   2.107  13.949  0.2538 -0.3593  0.0892
 6770TIP3    H141725   6.124   2.151  14.030  0.3247  0.2026 -0.1905
 6770TIP3    H241726   6.202   2.170  13.902 -1.2569  0.0143 -1.1843
 6771TIP3   OH241727   4.857   2.456   5.247 -0.8913 -0.3163  0.5471
 6771TIP3    H141728   4.912   2.481   5.173 -0.1602 -1.2894  0.7496
 6771TIP3    H241729   4.836   2.364   5.232 -0.1002 -0.7465  1.9252
 6772TIP3   OH241730   1.091   6.396  13.132  0.8339 -0.7787 -0.6663
 6772TIP3    H141731   1.039   6.323  13.167  0.0950 -2.3002 -4.6691
 6772TIP3    H241732   1.041   6.474  13.156  0.6043 -1.6640  1.9394
 6773TIP3   OH241733   6.165   5.649   0.158 -0.4433  0.1319 -0.5859
 6773TIP3    H141734   6.084   5.697   0.174 -0.0701  0.8278 -0.7735
 6773TIP3    H241735   6.232   5.699   0.204 -0.0343 -0.1341 -0.8956
 6774TIP3   OH241736   1.268   6.323   3.665 -0.5903  0.0078 -0.7914
 6774TIP3    H141737   1.244   6.367   3.747  1.1783 -0.4332 -0.0180
 6774TIP3    H241738   1.362   6.308   3.672 -1.1582 -4.0562 -0.9626
 6775TIP3   OH241739   3.657   2.006   0.707  0.0552  0.2628 -0.3180
 6775TIP3    H141740   3.601   1.991   0.783 -1.2432  2.5413 -0.7690
 6775TIP3    H241741   3.662   1.920   0.664 -1.6582 -0.3743  0.6902
 6776TIP3   OH241742   1.614   0.470   2.632  0.3816  0.0091 -0.0394
 6776TIP3    H141743   1.622   0.565   2.620 -1.1214  0.2834  1.0132
 6776TIP3    H241744   1.607   0.458   2.727 -0.7547 -1.0398 -0.2370
 6777TIP3   OH241745   2.730   2.065  15.711  0.1399 -0.1136 -0.5149
 6777TIP3    H141746   2.770   1.980  15.729 -0.0717 -0.1856 -0.3812
 6777TIP3    H241747   2.748   2.081  15.619 -2.3765 -1.6753 -1.3275
 6778TIP3   OH241748   2.547   0.569  11.646 -0.0614  0.0006 -0.1366
 6778TIP3    H141749   2.611   0.544  11.580 -0.2694  1.0136 -0.7196
 6778TIP3    H241750   2.589   0.546  11.729  0.6742 -0.2125 -0.5613
 6779TIP3   OH241751   1.125   1.434  12.908  0.2389  0.1446  0.2673
 6779TIP3    H141752   1.202   1.473  12.950  2.1495 -1.8683 -1.2075
 6779TIP3    H241753   1.083   1.506  12.862  1.3017  1.2646  1.0253
 6780TIP3   OH241754   5.140   1.545   5.467  0.0348  0.3859  0.3160
 6780TIP3    H141755   5.098   1.626   5.440  3.1723  1.8318 -0.4546
 6780TIP3    H241756   5.215   1.573   5.520  0.3978 -2.0608  1.1667
 6781TIP3   OH241757   0.921   5.786  17.056  0.1576  0.3058  0.4615
 6781TIP3    H141758   0.983   5.715  17.037 -1.0150 -0.7861  0.6701
 6781TIP3    H241759   0.975   5.865  17.054  1.0954 -0.3320 -2.0015
 6782TIP3   OH241760   5.397   0.699   3.324 -0.3826  0.1210 -0.9195
 6782TIP3    H141761   5.386   0.646   3.245  0.3799  1.1621 -1.7240
 6782TIP3    H241762   5.340   0.775   3.310 -0.8548 -0.0760 -0.1182
 6783TIP3   OH241763   2.710   1.846   2.041 -0.3887 -0.5012 -0.1065
 6783TIP3    H141764   2.661   1.918   2.000  0.5079 -0.2570 -0.7492
 6783TIP3    H241765   2.680   1.846   2.132  0.7909  1.7512  0.3200
 6784TIP3   OH241766   6.318   2.640   3.791  0.4965 -0.0527 -0.6341
 6784TIP3    H141767   6.287   2.703   3.726  0.6924 -2.7193 -3.4589
 6784TIP3    H241768   6.394   2.599   3.750 -0.8947 -3.6149  0.1225
 6785TIP3   OH241769   1.654   6.191  15.961  0.1189 -0.0298  0.2908
 6785TIP3    H141770   1.720   6.254  15.933 -0.5546  0.7862  0.5208
 6785TIP3    H241771   1.675   6.110  15.914  1.4105  0.1600  0.5292
 6786TIP3   OH241772   0.388   5.786  17.151 -0.6600  0.3294  0.9460
 6786TIP3    H141773   0.482   5.806  17.150 -0.4198 -0.6240 -3.4162
 6786TIP3    H241774   0.382   5.707  17.205  1.2032 -0.2260  0.3872
 6787TIP3   OH241775   4.228   6.627   1.828 -0.1791 -0.1589 -0.2178
 6787TIP3    H141776   4.227   6.537   1.796 -0.1004 -0.4305  0.5223
 6787TIP3    H241777   4.142   6.639   1.869  0.4845 -0.5143  1.3217
 6788TIP3   OH241778   0.774   1.195  13.962  0.7467 -0.3786 -0.2249
 6788TIP3    H141779   0.696   1.251  13.962 -0.1269 -1.5726 -1.0079
 6788TIP3    H241780   0.756   1.129  14.030  1.3670 -0.2622  0.0547
 6789TIP3   OH241781   1.499   1.220  12.375  0.3691 -0.0223 -0.2474
 6789TIP3    H141782   1.559   1.212  12.450  0.1301 -0.3908 -0.0918
 6789TIP3    H241783   1.556   1.215  12.298  0.7493  1.5123 -0.0821
 6790TIP3   OH241784   6.274   4.201   2.630 -0.1820  0.1238  0.3194
 6790TIP3    H141785   6.254   4.285   2.672  1.8239 -0.4047  2.4559
 6790TIP3    H241786   6.365   4.209   2.603  0.7266 -2.0938  2.5211
 6791TIP3   OH241787   1.561   2.791  17.081 -0.2377  0.0523 -0.1028
 6791TIP3    H141788   1.510   2.723  17.125  1.1497 -1.7205 -1.1740
 6791TIP3    H241789   1.566   2.762  16.990  0.1544  1.7351 -0.6400
 6792TIP3   OH241790   2.117   5.266  11.695  0.4733 -0.3263  0.2549
 6792TIP3    H141791   2.126   5.297  11.785 -0.6314  0.5826  0.0743
 6792TIP3    H241792   2.024   5.273  11.677  0.7984  0.3784 -1.2564
 6793TIP3   OH241793   0.131   3.173  16.842  0.0446 -0.5697 -0.3217
 6793TIP3    H141794   0.198   3.167  16.910 -0.7606 -0.8720  0.4441
 6793TIP3    H241795   0.095   3.261  16.851 -0.0021 -0.5778 -0.4273
 6794TIP3   OH241796   2.988   4.871  17.027  0.5490  0.0726  0.0851
 6794TIP3    H141797   2.978   4.820  16.946  2.3798  0.8191 -0.6194
 6794TIP3    H241798   2.963   4.960  17.002  0.8908  0.2569  0.4139
 6795TIP3   OH241799   0.703   5.794   2.432 -0.2144 -0.2229  0.7845
 6795TIP3    H141800   0.651   5.867   2.466 -0.3628  0.0249  0.0481
 6795TIP3    H241801   0.792   5.813   2.460 -0.2936  0.1017  0.8244
 6796TIP3   OH241802   5.979   4.906   0.936  0.2315 -0.2070 -0.6628
 6796TIP3    H141803   6.016   4.992   0.957  0.9935 -0.5212 -0.7176
 6796TIP3    H241804   6.055   4.850   0.921 -0.2130 -1.3202  1.0318
 6797TIP3   OH241805   2.595   0.467   5.439 -0.1237 -0.1911 -0.7096
 6797TIP3    H141806   2.628   0.402   5.501  0.7926  0.1084 -0.8739
 6797TIP3    H241807   2.600   0.550   5.487  0.6473  0.0506 -1.1987
 6798TIP3   OH241808   6.203   3.026  15.805  0.9189  0.5206  0.0993
 6798TIP3    H141809   6.124   2.987  15.843  0.8550  0.6703  0.1178
 6798TIP3    H241810   6.274   2.972  15.839  0.6591 -1.0316 -1.7318
 6799TIP3   OH241811   6.062   1.002   0.614  0.2493 -0.1894 -0.1248
 6799TIP3    H141812   6.027   1.084   0.648  0.2062  0.6628 -2.1621
 6799TIP3    H241813   6.124   0.973   0.681 -0.0706  1.2719  0.8229
 6800TIP3   OH241814   6.778   5.289   5.498 -0.3693  0.2925 -0.4770
 6800TIP3    H141815   6.800   5.322   5.585 -1.6723  1.4021 -0.5481
 6800TIP3    H241816   6.848   5.321   5.441  0.0049  0.3359  0.0098
 6801TIP3   OH241817   1.507   1.820  13.186  0.0860  0.3515  0.0452
 6801TIP3    H141818   1.537   1.731  13.203 -0.4648 -0.0787 -1.1465
 6801TIP3    H241819   1.496   1.859  13.272  1.3172 -0.3974  0.5613
 6802TIP3   OH241820   4.266   2.213  11.760  0.3470 -0.2470 -0.2581
 6802TIP3    H141821   4.305   2.128  11.740  0.0414 -0.7234  1.0788
 6802TIP3    H241822   4.192   2.192  11.818 -2.3806  0.5395 -3.2970
 6803TIP3   OH241823   6.265   0.545  13.740  0.1117 -0.3975 -0.1122
 6803TIP3    H141824   6.208   0.468  13.738  1.0145 -1.0670 -0.2360
 6803TIP3    H241825   6.351   0.512  13.713  0.9307  0.2835  1.5972
 6804TIP3   OH241826   1.984   0.461   1.043 -0.1956 -0.0163 -0.0461
 6804TIP3    H141827   1.921   0.465   0.971  0.0061 -0.5759 -0.2576
 6804TIP3    H241828   1.974   0.372   1.078  1.3563 -0.5348 -0.8779
 6805TIP3   OH241829   6.615   2.567  11.368  0.2062  0.0868  0.7087
 6805TIP3    H141830   6.683   2.634  11.383  0.9076 -0.3778 -0.3197
 6805TIP3    H241831   6.626   2.543  11.276 -0.7678 -0.6609  0.7856
 6806TIP3   OH241832   2.568   3.653   1.621 -0.8130 -0.7224 -0.3635
 6806TIP3    H141833   2.600   3.582   1.676  0.2988  0.7322  0.9250
 6806TIP3    H241834   2.512   3.705   1.679 -0.1192  0.4866 -0.7554
 6807TIP3   OH241835   2.591   6.049   4.812  0.7342  0.2772  0.0829
 6807TIP3    H141836   2.656   6.118   4.799 -0.6950  1.5124 -0.7134
 6807TIP3    H241837   2.514   6.078   4.762 -0.2011 -1.4714  0.4419
 6808TIP3   OH241838   4.435   1.650  12.117  0.4769 -0.1679 -0.0047
 6808TIP3    H141839   4.369   1.720  12.114 -0.5615 -1.0726  1.2193
 6808TIP3    H241840   4.500   1.676  12.052 -0.2014  1.6372 -0.0019
 6809TIP3   OH241841   0.687   5.182  11.614  0.5357  0.1123  0.4429
 6809TIP3    H141842   0.625   5.149  11.549  0.1786  0.5353  0.5727
 6809TIP3    H241843   0.773   5.171  11.573  0.2884  0.6961 -0.2337
 6810TIP3   OH241844   5.232   0.726  13.854 -0.1881 -0.2938 -0.5427
 6810TIP3    H141845   5.171   0.785  13.809  0.9421 -0.3940 -2.1997
 6810TIP3    H241846   5.186   0.642  13.856 -0.8007  0.0388 -0.2864
 6811TIP3   OH241847   1.927   2.970   2.815 -0.5767  0.3893 -1.0324
 6811TIP3    H141848   1.848   3.024   2.810 -0.1892  0.9159 -1.5774
 6811TIP3    H241849   1.992   3.019   2.765  0.0195 -0.1729 -0.8064
 6812TIP3   OH241850   6.010   3.572   1.988 -0.5393  0.1291  0.2216
 6812TIP3    H141851   6.026   3.647   2.045 -0.5479  0.7986 -0.6615
 6812TIP3    H241852   6.033   3.602   1.900 -2.9067 -0.0960 -0.5283
 6813TIP3   OH241853   1.831   0.386  14.088  0.5877 -0.1331 -0.3596
 6813TIP3    H141854   1.789   0.464  14.124 -0.7599 -1.3802  0.8738
 6813TIP3    H241855   1.770   0.356  14.020 -0.0492 -1.4019  0.7617
 6814TIP3   OH241856   0.743   0.109  12.240  0.3969  0.5206  0.0689
 6814TIP3    H141857   0.705   0.065  12.164  0.1536  0.8732 -0.0129
 6814TIP3    H241858   0.832   0.074  12.245  0.0775 -0.2728  0.2386
 6815TIP3   OH241859   1.181   3.901  12.101  0.0032  0.3146 -0.4021
 6815TIP3    H141860   1.210   3.886  12.191 -1.4935  1.0779  0.2166
 6815TIP3    H241861   1.259   3.935  12.056  0.0217  2.6120  1.2945
 6816TIP3   OH241862   6.173   5.293   2.487  0.3029  0.5337  0.6009
 6816TIP3    H141863   6.131   5.334   2.412  0.5086 -0.0222  0.1771
 6816TIP3    H241864   6.162   5.356   2.558 -0.3156  0.8522  0.2283
 6817TIP3   OH241865   2.239   0.409  12.800 -0.3010  0.1195  0.0268
 6817TIP3    H141866   2.331   0.406  12.825 -0.4735  1.6778  0.9461
 6817TIP3    H241867   2.228   0.496  12.762 -1.4551  0.0632  0.2188
 6818TIP3   OH241868   6.084   5.721  13.529  0.1836  0.3670 -0.4346
 6818TIP3    H141869   6.130   5.783  13.585  0.8731  0.9354 -1.6198
 6818TIP3    H241870   6.108   5.746  13.439  0.7097 -1.7683 -0.9258
 6819TIP3   OH241871   3.582   4.706   6.476 -0.1500 -0.4274  0.1160
 6819TIP3    H141872   3.598   4.618   6.510 -0.1058 -0.4056  0.1520
 6819TIP3    H241873   3.486   4.714   6.474 -0.1631 -0.7611 -0.6248
 6820TIP3   OH241874   0.289   6.609   5.536 -0.0389 -0.4282  0.4229
 6820TIP3    H141875   0.297   6.585   5.628  0.4589 -1.8535  0.0200
 6820TIP3    H241876   0.195   6.603   5.517 -0.0360 -1.0805  0.5983
 6821TIP3   OH241877   2.059   0.165   3.465  0.6859  0.5891  0.7005
 6821TIP3    H141878   2.016   0.206   3.540  1.2391  1.3890  0.5830
 6821TIP3    H241879   2.075   0.237   3.404 -0.0122 -0.0984 -0.3120
 6822TIP3   OH241880   6.047   0.943  13.934  0.1472  0.0987  0.5608
 6822TIP3    H141881   5.995   0.950  14.014 -0.3367 -0.0508  0.2585
 6822TIP3    H241882   6.071   1.034  13.914  1.7123 -0.0181  1.8169
 6823TIP3   OH241883   6.493   1.766  12.944  0.1124 -0.5550 -0.0344
 6823TIP3    H141884   6.459   1.841  12.893 -0.7905 -1.9705 -1.5572
 6823TIP3    H241885   6.420   1.704  12.947  1.4084 -2.1245 -0.2810
 6824TIP3   OH241886   5.468   3.187  15.504  0.7857  0.6286 -0.0332
 6824TIP3    H141887   5.550   3.197  15.456  0.2914  2.4839 -0.5524
 6824TIP3    H241888   5.486   3.224  15.591  1.0421 -0.7067  0.4898
 6825TIP3   OH241889   0.433   3.489  12.960  0.4610 -0.6347 -0.2863
 6825TIP3    H141890   0.442   3.423  13.029 -0.7521  0.6475  1.1347
 6825TIP3    H241891   0.459   3.571  13.002 -1.4887  0.3726 -0.9756
 6826TIP3   OH241892   2.488   0.807  16.774  0.2909  0.7860 -1.0823
 6826TIP3    H141893   2.485   0.861  16.695  2.4680  0.2044 -1.5997
 6826TIP3    H241894   2.436   0.729  16.751  1.2565  0.4214 -2.1324
 6827TIP3   OH241895   4.409   1.339  12.981 -0.6802 -0.1985  0.7733
 6827TIP3    H141896   4.370   1.339  13.069 -0.4758  1.4899  0.8912
 6827TIP3    H241897   4.339   1.372  12.924 -0.6949 -0.9467  0.3503
 6828TIP3   OH241898   1.349   4.599   1.892 -0.5602 -0.2153 -0.1117
 6828TIP3    H141899   1.402   4.548   1.831 -1.8128 -1.4511 -0.1689
 6828TIP3    H241900   1.412   4.630   1.958 -0.0421 -3.2318  0.8703
 6829TIP3   OH241901   0.815   4.049   2.278 -0.4312 -0.8410 -0.4353
 6829TIP3    H141902   0.900   4.009   2.264 -0.8442 -1.1204 -2.2277
 6829TIP3    H241903   0.779   4.003   2.354  1.4601  0.0484  1.0362
 6830TIP3   OH241904   3.709   5.494   2.604  0.0940 -0.7105 -0.0541
 6830TIP3    H141905   3.620   5.524   2.623 -0.3936 -1.4089 -1.1724
 6830TIP3    H241906   3.711   5.403   2.635  0.5406 -0.5689  0.3335
 6831TIP3   OH241907   3.476   6.452  15.724 -0.1351 -0.1223  0.8555
 6831TIP3    H141908   3.434   6.437  15.808 -1.5220  0.8621  0.3658
 6831TIP3    H241909   3.436   6.533  15.691 -0.1164 -0.8534 -1.0489
 6832TIP3   OH241910   4.759   4.588  17.233  0.0160  0.5941 -0.1696
 6832TIP3    H141911   4.683   4.531  17.221 -0.0853  0.0829  2.5859
 6832TIP3    H241912   4.798   4.595  17.145 -1.0637 -2.1572 -0.9230
 6833TIP3   OH241913   0.889   4.757   3.158 -0.3702 -0.7751 -0.5305
 6833TIP3    H141914   0.795   4.769   3.172 -0.6269 -1.7190 -1.3423
 6833TIP3    H241915   0.930   4.784   3.240 -1.3690 -0.4928 -0.1236
 6834TIP3   OH241916   1.241   1.194  14.827 -0.3298  0.2060  0.1537
 6834TIP3    H141917   1.236   1.281  14.786 -2.4227 -0.5358 -1.2042
 6834TIP3    H241918   1.233   1.212  14.920  3.6711  1.8437  0.3268
 6835TIP3   OH241919   4.647   6.497  16.746  0.0295  0.6450  0.5368
 6835TIP3    H141920   4.561   6.455  16.738  1.2640 -1.4268 -3.4666
 6835TIP3    H241921   4.628   6.590  16.759 -2.9346  0.8923 -4.3294
 6836TIP3   OH241922   4.290   5.543  16.441  0.0548  0.1468  0.1285
 6836TIP3    H141923   4.209   5.555  16.391 -1.3726 -0.3284  2.2647
 6836TIP3    H241924   4.298   5.624  16.491 -0.5824 -0.9216  1.9771
 6837TIP3   OH241925   3.260   2.780   4.506 -0.0849  0.5238  0.3536
 6837TIP3    H141926   3.254   2.709   4.569 -0.1199  1.6290  1.6337
 6837TIP3    H241927   3.171   2.814   4.499 -0.0060  0.6621  0.0115
 6838TIP3   OH241928   2.143   6.586  15.002  0.0795 -0.3796  0.1597
 6838TIP3    H141929   2.050   6.564  14.995 -0.5653  2.1676  0.3993
 6838TIP3    H241930   2.146   6.680  14.989  2.4572 -0.1806  1.9071
 6839TIP3   OH241931   3.596   2.229  17.119 -0.0043 -0.1438  0.4305
 6839TIP3    H141932   3.598   2.219  17.214 -0.0750 -0.6183  0.3838
 6839TIP3    H241933   3.599   2.139  17.085  2.6022  0.0753 -0.0471
 6840TIP3   OH241934   3.656   6.534  13.364 -0.4254  0.2036 -0.4845
 6840TIP3    H141935   3.687   6.566  13.449 -0.0838  1.1192 -0.9459
 6840TIP3    H241936   3.733   6.535  13.307 -0.5324 -0.9321 -0.6640
 6841TIP3   OH241937   1.183   0.690   1.088 -0.0351 -0.3181  0.0443
 6841TIP3    H141938   1.180   0.742   1.007  0.6041 -1.1592 -0.5249
 6841TIP3    H241939   1.197   0.755   1.157  0.0730  0.3391 -0.5879
 6842TIP3   OH241940   2.067   1.792  15.009  0.1076  0.2679 -0.5065
 6842TIP3    H141941   2.071   1.744  14.927 -1.0905  0.7063 -0.8480
 6842TIP3    H241942   2.033   1.729  15.073 -1.2507  0.5881 -0.9017
 6843TIP3   OH241943   4.220   6.582  11.986  0.3700 -0.3551 -0.0688
 6843TIP3    H141944   4.140   6.563  12.034 -0.6537  0.6342 -1.3574
 6843TIP3    H241945   4.223   6.678  11.982  1.4635 -0.3886 -0.2897
 6844TIP3   OH241946   0.152   4.677  10.655 -0.5813  0.5375 -0.0214
 6844TIP3    H141947   0.145   4.587  10.687 -2.6715  0.8859  0.6223
 6844TIP3    H241948   0.246   4.694  10.649 -0.1616 -1.7536 -0.3657
 6845TIP3   OH241949   1.736   3.893   5.665  0.3139 -0.2299  0.3086
 6845TIP3    H141950   1.654   3.939   5.684  0.1230 -0.1678 -0.6393
 6845TIP3    H241951   1.757   3.917   5.575  0.8578 -1.0221  0.2127
 6846TIP3   OH241952   4.096   3.260  13.510  0.3611 -0.4688 -0.1000
 6846TIP3    H141953   4.071   3.168  13.502 -0.3269 -0.3149  0.2530
 6846TIP3    H241954   4.192   3.260  13.501  0.4456 -1.3172  0.6987
 6847TIP3   OH241955   2.078   0.354   2.410  0.2058  0.2191 -0.2044
 6847TIP3    H141956   2.089   0.396   2.495 -1.5757  1.2901 -0.4684
 6847TIP3    H241957   2.167   0.342   2.377  0.8313  1.6611  0.9161
 6848TIP3   OH241958   0.794   2.406  12.036  0.0119 -0.0553 -0.6290
 6848TIP3    H141959   0.722   2.405  11.972  0.0030 -0.4195 -0.6113
 6848TIP3    H241960   0.864   2.454  11.992  0.5746 -1.6585 -1.5422
 6849TIP3   OH241961   5.728   2.821   5.400  0.1361 -0.1132 -0.6256
 6849TIP3    H141962   5.711   2.839   5.308 -1.7364 -1.2330 -0.5130
 6849TIP3    H241963   5.713   2.728   5.411  0.9215 -0.1074  0.7012
 6850TIP3   OH241964   0.428   6.335   6.001  0.7902 -0.7431  0.5491
 6850TIP3    H141965   0.521   6.334   6.021  0.4409 -1.1037  2.2000
 6850TIP3    H241966   0.385   6.351   6.085 -0.5682  1.1351 -0.4458
 6851TIP3   OH241967   0.049   0.950  16.848 -0.3599 -0.0660  0.6394
 6851TIP3    H141968   0.024   0.948  16.755 -0.4704 -1.1673  0.6803
 6851TIP3    H241969   0.144   0.963  16.846  0.0469 -2.7904  0.2759
 6852TIP3   OH241970   2.399   2.461   4.701 -0.3400  0.2138  0.0116
 6852TIP3    H141971   2.358   2.392   4.650  3.3224 -1.3817 -0.9341
 6852TIP3    H241972   2.408   2.425   4.789 -1.9510  1.0048  0.5186
 6853TIP3   OH241973   4.942   0.544  11.579 -0.1037  0.0965  0.2509
 6853TIP3    H141974   5.021   0.530  11.527 -1.4239  0.8484 -2.0435
 6853TIP3    H241975   4.965   0.616  11.639  1.3741 -0.6629  0.6209
 6854TIP3   OH241976   4.005   4.821  13.345 -0.9616  0.6544 -0.4668
 6854TIP3    H141977   3.935   4.756  13.358  0.2931 -0.6832 -0.3522
 6854TIP3    H241978   4.020   4.821  13.251 -0.8740  0.6854 -0.4524
 6855TIP3   OH241979   0.964   6.520   1.624 -0.9681  0.0563 -0.4229
 6855TIP3    H141980   1.025   6.449   1.641  0.0811  1.0137 -0.0752
 6855TIP3    H241981   0.913   6.528   1.705 -2.2991 -1.4438 -1.0955
 6856TIP3   OH241982   5.881   2.333  11.413 -0.3408  0.3405  0.1727
 6856TIP3    H141983   5.905   2.377  11.331 -1.0128 -0.6174 -0.5404
 6856TIP3    H241984   5.788   2.316  11.405 -0.5198  0.6880  1.3632
 6857TIP3   OH241985   0.490   2.905  12.486 -0.5212  0.6397  0.2032
 6857TIP3    H141986   0.414   2.888  12.430  0.8215 -1.5692 -1.0532
 6857TIP3    H241987   0.499   3.001  12.486 -2.2986  0.8326 -0.9928
 6858TIP3   OH241988   6.288   5.784   2.086  0.0377  0.2748  0.1649
 6858TIP3    H141989   6.206   5.749   2.121 -0.0315  1.6603  1.3826
 6858TIP3    H241990   6.336   5.706   2.057 -1.0413 -0.6600  0.8529
 6859TIP3   OH241991   4.849   0.286   5.207 -0.0430 -0.0637  0.4185
 6859TIP3    H141992   4.778   0.347   5.227  1.7448  2.3345 -0.2490
 6859TIP3    H241993   4.805   0.208   5.175 -2.3840  1.4644 -0.2848
 6860TIP3   OH241994   5.567   3.461  16.942  0.1692 -0.4172 -0.0455
 6860TIP3    H141995   5.572   3.475  17.037  1.1559  0.2352 -0.1882
 6860TIP3    H241996   5.492   3.513  16.914  1.0180  0.9243  0.1073
 6861TIP3   OH241997   6.485   4.904  13.803 -0.2650  0.0083 -0.0886
 6861TIP3    H141998   6.455   4.840  13.867 -0.0243 -0.5158 -0.4903
 6861TIP3    H241999   6.578   4.885  13.793  0.2237  1.6355  1.1721
 6862TIP3   OH242000   4.930   0.177  13.859  0.4322 -0.1912 -0.0579
 6862TIP3    H142001   4.961   0.215  13.941  0.1442  1.0277 -0.4951
 6862TIP3    H242002   4.857   0.234  13.833  1.9430  0.7897 -2.3077
 6863TIP3   OH242003   5.182   5.130   2.247  0.7304  0.6857  0.3249
 6863TIP3    H142004   5.149   5.141   2.336 -1.4941  0.9006 -0.5003
 6863TIP3    H242005   5.179   5.218   2.210  1.3385  0.5383 -0.0757
 6864TIP3   OH242006   1.621   0.012   0.015 -0.1800 -0.5139  0.6319
 6864TIP3    H142007   1.552   0.017  -0.051 -0.1771 -1.7197  0.5180
 6864TIP3    H242008   1.593   0.070   0.085  0.0642  1.1993 -0.6525
 6865TIP3   OH242009   0.076   3.626  12.774 -0.3150 -0.0207 -0.7286
 6865TIP3    H142010   0.088   3.541  12.817 -0.9265 -0.5560 -1.5856
 6865TIP3    H242011  -0.019   3.633  12.761 -0.5376  1.9753  1.6661
 6866TIP3   OH242012   3.067   3.345  13.411 -0.5994 -0.2050 -0.1137
 6866TIP3    H142013   2.985   3.351  13.460 -0.7657  0.4881 -0.4765
 6866TIP3    H242014   3.135   3.359  13.477 -0.8125  0.4513 -0.0304
 6867TIP3   OH242015   1.902   4.845   2.170 -0.1620 -0.2521 -0.2030
 6867TIP3    H142016   1.963   4.896   2.117 -0.6830 -0.5592 -1.0958
 6867TIP3    H242017   1.863   4.909   2.230 -0.0280  0.1982 -0.5952
 6868TIP3   OH242018   2.345   5.309  12.558 -0.6411 -0.3956  0.0154
 6868TIP3    H142019   2.436   5.300  12.586 -0.4425 -0.9393 -0.8157
 6868TIP3    H242020   2.299   5.241  12.608 -0.5945 -0.1447  0.4069
 6869TIP3   OH242021   2.063   5.111   4.178  0.1645  0.0915  0.1371
 6869TIP3    H142022   2.021   5.121   4.263 -2.1127  0.8430 -1.0156
 6869TIP3    H242023   2.155   5.099   4.198 -0.2412  0.8524  2.6812
 6870TIP3   OH242024   6.465   5.062  16.571  0.3054 -0.0262 -0.2419
 6870TIP3    H142025   6.431   5.068  16.661  2.3128  1.7180  0.4452
 6870TIP3    H242026   6.421   5.133  16.524 -0.0849 -0.3802 -0.4119
 6871TIP3   OH242027   1.415   4.406  12.025 -0.5298  0.2685  0.2953
 6871TIP3    H142028   1.324   4.395  12.052 -0.2991 -1.2906  0.5144
 6871TIP3    H242029   1.409   4.428  11.932 -1.1811  2.0257  0.7317
 6872TIP3   OH242030   3.295   4.055   5.243 -0.0083  0.0352  0.0614
 6872TIP3    H142031   3.359   4.112   5.200 -0.8500  1.1570  0.2487
 6872TIP3    H242032   3.277   4.099   5.326 -1.8770  0.3661 -0.4864
 6873TIP3   OH242033   2.630   5.854   2.829 -0.9485  0.4408 -1.0757
 6873TIP3    H142034   2.541   5.838   2.797 -2.2784  2.3560  1.5494
 6873TIP3    H242035   2.623   5.934   2.881  2.0326 -0.1502  0.3116
 6874TIP3   OH242036   4.817   5.985   5.381  0.0300  0.0793 -0.0306
 6874TIP3    H142037   4.882   5.916   5.387 -0.4106 -0.5084 -1.7357
 6874TIP3    H242038   4.861   6.057   5.335 -0.5606 -0.3876 -1.3475
 6875TIP3   OH242039   4.768   2.771  13.429  0.0167  0.0929 -0.7098
 6875TIP3    H142040   4.825   2.769  13.352  0.6808 -0.8642 -0.1950
 6875TIP3    H242041   4.682   2.746  13.395  0.0641  0.7567 -1.3380
 6876TIP3   OH242042   3.307   4.437   3.076 -1.1125  1.0098 -0.3985
 6876TIP3    H142043   3.329   4.528   3.057 -0.3447  0.5102 -1.9860
 6876TIP3    H242044   3.267   4.404   2.996 -0.2777 -0.4017 -0.2549
 6877TIP3   OH242045   3.792   5.410   3.716 -0.3807  0.2851 -0.1440
 6877TIP3    H142046   3.758   5.323   3.739  1.2351 -0.6159 -1.0626
 6877TIP3    H242047   3.769   5.421   3.624 -1.1680  1.1236  0.1505
 6878TIP3   OH242048   5.216   2.698  16.045  0.7465  0.4767  0.3293
 6878TIP3    H142049   5.147   2.741  16.095 -0.1333  0.0003 -0.4802
 6878TIP3    H242050   5.238   2.760  15.975  0.2221  0.0622 -0.2005
 6879TIP3   OH242051   6.764   3.903   0.392 -0.0644  0.4659 -0.2610
 6879TIP3    H142052   6.817   3.830   0.360 -1.1200  0.1233 -1.2608
 6879TIP3    H242053   6.682   3.896   0.344 -1.1022  0.8672  1.3914
 6880TIP3   OH242054   4.078   1.123  15.038  0.0087 -0.0172 -0.0523
 6880TIP3    H142055   4.146   1.155  14.980 -0.5214 -0.5125 -0.9708
 6880TIP3    H242056   4.125   1.077  15.107  0.7049  1.6013  0.5782
 6881TIP3   OH242057   2.943   2.148   2.640 -0.0672 -0.2688 -0.1547
 6881TIP3    H142058   2.872   2.199   2.600 -0.2831 -1.7531 -1.7234
 6881TIP3    H242059   3.023   2.192   2.613 -0.2973 -0.1507 -0.6486
 6882TIP3   OH242060   6.562   1.562   5.581  0.0085  0.3284 -0.0132
 6882TIP3    H142061   6.510   1.615   5.520 -0.3157 -0.8624 -0.7841
 6882TIP3    H242062   6.622   1.625   5.622 -2.0637  1.7222  0.9375
 6883TIP3   OH242063   3.208   2.777   5.658  0.3731  0.3018 -0.0068
 6883TIP3    H142064   3.261   2.733   5.593  0.6366 -1.0416  1.1119
 6883TIP3    H242065   3.264   2.783   5.736 -0.2382  1.1120  0.3844
 6884TIP3   OH242066   4.159   6.019  10.405  0.7322 -0.0320 -0.3222
 6884TIP3    H142067   4.139   6.037  10.313  1.1058  2.5927  0.0907
 6884TIP3    H242068   4.075   5.995  10.444  0.2213  0.8087 -0.9020
 6885TIP3   OH242069   2.148   6.035   4.932  0.2069  0.0867 -0.6284
 6885TIP3    H142070   2.215   5.974   4.899  0.5222  0.9939 -1.7075
 6885TIP3    H242071   2.183   6.122   4.911 -0.3980  0.6345  0.5944
 6886TIP3   OH242072   0.393   0.009  11.687 -1.4624 -0.8501  0.8737
 6886TIP3    H142073   0.422   0.008  11.778  2.2220 -1.0386 -0.2191
 6886TIP3    H242074   0.426  -0.072  11.650  0.6442  1.0460 -1.6004
 6887TIP3   OH242075   1.635   2.617  15.469  0.3233 -0.0983 -0.3297
 6887TIP3    H142076   1.610   2.610  15.377 -0.6006 -0.3229 -0.0660
 6887TIP3    H242077   1.722   2.578  15.473  0.2676 -0.3112 -1.0675
 6888TIP3   OH242078   0.708   0.910  13.238  0.4582  0.0936 -0.1263
 6888TIP3    H142079   0.702   0.984  13.300  1.7581 -0.1770  0.3459
 6888TIP3    H242080   0.710   0.832  13.294  0.6823 -0.2086 -0.5499
 6889TIP3   OH242081   2.239   5.157   4.669  0.4507  0.0636 -1.1073
 6889TIP3    H142082   2.160   5.205   4.644 -0.8340 -1.4456 -0.0287
 6889TIP3    H242083   2.245   5.086   4.604 -1.0120 -1.8471  0.7759
 6890TIP3   OH242084   6.018   3.929   1.174 -0.1197  0.1105  0.0254
 6890TIP3    H142085   5.974   3.914   1.091 -0.3195 -1.4189  0.3851
 6890TIP3    H242086   5.958   3.985   1.223  0.0275  1.0620 -0.8807
 6891TIP3   OH242087   1.940   6.723  11.234 -0.2108 -0.2214 -0.7691
 6891TIP3    H142088   1.924   6.713  11.140 -0.8401  0.9759 -0.7957
 6891TIP3    H242089   1.874   6.668  11.276  0.3312 -1.0861 -1.0149
 6892TIP3   OH242090   3.846   1.400   4.889  0.6582  0.6074 -0.6120
 6892TIP3    H142091   3.923   1.439   4.847  0.5694  1.4149 -0.0327
 6892TIP3    H242092   3.816   1.467   4.951  0.4185 -0.3279  0.2890
 6893TIP3   OH242093   6.661   4.378   5.193 -0.0830  0.8947  0.0884
 6893TIP3    H142094   6.666   4.439   5.267  0.8915 -0.1678  0.9264
 6893TIP3    H242095   6.735   4.318   5.207  0.8508  1.4147 -2.4176
 6894TIP3   OH242096   5.757   1.684  14.441 -0.8646 -0.1584 -0.1451
 6894TIP3    H142097   5.721   1.691  14.530  0.0695 -0.1092  0.2302
 6894TIP3    H242098   5.787   1.594  14.434 -2.5744 -0.6899 -1.0537
 6895TIP3   OH242099   5.277   3.381   5.282 -0.1311  0.1631  0.5688
 6895TIP3    H142100   5.234   3.458   5.319 -2.1512  0.8261 -2.9227
 6895TIP3    H242101   5.222   3.308   5.309 -0.3606  0.3817  0.6962
 6896TIP3   OH242102   5.495   3.860   1.206 -0.4527  0.4120  0.3750
 6896TIP3    H142103   5.556   3.850   1.279 -0.0184 -0.5033 -0.1020
 6896TIP3    H242104   5.412   3.825   1.239  0.3830 -2.3977 -0.3886
 6897TIP3   OH242105   3.609   6.202  16.814  0.5805  0.0371  0.3086
 6897TIP3    H142106   3.583   6.222  16.724  1.1587 -2.6003 -0.4854
 6897TIP3    H242107   3.685   6.145  16.804  0.0663 -1.0500  2.4669
 6898TIP3   OH242108   2.373   4.613  13.608  0.0730 -0.0441  0.5062
 6898TIP3    H142109   2.460   4.574  13.619 -0.3369 -0.9111  0.6253
 6898TIP3    H242110   2.371   4.642  13.517 -0.2686 -1.8495 -0.0617
 6899TIP3   OH242111   0.726   6.327  16.852  0.1626  0.6045  0.1753
 6899TIP3    H142112   0.731   6.258  16.786  1.7554 -0.9715  1.9240
 6899TIP3    H242113   0.633   6.333  16.874 -0.1632  0.0056 -0.9881
 6900TIP3   OH242114   5.470   5.761  14.020 -0.1672 -0.7448 -0.2634
 6900TIP3    H142115   5.527   5.708  13.965  0.3181 -0.5025 -0.0012
 6900TIP3    H242116   5.419   5.697  14.071  1.9957 -0.9834  1.6776
 6901TIP3   OH242117   2.207   1.901  13.787  0.0855  0.1912  0.0038
 6901TIP3    H142118   2.162   1.866  13.710  2.4421 -0.9018 -0.9418
 6901TIP3    H242119   2.196   1.996  13.779 -2.1437 -0.0493 -0.0996
 6902TIP3   OH242120   3.264   4.986   4.945  0.4489  0.4260  0.6274
 6902TIP3    H142121   3.352   5.003   4.978  0.7422 -3.1382  1.9302
 6902TIP3    H242122   3.206   5.041   4.998  1.7636  1.8376  0.6128
 6903TIP3   OH242123   0.998   3.422  15.495  0.2521  0.1189 -0.0729
 6903TIP3    H142124   0.966   3.512  15.504  1.1180  0.6123 -1.6113
 6903TIP3    H242125   1.094   3.430  15.498  0.3308 -0.7882  0.0798
 6904TIP3   OH242126   4.470   3.733  16.030  0.4722  0.4484 -0.4917
 6904TIP3    H142127   4.552   3.702  15.992  2.4817  2.6736  1.8060
 6904TIP3    H242128   4.416   3.655  16.038  2.6824 -1.2172 -1.2988
 6905TIP3   OH242129   1.891   2.184  13.467  0.0511 -0.3239  0.1851
 6905TIP3    H142130   1.875   2.160  13.375 -2.4693 -2.4731  1.1274
 6905TIP3    H242131   1.859   2.274  13.473 -0.8168 -0.5482 -0.7900
 6906TIP3   OH242132   1.158   4.697   6.222  0.1523  0.1383  0.6091
 6906TIP3    H142133   1.171   4.685   6.316  1.7651  0.0761  0.3862
 6906TIP3    H242134   1.190   4.785   6.204  0.0901  0.0541  0.0716
 6907TIP3   OH242135   2.690   4.778  11.478 -0.0506  0.3684  0.0862
 6907TIP3    H142136   2.713   4.819  11.561  0.8728 -1.1205  0.5754
 6907TIP3    H242137   2.704   4.846  11.412  1.0810  0.9489  0.9271
 6908TIP3   OH242138   0.945   5.398  10.627  0.3588  0.4309 -0.0296
 6908TIP3    H142139   1.027   5.349  10.639 -0.2759 -0.5382  0.4429
 6908TIP3    H242140   0.966   5.464  10.561  2.0139  1.3562  1.3760
 6909TIP3   OH242141   1.486   0.666   0.455 -0.0610  0.4962  0.1135
 6909TIP3    H142142   1.531   0.591   0.494 -2.0795  0.1743  1.8618
 6909TIP3    H242143   1.557   0.724   0.426  1.5116 -1.7697 -0.6878
 6910TIP3   OH242144   3.844   6.518   4.613  0.4935  0.1195 -0.5303
 6910TIP3    H142145   3.909   6.558   4.671  0.8806 -0.7017 -0.3881
 6910TIP3    H242146   3.795   6.592   4.577  0.9991  0.7001 -0.0370
 6911TIP3   OH242147   5.155   6.084   0.254  0.3528  0.1702 -0.0494
 6911TIP3    H142148   5.225   6.028   0.289  0.6704  0.0688 -0.8330
 6911TIP3    H242149   5.112   6.030   0.187  0.5830  0.8070 -0.7272
 6912TIP3   OH242150   4.254   2.675  11.482  0.1247  0.9093  0.1137
 6912TIP3    H142151   4.345   2.702  11.495  0.8713 -1.5171  0.0882
 6912TIP3    H242152   4.242   2.677  11.387  1.0143 -1.4102 -0.0725
 6913TIP3   OH242153   3.735   4.945   6.599 -0.6639 -0.1086  0.1119
 6913TIP3    H142154   3.724   5.024   6.547  0.9379 -0.2772 -0.5033
 6913TIP3    H242155   3.688   4.877   6.551 -1.0678  0.2081  0.0549
 6914TIP3   OH242156   6.067   1.374   4.771 -0.2624  0.3483  0.2857
 6914TIP3    H142157   6.150   1.404   4.808  0.9805  1.8876 -3.4528
 6914TIP3    H242158   6.072   1.279   4.774  0.9862  0.4463  1.5083
 6915TIP3   OH242159   1.512   4.342   3.112 -0.6358  0.3784  0.0455
 6915TIP3    H142160   1.569   4.291   3.054 -0.4054 -0.8676  1.3354
 6915TIP3    H242161   1.441   4.372   3.056 -0.0310 -0.1876 -1.0362
 6916TIP3   OH242162   4.003   6.769  13.258  0.3267 -0.3149  0.1241
 6916TIP3    H142163   4.074   6.809  13.208  0.0340 -0.5918 -0.5150
 6916TIP3    H242164   3.927   6.825  13.243  0.3293 -0.1881  0.5658
 6917TIP3   OH242165   5.922   5.818   0.154 -0.1620  0.4048 -0.9015
 6917TIP3    H142166   5.899   5.778   0.069  0.2485  0.8025 -1.1999
 6917TIP3    H242167   5.845   5.869   0.178 -0.4302 -0.0210 -0.8459
 6918TIP3   OH242168   1.568   4.644   5.226  0.7100  0.3572 -0.3684
 6918TIP3    H142169   1.516   4.592   5.288 -0.1260  1.3520 -0.2208
 6918TIP3    H242170   1.525   4.729   5.225  0.7461  0.3667 -2.3067
 6919TIP3   OH242171   5.084   3.652   4.531  0.2248 -0.0398 -0.1201
 6919TIP3    H142172   5.115   3.738   4.558 -0.2946 -0.2256  1.1103
 6919TIP3    H242173   5.128   3.635   4.448  1.6970  0.6485  0.5051
 6920TIP3   OH242174   3.284   4.995   0.361 -1.0675  0.2519 -0.4053
 6920TIP3    H142175   3.263   4.902   0.347  0.0316 -0.0030 -0.3782
 6920TIP3    H242176   3.235   5.041   0.292 -0.3458 -0.4904 -1.4297
 6921TIP3   OH242177   1.197   4.477  16.102  0.4392 -0.1488 -0.3872
 6921TIP3    H142178   1.155   4.403  16.146  0.5116  1.0533  1.7504
 6921TIP3    H242179   1.290   4.468  16.122  0.4503  0.5103 -0.1272
 6922TIP3   OH242180   6.064   1.721   4.718  0.5066  0.4641 -0.4790
 6922TIP3    H142181   6.073   1.627   4.701 -0.3824  0.3261 -0.2274
 6922TIP3    H242182   6.103   1.763   4.641  2.2610 -0.0834  0.0930
 6923TIP3   OH242183   2.793   6.484   5.795 -0.2235 -0.3297  0.3267
 6923TIP3    H142184   2.790   6.571   5.755  0.7824 -0.3686  0.1415
 6923TIP3    H242185   2.874   6.446   5.762 -0.9274 -1.5452 -0.0056
 6924TIP3   OH242186   0.155   2.528  15.078  0.1924  0.4246 -0.7018
 6924TIP3    H142187   0.157   2.538  14.982 -0.0718 -0.5524 -0.8137
 6924TIP3    H242188   0.121   2.440  15.092  0.3129  0.5347  0.2997
 6925TIP3   OH242189   2.469   3.359   6.241  0.2088  0.8295  0.3030
 6925TIP3    H142190   2.525   3.436   6.241  2.8035 -0.9565  1.8762
 6925TIP3    H242191   2.491   3.313   6.323 -2.6790 -0.5708  0.3610
 6926TIP3   OH242192   2.196   3.329  12.643  0.2504  0.2041 -0.2641
 6926TIP3    H142193   2.141   3.400  12.611 -2.3025 -2.3943 -1.9652
 6926TIP3    H242194   2.278   3.337  12.595 -0.4922  1.2388 -1.3556
 6927TIP3   OH242195   2.845   3.300  11.394  0.1921 -0.1852 -0.5402
 6927TIP3    H142196   2.789   3.234  11.353  1.1299 -1.5147  0.2685
 6927TIP3    H242197   2.790   3.338  11.462 -0.5634  0.3220 -1.4235
 6928TIP3   OH242198   6.061   2.473  15.558  0.3757 -0.1377 -0.0331
 6928TIP3    H142199   6.027   2.557  15.589 -0.6485 -1.2219  1.8301
 6928TIP3    H242200   6.119   2.496  15.485  0.1698  2.1804  0.5104
 6929TIP3   OH242201   6.118   1.919  10.734  0.5439  0.5772 -0.3349
 6929TIP3    H142202   6.072   1.853  10.681  2.2510  0.1564 -1.3441
 6929TIP3    H242203   6.105   2.001  10.686 -0.8849  0.8396  0.4822
 6930TIP3   OH242204   0.773   5.325  16.964  0.2812  0.0209  0.1462
 6930TIP3    H142205   0.854   5.280  16.939  0.1092 -1.2035  1.7017
 6930TIP3    H242206   0.803   5.403  17.010  0.5670  0.2947 -0.4870
 6931TIP3   OH242207   2.102   1.515  13.506 -0.1562 -0.3875 -0.2402
 6931TIP3    H142208   2.067   1.453  13.570  0.0785  0.3913  0.6356
 6931TIP3    H242209   2.147   1.459  13.442 -1.4441 -1.2653 -0.4269
 6932TIP3   OH242210   5.349   6.616   3.750 -0.4088  0.0389 -0.8745
 6932TIP3    H142211   5.413   6.604   3.680  0.1785 -0.0486 -0.3280
 6932TIP3    H242212   5.331   6.710   3.751 -1.1863 -0.0989 -1.8132
 6933TIP3   OH242213   0.392   2.596   0.967  0.6861  0.1184  0.1903
 6933TIP3    H142214   0.383   2.607   1.062 -0.1465  0.5303  0.0703
 6933TIP3    H242215   0.325   2.532   0.943  1.8280 -1.0457  0.0735
 6934TIP3   OH242216   3.782   4.325   4.020  0.2280  0.3436 -0.1638
 6934TIP3    H142217   3.741   4.274   3.950 -0.7145 -0.0494  0.6547
 6934TIP3    H242218   3.774   4.269   4.097  0.4920  1.1291  0.4379
 6935TIP3   OH242219   0.140   5.453   0.119  0.5716  0.2367  0.7850
 6935TIP3    H142220   0.233   5.471   0.104  0.6145 -1.8022 -1.6032
 6935TIP3    H242221   0.094   5.523   0.073  0.9056 -0.8121 -1.2288
 6936TIP3   OH242222   3.093   5.539  11.880  0.4968 -0.4185  1.1448
 6936TIP3    H142223   3.029   5.520  11.811  1.2704  1.0672 -0.0174
 6936TIP3    H242224   3.046   5.593  11.943  0.8005  1.3546 -0.1138
 6937TIP3   OH242225   3.129   0.365   3.530 -0.4167 -0.4529  0.5380
 6937TIP3    H142226   3.122   0.454   3.495  1.0900 -0.7073 -0.4847
 6937TIP3    H242227   3.039   0.334   3.535 -0.9712  1.1740  1.0295
 6938TIP3   OH242228   3.204   1.913   0.010  0.1877 -0.0247  0.7322
 6938TIP3    H142229   3.182   1.871  -0.073 -0.7100 -0.0090  0.9529
 6938TIP3    H242230   3.155   1.864   0.076  0.6598  0.1460  1.2175
 6939TIP3   OH242231   4.388   4.974   2.623 -0.0892  0.0406  0.0988
 6939TIP3    H142232   4.467   4.989   2.570  0.5702 -0.2382  0.9931
 6939TIP3    H242233   4.417   4.988   2.713 -0.9722 -0.4583  0.4629
 6940TIP3   OH242234   5.138   5.111   2.881  0.1022 -0.4512  0.1439
 6940TIP3    H142235   5.106   5.026   2.912 -0.6090  0.4093  1.8366
 6940TIP3    H242236   5.162   5.095   2.790 -1.9905 -1.9660 -0.1905
 6941TIP3   OH242237   2.890   3.046  14.783  0.1812 -0.2725 -0.8742
 6941TIP3    H142238   2.830   2.986  14.829  2.7222 -2.7454 -0.6342
 6941TIP3    H242239   2.919   3.107  14.851  2.1581 -2.5085  0.3856
 6942TIP3   OH242240   3.998   6.243   0.494  0.0270  0.5890  0.5395
 6942TIP3    H142241   4.083   6.199   0.502  0.7763  2.0511  0.8424
 6942TIP3    H242242   3.939   6.194   0.551  0.9284  0.1850  1.1248
 6943TIP3   OH242243   6.111   4.416   4.678 -0.5498 -0.1687  0.3691
 6943TIP3    H142244   6.179   4.353   4.704 -0.1832  0.1188  0.1146
 6943TIP3    H242245   6.030   4.380   4.714 -0.1644 -0.1747  1.2438
 6944TIP3   OH242246   3.800   2.510  11.889  0.2291  0.0759  1.1911
 6944TIP3    H142247   3.724   2.518  11.946  0.3844  0.1677  1.3895
 6944TIP3    H242248   3.862   2.575  11.923  1.5176 -1.8999  2.8111
 6945TIP3   OH242249   2.531   5.823  13.896 -0.1854 -0.4532  0.4145
 6945TIP3    H142250   2.485   5.825  13.979 -0.0799  2.0482  0.4591
 6945TIP3    H242251   2.611   5.875  13.911 -1.1401  1.7622 -1.7249
 6946TIP3   OH242252   4.903   0.413   1.881  0.2497 -0.1180 -0.1804
 6946TIP3    H142253   4.973   0.460   1.836  1.2021 -1.4338 -0.1106
 6946TIP3    H242254   4.882   0.467   1.957  1.4481  0.0996  0.0042
 6947TIP3   OH242255   0.027   4.620   4.729  0.9238 -0.2611  0.3661
 6947TIP3    H142256   0.086   4.567   4.783  1.6350  1.6164  1.5039
 6947TIP3    H242257   0.076   4.634   4.648  0.4055 -1.9919 -0.2465
 6948TIP3   OH242258   2.967   5.344   3.433  0.1975 -0.4256 -0.0963
 6948TIP3    H142259   2.884   5.297   3.442  0.1981 -0.4282 -0.1017
 6948TIP3    H242260   2.987   5.338   3.340  0.0303 -0.1315 -0.1515
 6949TIP3   OH242261   6.673   1.299  13.175  0.0833 -0.5131 -0.2282
 6949TIP3    H142262   6.651   1.303  13.268 -1.1264  0.7591 -0.5377
 6949TIP3    H242263   6.762   1.333  13.170 -0.1868  0.3047  0.3735
 6950TIP3   OH242264   1.384   5.223   0.794  0.1768  0.3844  0.5238
 6950TIP3    H142265   1.378   5.317   0.808  0.5726  0.5178 -0.1948
 6950TIP3    H242266   1.299   5.198   0.759  0.6562  0.7801 -0.9904
 6951TIP3   OH242267   1.270   2.798   1.917 -0.4935 -0.3949  0.1443
 6951TIP3    H142268   1.231   2.857   1.853 -0.3392  0.2629  0.6598
 6951TIP3    H242269   1.288   2.853   1.993 -4.5510 -1.9388  2.3990
 6952TIP3   OH242270   2.952   2.444   1.532 -0.3639  0.3138 -0.3024
 6952TIP3    H142271   3.040   2.405   1.541  0.0076  1.5239  1.6844
 6952TIP3    H242272   2.929   2.430   1.440  1.2983 -1.3286 -0.5003
 6953TIP3   OH242273   0.167   2.122   4.880 -0.0053 -0.3254 -0.0746
 6953TIP3    H142274   0.181   2.081   4.796  1.2244 -2.4726  1.1514
 6953TIP3    H242275   0.127   2.207   4.859 -1.9943 -1.8573 -2.6548
 6954TIP3   OH242276   3.089   0.476   5.748 -0.0147  0.1972 -0.3866
 6954TIP3    H142277   3.172   0.450   5.789  0.7731  1.8072 -0.9146
 6954TIP3    H242278   3.048   0.394   5.723  0.2725 -0.7417  2.0797
 6955TIP3   OH242279   5.155   3.980   4.397  0.2865  0.4222 -0.6589
 6955TIP3    H142280   5.129   4.069   4.374 -1.9585  0.0404  0.3016
 6955TIP3    H242281   5.149   3.931   4.315 -1.1262  0.5554 -0.6411
 6956TIP3   OH242282   5.335   0.844   4.131 -0.7686  0.2262  0.0441
 6956TIP3    H142283   5.249   0.842   4.090 -0.2542 -0.8272 -1.0273
 6956TIP3    H242284   5.377   0.763   4.101  0.2959  0.3442  1.1876
 6957TIP3   OH242285   6.484   5.110  11.731  0.0282 -0.4725 -0.2697
 6957TIP3    H142286   6.416   5.175  11.751  0.1106 -0.4083 -0.1996
 6957TIP3    H242287   6.499   5.120  11.637 -0.4077 -0.8220 -0.3757
 6958TIP3   OH242288   4.252   2.844   2.550 -0.4790 -0.0522  0.3340
 6958TIP3    H142289   4.321   2.898   2.512 -0.0857  0.0685  1.2037
 6958TIP3    H242290   4.264   2.758   2.510 -1.0391  0.4764 -0.9732
 6959TIP3   OH242291   0.943   3.080  11.247 -0.4211 -0.4238  0.7991
 6959TIP3    H142292   0.880   3.058  11.178 -1.0323  0.2795  1.1188
 6959TIP3    H242293   0.915   3.166  11.278  1.8764  0.7605 -0.3552
 6960TIP3   OH242294   0.513   1.581  12.930 -0.5607  0.2111 -0.0857
 6960TIP3    H142295   0.490   1.574  13.023 -0.2015  0.7350  0.0454
 6960TIP3    H242296   0.488   1.497  12.892 -1.6770  0.3626  0.2815
 6961TIP3   OH242297   4.894   5.697   4.670  0.0086  0.0156 -0.2298
 6961TIP3    H142298   4.957   5.741   4.727 -1.4281  0.0702  1.3398
 6961TIP3    H242299   4.856   5.628   4.724  1.1426 -2.2402 -2.2044
 6962TIP3   OH242300   5.879   1.113  16.934 -0.1083 -0.1552 -0.4142
 6962TIP3    H142301   5.819   1.069  16.873  1.4696 -2.0459 -0.6682
 6962TIP3    H242302   5.954   1.139  16.880  0.7171 -0.6666  0.4622
 6963TIP3   OH242303   1.199   1.972  14.428 -0.6665  0.0879 -0.3238
 6963TIP3    H142304   1.181   2.011  14.342  0.0638 -0.3220 -0.6684
 6963TIP3    H242305   1.255   2.036  14.472  0.6957 -0.6279 -0.9653
 6964TIP3   OH242306   4.913   6.715   6.281  0.3392  0.2774  0.7224
 6964TIP3    H142307   4.923   6.723   6.186 -0.7942  1.6453  0.7068
 6964TIP3    H242308   4.909   6.620   6.296  0.5943  0.0423 -0.5767
 6965TIP3   OH242309   2.721   2.706  11.951  0.0243  0.3688  0.7235
 6965TIP3    H142310   2.747   2.790  11.915 -1.5632  1.3016  1.6996
 6965TIP3    H242311   2.801   2.654  11.951  1.0928  1.9824  0.4483
 6966TIP3   OH242312   4.905   5.933   3.546 -0.2140 -0.0812  0.2721
 6966TIP3    H142313   4.962   5.869   3.589 -2.7966 -1.9601  0.9798
 6966TIP3    H242314   4.898   5.902   3.456  2.1320  1.7592 -0.6037
 6967TIP3   OH242315   1.344   3.385  11.907  0.0358  0.1054  0.2053
 6967TIP3    H142316   1.321   3.409  11.997  1.1400 -1.3258  0.8935
 6967TIP3    H242317   1.372   3.294  11.913  1.0405  0.2849 -1.4330
 6968TIP3   OH242318   1.798   4.070  13.705  0.6138 -0.5041 -0.8606
 6968TIP3    H142319   1.711   4.103  13.725 -0.1153 -3.1136  0.5656
 6968TIP3    H242320   1.788   4.027  13.619  1.2636  1.8150 -2.1314
 6969TIP3   OH242321   1.310   0.662  13.766  0.3007  0.5951  0.1674
 6969TIP3    H142322   1.307   0.579  13.719  3.7685  0.5616 -0.1776
 6969TIP3    H242323   1.298   0.638  13.858  0.7130 -0.2231  0.0103
 6970TIP3   OH242324   5.213   6.727   1.623  0.0209  0.3325  0.0259
 6970TIP3    H142325   5.145   6.685   1.570  0.3617 -0.5726  0.2895
 6970TIP3    H242326   5.166   6.772   1.693 -0.3857  0.8578 -0.5854
 6971TIP3   OH242327   3.570   0.174  13.614 -0.1962 -0.3721 -0.7406
 6971TIP3    H142328   3.504   0.217  13.560 -2.2841 -2.5158  0.0335
 6971TIP3    H242329   3.569   0.223  13.696  0.5931  0.7909 -1.3987
 6972TIP3   OH242330   5.886   2.880  16.736  0.3748  0.3007  0.1415
 6972TIP3    H142331   5.916   2.893  16.826  1.4603  0.8496 -0.2843
 6972TIP3    H242332   5.960   2.907  16.682  0.3486 -1.6291 -0.9073
 6973TIP3   OH242333   3.562   2.864   2.717 -0.1019 -0.4301 -0.1768
 6973TIP3    H142334   3.583   2.908   2.799  0.7775 -0.2325 -0.5035
 6973TIP3    H242335   3.485   2.811   2.737  1.2842 -1.9288  1.2989
 6974TIP3   OH242336   4.730   0.611   3.400  0.1276  0.1205 -0.2448
 6974TIP3    H142337   4.680   0.689   3.378 -0.0126 -0.2177 -1.1426
 6974TIP3    H242338   4.820   0.631   3.372  0.7806  1.1879  2.4383
 6975TIP3   OH242339   2.625   0.971  12.301  0.4050 -0.1149 -0.1121
 6975TIP3    H142340   2.715   0.958  12.272  1.1849  4.0324  0.1285
 6975TIP3    H242341   2.608   1.064  12.286 -4.7036 -1.2603 -2.4679
 6976TIP3   OH242342   6.260   2.343   6.510  0.7182  0.9095 -0.1983
 6976TIP3    H142343   6.227   2.425   6.546 -0.3739  0.7397 -0.7691
 6976TIP3    H242344   6.279   2.289   6.586 -1.1313  0.7245  0.1659
 6977TIP3   OH242345   0.837   3.035   5.752  0.0004 -0.2167 -0.6056
 6977TIP3    H142346   0.755   3.023   5.704  0.4035 -0.5781 -1.2142
 6977TIP3    H242347   0.815   3.014   5.843 -0.8415  0.7569 -0.5743
 6978TIP3   OH242348   1.988   2.887  13.966  0.3888  0.8324 -0.2211
 6978TIP3    H142349   1.916   2.949  13.980 -0.1132  0.0704  0.5932
 6978TIP3    H242350   2.013   2.859  14.054  0.8646  0.1573 -0.5680
 6979TIP3   OH242351   1.477   3.602  16.059 -0.5527 -0.6194 -0.2016
 6979TIP3    H142352   1.550   3.542  16.074 -0.4361 -0.0917  1.4143
 6979TIP3    H242353   1.488   3.629  15.968  1.1432 -0.7216 -0.0538
 6980TIP3   OH242354   4.066   1.179   4.915  0.5139 -0.1988  0.2041
 6980TIP3    H142355   3.978   1.155   4.884 -0.9744  1.1265  3.1685
 6980TIP3    H242356   4.071   1.274   4.900  1.5258 -0.2914 -0.0730
 6981TIP3   OH242357   0.838   6.412   0.445 -0.0381 -0.1616 -0.1482
 6981TIP3    H142358   0.835   6.383   0.537  2.5079  0.0223  0.0331
 6981TIP3    H242359   0.853   6.331   0.396 -0.0026 -0.0734 -0.2814
 6982TIP3   OH242360   3.172   3.468  13.677  0.4389  0.0733  0.5166
 6982TIP3    H142361   3.173   3.562  13.660  1.4996  0.0462  0.3486
 6982TIP3    H242362   3.265   3.444  13.681  0.1743 -0.9369  0.6965
 6983TIP3   OH242363   3.119   0.375   0.283  0.5933 -0.1354 -0.4403
 6983TIP3    H142364   3.079   0.332   0.208 -0.3643  0.3453 -0.2078
 6983TIP3    H242365   3.201   0.326   0.298  0.1556 -1.0440 -0.9869
 6984TIP3   OH242366   2.075   6.773  15.276  0.5461 -0.3515 -0.2073
 6984TIP3    H142367   1.995   6.804  15.319 -0.2008  0.8811 -2.4325
 6984TIP3    H242368   2.056   6.682  15.255 -0.2749 -0.0734 -0.7112
 6985TIP3   OH242369   1.879   4.650  11.546  0.3403 -0.7236 -0.4369
 6985TIP3    H142370   1.906   4.637  11.637  1.4457 -0.0541 -0.6594
 6985TIP3    H242371   1.867   4.561  11.512 -0.9901 -0.9704  0.6151
 6986TIP3   OH242372   4.430   6.160  11.261 -0.5143 -0.8650  0.4686
 6986TIP3    H142373   4.515   6.129  11.294 -0.4920  0.4448  1.6844
 6986TIP3    H242374   4.399   6.089  11.206  3.0965  0.0605 -3.0126
 6987TIP3   OH242375   4.139   4.616  14.795  0.0981  0.3887  0.8564
 6987TIP3    H142376   4.070   4.682  14.790 -0.5165 -0.0960  2.5959
 6987TIP3    H242377   4.206   4.654  14.852  1.1026  0.7027 -0.5208
 6988TIP3   OH242378   0.394   5.173  15.430 -0.2256 -0.0697 -0.2709
 6988TIP3    H142379   0.433   5.260  15.435 -1.8467  0.7322 -1.2114
 6988TIP3    H242380   0.371   5.163  15.337 -2.2128 -0.5231  0.2491
 6989TIP3   OH242381   1.938   2.230  14.015  0.1311  0.0857 -0.0312
 6989TIP3    H142382   1.911   2.213  13.925  0.3798  1.2516 -0.3312
 6989TIP3    H242383   1.942   2.325  14.021  2.1444 -0.0201  0.6044
 6990TIP3   OH242384   0.904   4.198   3.141 -0.1657  0.0024 -0.2539
 6990TIP3    H142385   0.980   4.217   3.197 -0.4621  3.5405 -0.9133
 6990TIP3    H242386   0.941   4.187   3.054 -0.1566 -0.9017 -0.1366
 6991TIP3   OH242387   0.392   6.000   4.450 -0.6330 -0.0570  0.5989
 6991TIP3    H142388   0.430   5.913   4.440  0.1989  0.3705 -0.0304
 6991TIP3    H242389   0.401   6.021   4.543 -0.2811 -0.3871  0.6358
 6992TIP3   OH242390   3.362   0.188   3.469  0.2218 -0.0248 -0.2211
 6992TIP3    H142391   3.269   0.197   3.450  0.2639 -2.4543 -1.7730
 6992TIP3    H242392   3.365   0.169   3.563 -0.9041 -0.9406 -0.3627
 6993TIP3   OH242393   5.748   0.732  14.416  0.0418 -0.9426 -0.5883
 6993TIP3    H142394   5.804   0.737  14.338 -0.5304  0.2331 -0.9420
 6993TIP3    H242395   5.662   0.761  14.385 -0.7087 -2.4692  0.0138
 6994TIP3   OH242396   4.864   5.485  16.486  0.2092  0.1821 -0.4546
 6994TIP3    H142397   4.958   5.481  16.504 -0.1535 -1.2259  1.2506
 6994TIP3    H242398   4.851   5.421  16.416  0.4487  0.0567 -0.3868
 6995TIP3   OH242399   6.781   4.052  11.810  0.0853 -0.4301  0.2905
 6995TIP3    H142400   6.709   4.113  11.828  1.7112  1.7870 -0.5137
 6995TIP3    H242401   6.757   4.011  11.727  1.1553  2.5650 -1.5616
 6996TIP3   OH242402   1.635   2.141  14.296 -0.1399 -0.2777  0.4512
 6996TIP3    H142403   1.657   2.196  14.372 -0.1067  0.5780 -0.1720
 6996TIP3    H242404   1.720   2.115  14.261 -0.0578  2.1068 -1.2853
 6997TIP3   OH242405   0.014   4.474  13.609 -0.0042 -0.2496 -0.1589
 6997TIP3    H142406  -0.068   4.505  13.571 -0.2830  1.0462  1.4387
 6997TIP3    H242407   0.082   4.515  13.556 -0.3790 -0.5084 -0.8457
 6998TIP3   OH242408   2.353   3.520   3.181 -0.3016  0.0547 -0.5431
 6998TIP3    H142409   2.329   3.450   3.121 -0.0793 -1.1367  0.7487
 6998TIP3    H242410   2.282   3.522   3.245 -1.1139  2.0692 -1.4460
 6999TIP3   OH242411   4.280   0.796   3.238 -0.0811 -0.0872  0.1309
 6999TIP3    H142412   4.244   0.729   3.180  1.5838 -0.0323 -0.9974
 6999TIP3    H242413   4.330   0.853   3.181  0.3986  0.8174  1.4236
 7000TIP3   OH242414   1.353   2.600  15.558 -0.1778 -0.6640 -0.4024
 7000TIP3    H142415   1.443   2.587  15.528 -0.0758  0.2901 -0.5473
 7000TIP3    H242416   1.352   2.690  15.592 -0.9462 -0.8448  0.0650
 7001TIP3   OH242417   6.221   6.607   4.854 -0.0465  0.2632  0.5787
 7001TIP3    H142418   6.246   6.584   4.943 -0.7733 -0.1617  0.6738
 7001TIP3    H242419   6.157   6.677   4.864  1.1799  1.4314  0.3288
 7002TIP3   OH242420   6.000   4.810  13.287  0.2839 -0.2875 -0.0820
 7002TIP3    H142421   5.928   4.775  13.340 -0.5584 -0.2331 -1.1599
 7002TIP3    H242422   6.050   4.734  13.260 -1.0634 -0.6251 -1.7309
 7003TIP3   OH242423   4.357   1.642   0.546 -0.7653  0.0341 -0.0507
 7003TIP3    H142424   4.359   1.642   0.450 -0.3296 -1.4939 -0.0578
 7003TIP3    H242425   4.428   1.583   0.571 -0.3723  1.0332  1.2397
 7004TIP3   OH242426   3.087   2.184  12.760  0.1176 -0.1310  0.2698
 7004TIP3    H142427   2.995   2.180  12.733  0.2001  0.2212 -0.0517
 7004TIP3    H242428   3.092   2.123  12.835 -0.4337  0.0557  0.4614
 7005TIP3   OH242429   3.569   3.141   0.934 -0.2362 -0.4777 -0.4671
 7005TIP3    H142430   3.602   3.147   1.024 -0.9861 -0.1422 -0.2105
 7005TIP3    H242431   3.475   3.125   0.944 -0.4048  0.0461 -1.1946
 7006TIP3   OH242432   3.759   3.602  12.824 -0.2339  0.3960 -0.1849
 7006TIP3    H142433   3.768   3.522  12.772  0.0300  0.9708 -1.0277
 7006TIP3    H242434   3.797   3.580  12.909  2.3205  0.4621 -1.2946
 7007TIP3   OH242435   4.410   2.460   3.807 -0.4968 -0.1388  0.5880
 7007TIP3    H142436   4.443   2.467   3.897  0.2730  1.3972  0.2085
 7007TIP3    H242437   4.473   2.509   3.755 -1.4643 -0.2097 -0.6602
 7008TIP3   OH242438   6.739   4.182   6.095 -0.6869 -0.4142 -0.9720
 7008TIP3    H142439   6.653   4.180   6.137 -0.0198  0.6252  0.4621
 7008TIP3    H242440   6.777   4.096   6.112 -1.2030 -0.6717 -1.1219
 7009TIP3   OH242441   0.434   2.025   6.280 -0.2199 -0.0633 -0.4172
 7009TIP3    H142442   0.463   2.085   6.348 -1.4206 -0.6604  0.6355
 7009TIP3    H242443   0.491   1.949   6.287 -1.0022 -0.5564  0.5900
 7010TIP3   OH242444   5.750   6.047  13.980 -0.3317  0.1372  0.0119
 7010TIP3    H142445   5.758   6.134  14.018 -0.2681 -0.1969  0.7676
 7010TIP3    H242446   5.839   6.024  13.953 -0.5294  0.7679 -1.2392
 7011TIP3   OH242447   0.235   6.307  12.343  0.3918 -0.4723  0.3851
 7011TIP3    H142448   0.155   6.261  12.370  1.2708 -0.1416  3.6871
 7011TIP3    H242449   0.303   6.240  12.347  0.6413 -0.2744 -0.5034
 7012TIP3   OH242450   0.672   1.990  13.377 -0.2556 -0.2071  0.3489
 7012TIP3    H142451   0.576   1.990  13.382 -0.5607  1.4427 -3.3966
 7012TIP3    H242452   0.693   2.072  13.332  2.5362 -2.8970 -3.5906
 7013TIP3   OH242453   3.542   6.515   2.153 -0.0336  0.1787  0.2471
 7013TIP3    H142454   3.481   6.578   2.116  1.3626  0.4638 -1.6675
 7013TIP3    H242455   3.489   6.439   2.173 -1.2276  0.8766 -0.2061
 7014TIP3   OH242456   1.199   0.495  11.133 -0.3758 -0.2296  0.0262
 7014TIP3    H142457   1.147   0.576  11.136 -0.2690 -0.1374 -0.5294
 7014TIP3    H242458   1.287   0.522  11.160  0.2165  0.2967 -2.3147
 7015TIP3   OH242459   4.639   2.813   5.306 -0.4978  0.2826  0.1027
 7015TIP3    H142460   4.683   2.789   5.387 -1.8483 -0.4265  0.6499
 7015TIP3    H242461   4.705   2.861   5.255 -0.0782  2.0556  2.2425
 7016TIP3   OH242462   6.098   1.750   1.880  0.1710  0.0516 -0.0474
 7016TIP3    H142463   6.159   1.680   1.905  0.2523 -0.2150 -0.9676
 7016TIP3    H242464   6.023   1.739   1.938  0.8833  0.2097  0.9101
 7017TIP3   OH242465   0.872   3.809   1.075  0.3490  0.3148 -0.5530
 7017TIP3    H142466   0.842   3.770   0.993 -0.6594 -2.0948  0.9009
 7017TIP3    H242467   0.931   3.743   1.113 -1.6000 -0.0134  2.0936
 7018TIP3   OH242468   5.877   0.344  11.660 -0.3669 -0.2518 -0.0303
 7018TIP3    H142469   5.891   0.400  11.583 -0.0717 -0.2653  0.0110
 7018TIP3    H242470   5.918   0.392  11.732  1.1854 -1.1824 -0.2552
 7019TIP3   OH242471   6.478   6.644  15.576  0.1369  0.1586  0.3517
 7019TIP3    H142472   6.390   6.637  15.539  0.7541  1.5773 -1.4392
 7019TIP3    H242473   6.533   6.595  15.515  0.6924 -0.1836  1.1233
 7020TIP3   OH242474   4.122   6.171   3.504  0.1445  0.2454 -0.4010
 7020TIP3    H142475   4.062   6.133   3.439 -1.1229  1.1003  0.2575
 7020TIP3    H242476   4.118   6.265   3.488  1.7984  0.2706 -0.7533
 7021TIP3   OH242477   5.203   0.396  12.243 -0.0847 -0.1748 -0.7864
 7021TIP3    H142478   5.229   0.440  12.162  2.0483  0.1512  0.0647
 7021TIP3    H242479   5.117   0.358  12.222  0.0276  0.6518 -2.9109
 7022TIP3   OH242480   1.508   0.952  16.333 -0.0179 -0.0397 -0.5120
 7022TIP3    H142481   1.459   0.971  16.414  0.0194 -1.5961 -0.1064
 7022TIP3    H242482   1.446   0.905  16.278 -0.0588  1.0622 -1.4413
 7023TIP3   OH242483   4.206   5.288   2.789 -0.0353 -0.1740  0.1119
 7023TIP3    H142484   4.260   5.305   2.866 -0.6185  1.7105  0.1529
 7023TIP3    H242485   4.267   5.296   2.715  0.0756  0.3455  0.2530
 7024TIP3   OH242486   2.156   5.882   1.760 -0.1656  0.2465  0.0309
 7024TIP3    H142487   2.205   5.930   1.827 -0.2037 -0.4782  0.5840
 7024TIP3    H242488   2.212   5.885   1.683  1.8987 -2.6416  1.3276
 7025TIP3   OH242489   6.487   2.568  13.305 -0.1631  0.6508 -0.1742
 7025TIP3    H142490   6.500   2.631  13.234  0.1681  1.2848  0.4432
 7025TIP3    H242491   6.440   2.495  13.264  0.3310  0.8552 -1.1167
 7026TIP3   OH242492   1.715   4.277   2.318 -0.6063  1.0951 -0.1027
 7026TIP3    H142493   1.777   4.342   2.353  0.2503 -0.0327  0.5017
 7026TIP3    H242494   1.691   4.224   2.394 -2.5211  1.6536 -0.2808
 7027TIP3   OH242495   0.165   3.426   1.800  0.1155  0.0259  0.4894
 7027TIP3    H142496   0.103   3.466   1.738  0.3677 -0.1092  0.1467
 7027TIP3    H242497   0.226   3.497   1.821 -0.5261  0.3309  1.3109
 7028TIP3   OH242498   3.969   0.747   5.429 -0.5655 -0.1477  0.3885
 7028TIP3    H142499   3.897   0.717   5.485  0.2868 -0.0316  1.5638
 7028TIP3    H242500   4.029   0.790   5.489 -1.0228  2.6024 -1.0551
 7029TIP3   OH242501   2.443   2.723  11.477 -0.4708  0.0688  0.3604
 7029TIP3    H142502   2.406   2.809  11.499  1.3952  1.1744 -0.6410
 7029TIP3    H242503   2.422   2.711  11.385  0.7224  0.2358  0.0590
 7030TIP3   OH242504   3.836   2.538   4.660  0.3435 -0.0105  0.6298
 7030TIP3    H142505   3.852   2.525   4.753  0.1254 -1.4099  0.4814
 7030TIP3    H242506   3.748   2.576   4.656 -0.1375 -1.0525  0.9460
 7031TIP3   OH242507   4.347   4.514  12.469 -0.4514  0.4575  0.5683
 7031TIP3    H142508   4.255   4.515  12.495  0.1128  0.8586  2.6541
 7031TIP3    H242509   4.380   4.601  12.490  0.7310 -0.1011  1.1264
 7032TIP3   OH242510   5.867   5.714  15.601 -0.3182 -0.2079  0.3030
 7032TIP3    H142511   5.838   5.684  15.688  0.3744 -0.8362  0.3248
 7032TIP3    H242512   5.850   5.808  15.601 -1.2444 -0.3762  0.7519
 7033TIP3   OH242513   3.236   0.577   3.845 -0.0052  0.2741  0.7192
 7033TIP3    H142514   3.301   0.514   3.812 -0.9961  0.6774 -2.1569
 7033TIP3    H242515   3.172   0.523   3.891  2.2901 -0.1367  3.5859
 7034TIP3   OH242516   4.181   4.329   4.509 -0.3661 -0.3275 -0.4245
 7034TIP3    H142517   4.211   4.334   4.600  1.2781  1.2748 -1.0291
 7034TIP3    H242518   4.089   4.305   4.516 -0.4666  0.5489  1.7019
 7035TIP3   OH242519   5.637   1.573  16.760 -0.4902 -0.1881  0.2177
 7035TIP3    H142520   5.565   1.625  16.797  0.2473  0.0391  1.3404
 7035TIP3    H242521   5.679   1.532  16.836  1.3777  0.7183 -0.3028
 7036TIP3   OH242522   4.897   5.667  11.591  0.0938  0.3730 -0.1436
 7036TIP3    H142523   4.861   5.750  11.559 -2.1322 -1.1624 -1.7138
 7036TIP3    H242524   4.838   5.600  11.557  1.0780 -1.7902  2.2427
 7037TIP3   OH242525   0.373   0.236   3.227 -0.3497 -0.5932 -0.4174
 7037TIP3    H142526   0.426   0.224   3.306 -0.2071  0.7465 -0.2890
 7037TIP3    H242527   0.434   0.219   3.155 -0.5349 -2.0271 -0.2378
 7038TIP3   OH242528   1.558   6.337   3.010 -0.3736  0.0890  0.5406
 7038TIP3    H142529   1.539   6.372   2.923  0.7874  0.5445  0.4619
 7038TIP3    H242530   1.625   6.396   3.046  0.7283 -1.3553  0.8806
 7039TIP3   OH242531   0.419   1.829  16.693  0.8096 -0.4523  0.4281
 7039TIP3    H142532   0.473   1.893  16.646 -1.3291 -0.1329 -1.7407
 7039TIP3    H242533   0.411   1.864  16.781  1.7040  1.0035 -0.0493
 7040TIP3   OH242534   2.201   2.413  11.528  0.0407 -0.3710  0.1256
 7040TIP3    H142535   2.254   2.466  11.588  0.7766 -0.9536  0.0002
 7040TIP3    H242536   2.168   2.476  11.464  1.7362 -0.1996 -0.6052
 7041TIP3   OH242537   0.097   1.614  17.165 -0.0865  0.2383 -0.0593
 7041TIP3    H142538   0.065   1.693  17.210  1.2277  0.8158 -0.1383
 7041TIP3    H242539   0.035   1.601  17.094 -1.4226  0.0942  1.1039
 7042TIP3   OH242540   2.575   1.770  17.077 -0.3818 -0.0106  0.6395
 7042TIP3    H142541   2.520   1.711  17.127 -0.7023 -0.4776 -0.2538
 7042TIP3    H242542   2.628   1.816  17.143 -1.2907 -0.1061  1.4409
 7043TIP3   OH242543   6.124   2.366   2.209 -0.3626 -0.1601  0.4788
 7043TIP3    H142544   6.114   2.430   2.279 -0.2025  0.9776 -0.5076
 7043TIP3    H242545   6.165   2.415   2.138 -0.9938 -1.1492 -0.5918
 7044TIP3   OH242546   0.025   5.610  14.311  0.6105 -0.9526  0.3382
 7044TIP3    H142547  -0.053   5.609  14.367  0.3520 -0.8125 -0.0193
 7044TIP3    H242548   0.007   5.543  14.245  0.2414 -0.0110 -0.5079
 7045TIP3   OH242549   5.972   2.290   0.521  0.3137 -0.0890 -0.1031
 7045TIP3    H142550   5.996   2.308   0.430  0.8407 -1.1966 -0.1797
 7045TIP3    H242551   6.014   2.360   0.571 -0.4225  0.8454 -0.7509
 7046TIP3   OH242552   5.280   3.300   4.043  0.1862 -0.1008 -0.1270
 7046TIP3    H142553   5.369   3.265   4.047  0.3564  0.4468  1.0033
 7046TIP3    H242554   5.287   3.376   3.985  0.9370  1.3063  1.7558
 7047TIP3   OH242555   1.533   3.296   2.418  0.0662  0.4872  0.7595
 7047TIP3    H142556   1.446   3.314   2.382  0.0671  0.5874  0.8060
 7047TIP3    H242557   1.593   3.339   2.356  0.2144 -1.5315 -0.5338
 7048TIP3   OH242558   1.987   2.076  12.291  0.0783  0.3397 -0.1452
 7048TIP3    H142559   1.974   2.047  12.381  0.2214 -2.6669 -1.0158
 7048TIP3    H242560   2.078   2.104  12.287  0.0844  0.4216  0.6286
 7049TIP3   OH242561   3.714   4.779  10.875 -0.4564 -0.4019 -0.5403
 7049TIP3    H142562   3.644   4.809  10.816 -0.4061  0.6639 -0.0779
 7049TIP3    H242563   3.712   4.842  10.947  0.1941 -1.0693  0.0638
 7050TIP3   OH242564   1.236   4.946  12.002  0.0000 -0.6454 -0.1831
 7050TIP3    H142565   1.181   4.938  11.924 -0.4620  1.0433 -0.0619
 7050TIP3    H242566   1.317   4.985  11.970 -0.4144  0.6041  0.2488
 7051TIP3   OH242567   2.936   0.227  13.309  0.1874  0.4206  0.4771
 7051TIP3    H142568   2.967   0.137  13.302  2.6567  1.3239 -0.6546
 7051TIP3    H242569   2.936   0.245  13.404  3.1870  0.3766  0.5269
 7052TIP3   OH242570   2.677   3.576   3.506  0.8595  0.4094 -0.2682
 7052TIP3    H142571   2.602   3.616   3.462  2.1152  1.3058 -1.6660
 7052TIP3    H242572   2.728   3.536   3.435  2.3775  0.9608  0.4835
 7053TIP3   OH242573   0.632   2.372  12.381  0.4400  0.1687  0.3562
 7053TIP3    H142574   0.692   2.379  12.307 -1.4472 -0.2115 -1.2798
 7053TIP3    H242575   0.545   2.388  12.342 -0.7164 -1.3211  2.2485
 7054TIP3   OH242576   2.483   4.505  16.029  0.4219 -0.1554  0.5377
 7054TIP3    H142577   2.454   4.513  15.938 -0.7103  0.8963  0.9811
 7054TIP3    H242578   2.411   4.539  16.080  1.3326 -0.1087  1.8096
 7055TIP3   OH242579   2.674   4.560   2.653  0.0326 -0.1810 -0.7270
 7055TIP3    H142580   2.606   4.580   2.589  1.8687  2.3513 -1.9857
 7055TIP3    H242581   2.750   4.535   2.600  0.5584 -1.5162  0.6059
 7056TIP3   OH242582   0.395   3.753   5.290  0.5650  0.0348  0.1209
 7056TIP3    H142583   0.368   3.810   5.218  1.3507 -0.1449 -0.3176
 7056TIP3    H242584   0.381   3.664   5.257  0.3555 -0.0417  0.4119
 7057TIP3   OH242585   3.536   6.773  16.458  0.0099 -0.4066  0.0387
 7057TIP3    H142586   3.617   6.758  16.408 -0.4548  0.1748 -0.8917
 7057TIP3    H242587   3.491   6.688  16.455  1.7933 -1.5360  2.8269
 7058TIP3   OH242588   6.378   2.150   3.210 -0.3080 -0.1807 -0.4332
 7058TIP3    H142589   6.348   2.097   3.136 -1.9733  1.2292 -0.7952
 7058TIP3    H242590   6.473   2.151   3.202 -0.3091 -2.3055 -0.9667
 7059TIP3   OH242591   0.354   4.234  15.017  0.2146 -0.3282  0.6499
 7059TIP3    H142592   0.401   4.250  15.098  1.9340  0.3462 -0.4379
 7059TIP3    H242593   0.353   4.319  14.972  1.6904 -1.2473 -1.2314
 7060TIP3   OH242594   1.526   1.650  16.565 -0.5584 -0.0153  0.0038
 7060TIP3    H142595   1.511   1.636  16.659 -0.6798  0.4584  0.0570
 7060TIP3    H242596   1.455   1.708  16.538 -0.1080  0.4369 -0.2190
 7061TIP3   OH242597   3.914   4.588  12.123 -0.4886  0.6585 -0.0975
 7061TIP3    H142598   3.920   4.627  12.036  2.8597  0.9460  0.1984
 7061TIP3    H242599   3.874   4.655  12.177 -0.5136  1.3172 -0.9288
 7062TIP3   OH242600   5.121   3.077  12.108 -0.0974  0.1414  0.7534
 7062TIP3    H142601   5.132   3.121  12.193 -0.9462  1.3381  0.2500
 7062TIP3    H242602   5.131   3.147  12.043  0.6472 -0.7839 -0.1513
 7063TIP3   OH242603   5.697   2.292  13.735  0.6537 -0.0786  0.4902
 7063TIP3    H142604   5.735   2.341  13.663 -1.2814  0.5246 -0.1349
 7063TIP3    H242605   5.773   2.262  13.786  2.0538 -0.6715 -1.8555
 7064TIP3   OH242606   3.012   5.161  16.230  0.2886  0.0313 -0.0435
 7064TIP3    H142607   3.061   5.107  16.292 -0.3935 -0.8173 -0.2218
 7064TIP3    H242608   2.962   5.097  16.178 -0.9357  0.8694  0.0910
 7065TIP3   OH242609   1.643   0.315  13.902 -0.2572 -0.0155 -0.2876
 7065TIP3    H142610   1.617   0.279  13.816  0.9085  0.4860 -0.8541
 7065TIP3    H242611   1.560   0.341  13.942 -1.0165 -2.1710 -0.3943
 7066TIP3   OH242612   1.020   1.964   2.828 -0.3539 -0.8515 -0.0430
 7066TIP3    H142613   1.049   2.029   2.764 -0.7861 -1.0663 -0.4535
 7066TIP3    H242614   0.926   1.980   2.837 -0.4819 -1.5095 -0.2433
 7067TIP3   OH242615   2.388   0.269   2.397 -0.7542  0.5607  0.2703
 7067TIP3    H142616   2.435   0.351   2.407  0.5903 -0.2056  0.3332
 7067TIP3    H242617   2.416   0.236   2.312  0.3926 -0.8839  1.1892
 7068TIP3   OH242618   4.135   5.341  15.414 -0.2314  0.2146 -0.0503
 7068TIP3    H142619   4.184   5.271  15.371  0.4408  0.9500 -0.4940
 7068TIP3    H242620   4.104   5.302  15.495  1.5320 -0.1195  0.4887
 7069TIP3   OH242621   0.993   5.223  13.225 -0.0747 -0.0801 -0.0132
 7069TIP3    H142622   0.906   5.240  13.188 -0.0515  0.4469  0.1804
 7069TIP3    H242623   1.043   5.302  13.206 -0.2642  0.4841  1.7543
 7070TIP3   OH242624   5.242   5.087  11.013 -0.9234 -0.5767 -0.0645
 7070TIP3    H142625   5.293   5.134  11.079  0.3174 -0.0613 -1.3583
 7070TIP3    H242626   5.307   5.036  10.965 -1.4358  1.0740 -2.5801
 7071TIP3   OH242627   1.584   1.803  14.486 -0.3519  0.1603  0.2202
 7071TIP3    H142628   1.678   1.787  14.498 -0.5261 -0.6260  0.5572
 7071TIP3    H242629   1.571   1.795  14.392 -0.0015  0.7435  0.1156
 7072TIP3   OH242630   0.740   0.264  16.135  0.4558  0.0152 -0.5119
 7072TIP3    H142631   0.746   0.169  16.146 -0.3902  0.2274  1.9547
 7072TIP3    H242632   0.829   0.296  16.147  0.1018 -0.1019  2.6208
 7073TIP3   OH242633   2.994   1.842  15.525 -0.1118  0.4509 -0.3714
 7073TIP3    H142634   3.065   1.906  15.532  0.3823 -0.1717  0.4855
 7073TIP3    H242635   2.944   1.852  15.607 -0.1140 -0.1502 -0.2923
 7074TIP3   OH242636   1.904   1.158   5.366  0.1757  0.1912 -0.4265
 7074TIP3    H142637   1.873   1.096   5.433 -0.0720  1.2593  0.4664
 7074TIP3    H242638   1.824   1.183   5.319  0.0739  0.8792  0.1100
 7075TIP3   OH242639   2.503   0.631   3.852  0.8654 -0.0716 -0.1887
 7075TIP3    H142640   2.493   0.536   3.859  0.4089  0.0016  0.1645
 7075TIP3    H242641   2.415   0.665   3.863  1.2224  0.4777  1.0585
 7076TIP3   OH242642   5.014   2.922   5.902 -0.3049 -0.5627 -0.3119
 7076TIP3    H142643   4.988   2.839   5.862  2.5596 -1.7720  0.2765
 7076TIP3    H242644   4.991   2.912   5.994 -0.0736 -0.6609 -0.2642
 7077TIP3   OH242645   2.502   3.164  10.877  0.0581 -0.2692 -0.1238
 7077TIP3    H142646   2.496   3.099  10.807 -0.0583  1.2776 -1.5719
 7077TIP3    H242647   2.417   3.159  10.921  0.3087 -1.5877  0.2172
 7078TIP3   OH242648   6.588   4.711  12.921 -0.0977  0.1450 -0.5708
 7078TIP3    H142649   6.519   4.669  12.869 -0.9762 -0.7682  1.2718
 7078TIP3    H242650   6.568   4.804  12.917 -0.8090 -0.0199 -0.9702
 7079TIP3   OH242651   1.104   1.871   0.397  0.3451  0.5622 -0.0934
 7079TIP3    H142652   1.182   1.892   0.346  0.2569  0.1335 -0.4071
 7079TIP3    H242653   1.131   1.878   0.488  0.7024  0.5907 -0.2040
 7080TIP3   OH242654   1.406   6.033   6.120  0.9292  0.2635  0.1336
 7080TIP3    H142655   1.415   5.970   6.048 -0.9593  0.4570 -0.2872
 7080TIP3    H242656   1.312   6.049   6.126  1.1650  0.9796  2.0359
 7081TIP3   OH242657   4.220   0.564  14.714 -0.5354  0.2576  0.4472
 7081TIP3    H142658   4.150   0.563  14.779 -1.1482 -0.5847 -0.2201
 7081TIP3    H242659   4.286   0.622  14.752 -1.0512  0.0858  1.6497
 7082TIP3   OH242660   0.162   6.224  11.766 -0.5020 -0.2464  0.5780
 7082TIP3    H142661   0.197   6.143  11.728  0.1717 -0.1273  0.9537
 7082TIP3    H242662   0.109   6.262  11.696 -0.3502 -0.7189  0.2077
 7083TIP3   OH242663   4.445   3.509   0.666 -0.3577 -0.5001  0.6048
 7083TIP3    H142664   4.401   3.593   0.652  0.9886  0.4206  1.7265
 7083TIP3    H242665   4.404   3.449   0.603  0.7405  1.7287 -2.3597
 7084TIP3   OH242666   2.386   1.266  11.421 -0.7049  0.0572  0.5482
 7084TIP3    H142667   2.448   1.274  11.493 -0.1067 -1.3483  0.2111
 7084TIP3    H242668   2.308   1.313  11.450 -0.6142 -0.8256  2.2739
 7085TIP3   OH242669   2.505   5.096  13.202 -0.0951 -0.0394 -0.2196
 7085TIP3    H142670   2.441   5.080  13.271 -1.6606 -1.2285 -1.8855
 7085TIP3    H242671   2.485   5.184  13.170 -1.0952 -0.5090 -0.9129
 7086TIP3   OH242672   4.021   0.012   2.729 -0.7298  0.4019  0.1597
 7086TIP3    H142673   3.945  -0.027   2.686 -0.5371 -0.2555  0.4035
 7086TIP3    H242674   4.003   0.106   2.729 -0.5577  0.4575 -1.7017
 7087TIP3   OH242675   5.600   3.206   0.572  0.3738 -0.3854  0.4023
 7087TIP3    H142676   5.620   3.155   0.651  1.0134 -2.9134 -1.3352
 7087TIP3    H242677   5.679   3.199   0.519 -0.1940  0.9722 -0.6321
 7088TIP3   OH242678   5.831   1.579   1.711  0.0754  0.0506  0.1781
 7088TIP3    H142679   5.755   1.604   1.763  0.8755  1.2247  0.8009
 7088TIP3    H242680   5.840   1.485   1.725 -1.8077 -0.2794 -0.6356
 7089TIP3   OH242681   5.425   4.919   3.741  0.2557  0.5800 -0.3577
 7089TIP3    H142682   5.402   4.940   3.831 -0.6555 -1.0286 -0.2036
 7089TIP3    H242683   5.447   5.004   3.701 -2.5205  1.7240  0.4552
 7090TIP3   OH242684   3.572   1.422   5.469 -0.0238 -0.4243 -0.0750
 7090TIP3    H142685   3.617   1.353   5.421  1.7285  1.1954 -0.8490
 7090TIP3    H242686   3.563   1.493   5.405 -1.8081  0.0634  0.6896
 7091TIP3   OH242687   1.707   3.631  16.261 -0.4229 -0.4028  0.2651
 7091TIP3    H142688   1.663   3.712  16.286 -0.1483 -0.4248  0.8212
 7091TIP3    H242689   1.740   3.595  16.343 -0.6264 -1.1251  0.0336
 7092TIP3   OH242690   0.410   1.118   2.666 -0.1380 -0.0051  0.1027
 7092TIP3    H142691   0.446   1.087   2.749  0.3851  2.0018  0.6777
 7092TIP3    H242692   0.365   1.043   2.629  1.2815 -1.4806  1.2818
 7093TIP3   OH242693   3.555   4.653  15.262 -0.0574  0.0648  0.0315
 7093TIP3    H142694   3.636   4.635  15.310 -0.3401 -0.1383  0.4306
 7093TIP3    H242695   3.485   4.624  15.320 -0.4296  0.4416 -0.2222
 7094TIP3   OH242696   2.811   4.294   6.137 -0.0395 -0.1729  0.4017
 7094TIP3    H142697   2.726   4.264   6.169  0.4074 -0.5395  1.2816
 7094TIP3    H242698   2.832   4.369   6.192  0.1269  0.0118  0.0819
 7095TIP3   OH242699   3.141   0.876   1.942 -0.3539 -0.6825 -0.4587
 7095TIP3    H142700   3.052   0.851   1.918  0.5700 -2.2889 -2.3392
 7095TIP3    H242701   3.141   0.877   2.038 -2.2664 -1.0759 -0.4411
 7096TIP3   OH242702   0.047   1.183  13.997 -0.1267 -0.0735  0.1071
 7096TIP3    H142703   0.048   1.223  13.910 -1.1221  0.3093  0.2574
 7096TIP3    H242704   0.015   1.094  13.982  0.0931 -0.1370  0.0249
 7097TIP3   OH242705   4.160   5.908   5.993  0.3661 -0.5351 -0.6607
 7097TIP3    H142706   4.087   5.871   5.943  2.0027 -0.8953 -2.8867
 7097TIP3    H242707   4.174   5.846   6.064 -1.9181 -0.1024  0.2055
 7098TIP3   OH242708   3.492   4.760   3.315 -0.0811  0.2592  0.2664
 7098TIP3    H142709   3.499   4.665   3.309  0.4919  0.2970  0.3419
 7098TIP3    H242710   3.435   4.784   3.241 -1.5866 -0.2891  1.2241
 7099TIP3   OH242711   3.444   0.711  16.881  0.5148 -0.8316  0.4451
 7099TIP3    H142712   3.458   0.715  16.975  1.9623  0.9110  0.1789
 7099TIP3    H242713   3.387   0.785  16.861  1.6066 -0.1568 -0.2578
 7100TIP3   OH242714   4.767   4.265  16.674  0.2071 -0.6206 -1.2000
 7100TIP3    H142715   4.778   4.337  16.737  0.2049 -0.0456 -1.8396
 7100TIP3    H242716   4.717   4.199  16.722  1.6754 -0.9097 -0.0531
 7101TIP3   OH242717   0.759   3.106  12.725  0.4465 -0.2351 -0.4337
 7101TIP3    H142718   0.676   3.063  12.747 -0.7471  1.1135 -2.1445
 7101TIP3    H242719   0.756   3.119  12.631  3.0243 -0.9274 -0.6539
 7102TIP3   OH242720   3.734   1.066   5.790  0.4077 -0.3054 -0.2199
 7102TIP3    H142721   3.694   1.129   5.850  2.0293 -0.1322  0.6920
 7102TIP3    H242722   3.819   1.045   5.829  0.8992 -1.2599 -1.7380
 7103TIP3   OH242723   6.019   6.277   2.335 -0.2431 -0.1963 -0.5171
 7103TIP3    H142724   6.013   6.262   2.241  1.1588 -0.2348 -0.6087
 7103TIP3    H242725   5.929   6.268   2.367 -0.5352 -1.4328 -1.6624
 7104TIP3   OH242726   6.205   5.004  12.388  0.1726  0.0518  0.5578
 7104TIP3    H142727   6.199   4.911  12.370  0.9656  0.2987 -1.0294
 7104TIP3    H242728   6.114   5.035  12.384 -0.0656 -0.6061  0.8899
 7105TIP3   OH242729   5.899   3.299  16.366 -0.4057  0.0983 -0.2161
 7105TIP3    H142730   5.931   3.364  16.428 -0.3675 -0.2425  0.1304
 7105TIP3    H242731   5.903   3.216  16.414 -1.9489  0.0662 -0.1274
 7106TIP3   OH242732   3.421   5.697   2.902  0.4049  0.3559  0.3601
 7106TIP3    H142733   3.446   5.716   2.992 -0.4420  0.5530  0.5631
 7106TIP3    H242734   3.402   5.783   2.864 -0.1991  0.1974  0.2937
 7107TIP3   OH242735   5.255   3.546   2.637 -0.1933 -0.1929  0.4425
 7107TIP3    H142736   5.243   3.640   2.634 -0.5012 -0.1592  2.0086
 7107TIP3    H242737   5.262   3.519   2.546  1.0495  1.4908  0.0148
 7108TIP3   OH242738   6.562   1.931   1.437 -0.1890 -0.2256 -0.0125
 7108TIP3    H142739   6.559   1.879   1.518 -2.2940 -1.8758 -1.0992
 7108TIP3    H242740   6.637   1.895   1.389  1.5929  1.3301  1.5405
 7109TIP3   OH242741   3.483   4.850   4.686 -0.1346  0.4274 -0.3073
 7109TIP3    H142742   3.450   4.886   4.604  0.7630  1.7015 -0.1180
 7109TIP3    H242743   3.441   4.902   4.755  0.9291  0.9346 -0.0273
 7110TIP3   OH242744   1.999   0.240   1.226  0.3724  0.2342  0.2268
 7110TIP3    H142745   2.003   0.153   1.265  0.2501  0.1923  0.1471
 7110TIP3    H242746   2.090   0.259   1.200  0.0816 -0.7324 -1.6188
 7111TIP3   OH242747   4.697   2.712  12.315  0.5269 -0.6053 -0.1767
 7111TIP3    H142748   4.772   2.705  12.257 -0.1024 -1.1707 -0.9406
 7111TIP3    H242749   4.621   2.700  12.257 -0.2234  1.7582  0.2969
 7112TIP3   OH242750   0.945   3.441   6.184  0.6852  0.1929  0.0718
 7112TIP3    H142751   0.922   3.380   6.254 -3.3908 -0.4881 -1.6973
 7112TIP3    H242752   0.951   3.526   6.226 -1.7667 -0.2010  1.3018
 7113TIP3   OH242753   4.527   6.323  16.973 -0.4911  0.3556  0.0779
 7113TIP3    H142754   4.468   6.256  16.940  0.5646  0.9974 -3.2761
 7113TIP3    H242755   4.615   6.288  16.956  0.0830  1.6851  0.2137
 7114TIP3   OH242756   0.589   6.496   4.046 -0.1069 -0.5363 -0.1469
 7114TIP3    H142757   0.683   6.508   4.058 -0.0535 -0.7778 -0.3135
 7114TIP3    H242758   0.582   6.445   3.965 -0.3749 -0.6716 -0.0380
 7115TIP3   OH242759   5.634   2.276   5.374  0.4474  0.5002  0.4747
 7115TIP3    H142760   5.678   2.237   5.298  0.9625  0.6070  0.7095
 7115TIP3    H242761   5.541   2.267   5.356  0.5619  1.5618 -0.7136
 7116TIP3   OH242762   6.281   3.050   2.176 -0.1012 -0.4114  0.0749
 7116TIP3    H142763   6.326   3.036   2.259 -1.2748 -1.9947  0.4700
 7116TIP3    H242764   6.188   3.058   2.199 -0.1162  2.3646 -0.7728
 7117TIP3   OH242765   2.260   6.156   2.267  0.1106  0.0433  0.0370
 7117TIP3    H142766   2.237   6.249   2.266  0.5584  0.1500 -0.4095
 7117TIP3    H242767   2.234   6.126   2.354  0.0895  0.6188  0.2293
 7118TIP3   OH242768   1.739   3.034   5.367  0.2181 -0.1385 -0.2006
 7118TIP3    H142769   1.755   3.085   5.446  1.5541 -0.4460 -0.2561
 7118TIP3    H242770   1.784   3.081   5.298 -1.8301  0.6951 -1.0012
 7119TIP3   OH242771   3.546   6.578   4.896 -0.9025  0.4715 -0.1366
 7119TIP3    H142772   3.494   6.499   4.884 -0.8005  0.0147  2.1826
 7119TIP3    H242773   3.623   6.549   4.946  1.0387  1.3412 -2.5193
 7120TIP3   OH242774   5.721   2.609  15.488  0.1888 -0.1470  0.0115
 7120TIP3    H142775   5.711   2.519  15.457  0.4105  0.3920 -1.7269
 7120TIP3    H242776   5.699   2.606  15.581 -0.5734 -1.8496 -0.2116
 7121TIP3   OH242777   0.887   4.311  14.063  0.2865 -0.1574  0.0878
 7121TIP3    H142778   0.940   4.248  14.014 -0.6596 -0.3756 -0.6751
 7121TIP3    H242779   0.811   4.327  14.007 -0.3381  0.3384  1.0599
 7122TIP3   OH242780   4.425   5.127  14.513  0.5709  0.0835  0.2651
 7122TIP3    H142781   4.455   5.058  14.454  2.1010  0.9851 -0.0431
 7122TIP3    H242782   4.430   5.207  14.461 -0.3694  0.5536  0.8809
 7123TIP3   OH242783   2.818   4.432  15.863 -0.3368  0.3770  0.0928
 7123TIP3    H142784   2.900   4.405  15.904  0.0101  1.0747 -0.1311
 7123TIP3    H242785   2.758   4.360  15.879  0.5802 -0.5431 -0.5234
 7124TIP3   OH242786   1.107   5.980   0.778  0.7432  0.2984 -0.0319
 7124TIP3    H142787   1.088   5.886   0.770  2.2141 -0.2597  2.5525
 7124TIP3    H242788   1.058   6.008   0.855  2.7731  0.9248  1.0644
 7125TIP3   OH242789   2.220   0.814  15.534 -0.3929  0.1637 -0.0610
 7125TIP3    H142790   2.236   0.854  15.449  0.8409  2.0309  1.0214
 7125TIP3    H242791   2.163   0.875  15.580  1.8196  0.9354  1.7501
 7126TIP3   OH242792   1.770   0.472   0.089  0.3396  0.2843  0.1249
 7126TIP3    H142793   1.735   0.407   0.150  2.0822 -1.7136 -0.9337
 7126TIP3    H242794   1.697   0.531   0.073 -1.3735 -1.5304  0.9565
 7127TIP3   OH242795   5.349   4.102   3.035  0.2056  0.2877  0.4169
 7127TIP3    H142796   5.411   4.110   3.108  0.0196  0.9063  0.5129
 7127TIP3    H242797   5.276   4.159   3.059 -0.8560 -1.1814  0.7467
 7128TIP3   OH242798   0.377   6.688  14.031 -0.4323 -0.3029  0.5226
 7128TIP3    H142799   0.310   6.726  13.975  0.4159  1.1551  0.4651
 7128TIP3    H242800   0.404   6.609  13.985  0.2229  0.8530 -1.1461
 7129TIP3   OH242801   3.766   1.238   0.248 -0.0620 -0.3864  0.3769
 7129TIP3    H142802   3.759   1.328   0.217 -0.2695 -0.9050 -1.0892
 7129TIP3    H242803   3.681   1.199   0.228  0.4536 -1.2649 -0.1302
 7130TIP3   OH242804   4.538   2.000   4.143 -0.6818 -0.8290  0.2652
 7130TIP3    H142805   4.568   1.982   4.232 -2.7695  0.4293  1.2920
 7130TIP3    H242806   4.569   2.089   4.125  3.1960 -2.5042 -1.8854
 7131TIP3   OH242807   1.145   4.061   3.610  0.3115  0.2680  0.2198
 7131TIP3    H142808   1.212   3.995   3.592 -1.5451 -1.3680 -0.9467
 7131TIP3    H242809   1.184   4.144   3.583  1.9106 -0.6397 -0.2860
 7132TIP3   OH242810   2.045   1.936  12.533  0.8414  0.0017  0.2505
 7132TIP3    H142811   1.991   1.859  12.513  1.5612 -0.4231 -0.0829
 7132TIP3    H242812   2.112   1.903  12.593  1.7346  0.1547 -0.6602
 7133TIP3   OH242813   2.453   1.828  13.469 -0.4269  0.0888  0.1791
 7133TIP3    H142814   2.389   1.846  13.400  1.3215 -1.6889 -1.9762
 7133TIP3    H242815   2.435   1.737  13.494 -0.0603  0.2414  1.0125
 7134TIP3   OH242816   4.330   2.979  16.085 -0.4762 -0.4720 -0.8210
 7134TIP3    H142817   4.390   2.918  16.042 -0.2643 -1.2713  0.5708
 7134TIP3    H242818   4.388   3.039  16.132 -0.7530 -1.0784  0.3045
 7135TIP3   OH242819   2.629   2.113   2.942 -0.0356  0.3865  0.0386
 7135TIP3    H142820   2.628   2.086   3.034  0.7339  1.1618  0.2795
 7135TIP3    H242821   2.691   2.185   2.939 -1.4826  1.6152 -0.7464
 7136TIP3   OH242822   2.793   1.579   4.937  0.3113  0.0332 -0.1382
 7136TIP3    H142823   2.804   1.674   4.944 -2.3486  0.3102  1.2114
 7136TIP3    H242824   2.861   1.543   4.993  1.5959  1.1138 -0.9692
 7137TIP3   OH242825   1.354   3.219   4.050  0.1462 -0.1049 -0.3126
 7137TIP3    H142826   1.371   3.300   4.098 -0.7990 -1.0297  1.5984
 7137TIP3    H242827   1.286   3.174   4.100 -1.9777 -0.3969 -3.3023
 7138TIP3   OH242828   3.410   3.467   4.009 -0.0783  0.6799  0.7336
 7138TIP3    H142829   3.333   3.455   4.064 -0.4515 -1.4840 -0.1968
 7138TIP3    H242830   3.376   3.463   3.920  0.8641  1.5925  0.3251
 7139TIP3   OH242831   1.844   5.574  11.010 -0.3012 -0.0191 -0.2681
 7139TIP3    H142832   1.852   5.566  10.915 -0.4730 -1.9767 -0.1405
 7139TIP3    H242833   1.934   5.589  11.041 -0.3153  1.1471 -0.7618
 7140TIP3   OH242834   4.305   6.679  15.395 -0.1428 -0.1393 -0.0023
 7140TIP3    H142835   4.235   6.618  15.421 -0.1057  0.1240  0.7270
 7140TIP3    H242836   4.258   6.754  15.359 -0.2804  0.4419  1.3547
 7141TIP3   OH242837   1.127   3.739  14.826  0.1498 -0.4071  0.1233
 7141TIP3    H142838   1.187   3.669  14.800 -1.5457 -1.0728 -2.1173
 7141TIP3    H242839   1.143   3.809  14.762 -0.3470  0.0485  0.4964
 7142TIP3   OH242840   0.472   1.423  13.476 -0.5145  0.4831  0.1375
 7142TIP3    H142841   0.435   1.501  13.517 -0.2291 -0.1519  1.6233
 7142TIP3    H242842   0.561   1.448  13.451  0.3921 -0.0407  2.6973
 7143TIP3   OH242843   3.643   4.773  13.588  0.2737  0.5017  0.1575
 7143TIP3    H142844   3.585   4.718  13.641  1.7806  1.4287  2.8431
 7143TIP3    H242845   3.715   4.715  13.562  1.4198  0.9459  2.2617
 7144TIP3   OH242846   3.845   2.037   3.103  0.0607 -1.1621 -0.4051
 7144TIP3    H142847   3.799   2.014   3.023 -0.1336  0.2934 -0.7313
 7144TIP3    H242848   3.933   2.001   3.092  0.7832  1.0823 -2.3471
 7145TIP3   OH242849   5.991   1.649  13.246  0.3608  0.5770 -0.1186
 7145TIP3    H142850   5.897   1.666  13.253  0.2029 -0.3961  0.1161
 7145TIP3    H242851   6.026   1.671  13.332  0.5108  1.9125 -0.5051
 7146TIP3   OH242852   2.796   6.748   3.237  0.1066  0.6033 -0.3743
 7146TIP3    H142853   2.839   6.784   3.159  0.0720  1.4258 -0.0195
 7146TIP3    H242854   2.855   6.677   3.266 -0.6708 -0.7545 -2.0378
 7147TIP3   OH242855   6.231   5.083  13.896  0.3206  0.3317  0.1285
 7147TIP3    H142856   6.248   5.092  13.803  1.2275  1.0538  0.3484
 7147TIP3    H242857   6.171   5.155  13.917  0.1720  0.2114  0.1125
 7148TIP3   OH242858   1.064   2.346   5.415 -0.0878  1.2730  0.1344
 7148TIP3    H142859   1.133   2.279   5.414 -0.6610  0.6820 -0.2517
 7148TIP3    H242860   1.010   2.326   5.339 -0.4621  1.9723  0.2131
 7149TIP3   OH242861   5.447   4.547  16.011 -0.2172 -0.3875  0.0976
 7149TIP3    H142862   5.473   4.602  16.084 -0.1487  0.3563 -0.4834
 7149TIP3    H242863   5.453   4.604  15.934  0.5092 -1.3785 -0.5966
 7150TIP3   OH242864   5.042   1.690   0.682 -0.0064 -0.4077 -0.3181
 7150TIP3    H142865   4.950   1.662   0.680 -0.3414  0.6100  0.2779
 7150TIP3    H242866   5.053   1.739   0.600  0.0497 -0.6726 -0.4684
 7151TIP3   OH242867   1.317   4.629  15.051  0.2959 -0.5787  0.2187
 7151TIP3    H142868   1.281   4.697  15.107  1.8679 -0.6478  1.3677
 7151TIP3    H242869   1.388   4.672  15.004 -0.8395 -0.5937 -1.5439
 7152TIP3   OH242870   1.883   6.026  13.511  0.1631 -0.4677 -0.6311
 7152TIP3    H142871   1.930   6.060  13.587  1.8551  0.5361 -2.1269
 7152TIP3    H242872   1.792   6.021  13.541  0.7680  0.0712  1.4079
 7153TIP3   OH242873   1.450   1.753  16.196  0.1508 -0.0878 -0.0403
 7153TIP3    H142874   1.376   1.693  16.203 -0.2503  0.3551 -0.3960
 7153TIP3    H242875   1.523   1.700  16.165  0.1404 -0.6523  0.8945
 7154TIP3   OH242876   3.540   1.190  13.775  1.0636  0.0062  0.1091
 7154TIP3    H142877   3.489   1.110  13.763  0.0879  0.8824 -1.7621
 7154TIP3    H242878   3.507   1.227  13.857  0.7100 -0.8943  0.3843
 7155TIP3   OH242879   4.991   2.515   5.010 -0.0969  0.1577  0.0497
 7155TIP3    H142880   4.970   2.584   4.947 -0.9025  0.6012  0.7954
 7155TIP3    H242881   5.078   2.538   5.041 -0.5975  1.1841  0.7294
 7156TIP3   OH242882   0.662   3.999  15.962 -0.0208 -0.2583  0.4118
 7156TIP3    H142883   0.714   3.981  16.041  0.1806 -3.0990 -0.3386
 7156TIP3    H242884   0.575   4.019  15.995  0.2662 -0.5921  1.4051
 7157TIP3   OH242885   4.072   3.313  11.824  0.1036 -0.1759  0.4415
 7157TIP3    H142886   4.124   3.347  11.751 -1.4014  0.9324 -0.1457
 7157TIP3    H242887   3.990   3.284  11.783 -1.7798  2.7572  1.9498
 7158TIP3   OH242888   2.314   6.670  14.702  0.1485 -0.1975  0.6389
 7158TIP3    H142889   2.228   6.713  14.700  0.2800  0.0726  0.7087
 7158TIP3    H242890   2.364   6.720  14.767  0.4615 -0.1514  0.3639
 7159TIP3   OH242891   2.762   1.837   2.928 -0.3191 -0.0215  0.3994
 7159TIP3    H142892   2.823   1.774   2.890 -1.2955 -0.4815 -0.4216
 7159TIP3    H242893   2.816   1.913   2.949  0.3460  0.0200 -1.3841
 7160TIP3   OH242894   1.192   5.344   1.114  0.4488 -0.0943 -0.0815
 7160TIP3    H142895   1.138   5.420   1.140 -1.3110 -0.1449 -3.3993
 7160TIP3    H242896   1.280   5.380   1.104 -0.1787  1.3008 -0.6829
 7161TIP3   OH242897   4.235   4.886   6.624  0.0733  0.1650  0.2850
 7161TIP3    H142898   4.265   4.795   6.630  2.6138  0.9298 -0.4855
 7161TIP3    H242899   4.146   4.884   6.660 -0.4965 -2.8944 -1.1714
 7162TIP3   OH242900   5.979   5.741   1.216  0.6790  0.2250 -0.4256
 7162TIP3    H142901   5.947   5.773   1.131 -0.4871  0.4204  0.0812
 7162TIP3    H242902   6.070   5.771   1.220  0.9767 -0.4019 -1.9177
 7163TIP3   OH242903   3.117   0.241  11.105 -0.2971 -0.3337 -0.2814
 7163TIP3    H142904   3.087   0.213  11.191  0.9442  1.3094  0.7151
 7163TIP3    H242905   3.090   0.170  11.046 -0.1687 -2.0063  1.6132
 7164TIP3   OH242906   5.605   2.078  16.054 -0.1197  0.4180  0.2403
 7164TIP3    H142907   5.564   2.003  16.011 -2.1101  0.8179  1.3732
 7164TIP3    H242908   5.684   2.043  16.094 -0.7220 -0.9468  0.2469
 7165TIP3   OH242909   5.567   4.225   5.010  0.0646 -0.3466  0.0085
 7165TIP3    H142910   5.632   4.174   4.963  0.9746 -0.7055  1.6235
 7165TIP3    H242911   5.549   4.174   5.089 -0.5037  0.8451  0.6612
 7166TIP3   OH242912   3.097   6.779   0.063 -0.0131  0.0388  0.3904
 7166TIP3    H142913   3.129   6.689   0.061  0.0920  0.0250  2.0627
 7166TIP3    H242914   3.090   6.800   0.156 -0.7959  1.4936  0.0170
 7167TIP3   OH242915   0.068   1.061  16.236  0.1294 -0.3830 -0.1682
 7167TIP3    H142916   0.010   1.125  16.277 -1.4222 -0.6336 -1.8953
 7167TIP3    H242917   0.111   1.017  16.310  0.2978  1.7662  1.0688
 7168TIP3   OH242918   3.583   1.831   0.486  0.2648 -0.0794 -0.1114
 7168TIP3    H142919   3.515   1.809   0.549  2.0532  0.8217  2.2381
 7168TIP3    H242920   3.560   1.782   0.407 -1.5595 -1.9458  1.5218
 7169TIP3   OH242921   4.062   0.683   2.666 -0.2103  0.2707  0.4881
 7169TIP3    H142922   3.989   0.649   2.719  0.1171  2.5959  2.5498
 7169TIP3    H242923   4.022   0.752   2.613 -0.0353 -0.3740 -0.4986
 7170TIP3   OH242924   4.778   4.281  15.652  0.0016 -0.1719 -0.3864
 7170TIP3    H142925   4.703   4.322  15.696  2.1355  1.8265  1.5156
 7170TIP3    H242926   4.802   4.208  15.710 -0.5916 -0.9684 -1.1274
 7171TIP3   OH242927   4.466   4.544  17.234 -0.0148  0.0203 -0.2250
 7171TIP3    H142928   4.391   4.604  17.243 -1.6428 -1.7446 -1.5406
 7171TIP3    H242929   4.473   4.529  17.140  0.8829 -1.2482  0.0310
 7172TIP3   OH242930   0.650   2.593  13.675 -0.3640 -0.0338  0.1642
 7172TIP3    H142931   0.568   2.586  13.626  0.1613  0.6226 -0.8284
 7172TIP3    H242932   0.665   2.506  13.711  0.7496 -1.3031 -3.2651
 7173TIP3   OH242933   1.180   2.366   0.734  0.5534  0.3330  0.1105
 7173TIP3    H142934   1.183   2.324   0.648  0.3344  0.1152  0.2130
 7173TIP3    H242935   1.203   2.458   0.716  0.3018  0.3333 -0.2087
 7174TIP3   OH242936   6.523   4.095   2.178  0.3133 -0.4962 -0.1155
 7174TIP3    H142937   6.543   4.180   2.140  0.7910 -0.9068 -0.7837
 7174TIP3    H242938   6.428   4.086   2.168 -0.3226  1.5190  3.2153
 7175TIP3   OH242939   6.739   2.533  17.009  0.1575  0.1866  0.2486
 7175TIP3    H142940   6.820   2.547  16.960 -0.0158  1.8821  0.4191
 7175TIP3    H242941   6.695   2.462  16.962  1.6317 -0.6063  0.0332
 7176TIP3   OH242942   1.055   6.227   2.002  0.0861  0.3550  0.3890
 7176TIP3    H142943   1.111   6.204   2.076  0.5205  0.6478  0.1601
 7176TIP3    H242944   1.027   6.317   2.020 -1.5888 -0.3297  1.2737
 7177TIP3   OH242945   2.222   6.134   0.574 -0.1708 -0.1407  0.0342
 7177TIP3    H142946   2.269   6.111   0.494  0.0596  1.6457 -0.3624
 7177TIP3    H242947   2.139   6.088   0.567  0.2812 -0.8578 -0.7201
 7178TIP3   OH242948   1.400   6.571  11.200  0.6022  0.8492  0.4684
 7178TIP3    H142949   1.335   6.502  11.192  1.4691 -0.0375  1.0234
 7178TIP3    H242950   1.364   6.630  11.267  0.6937  0.0065  1.2614
 7179TIP3   OH242951   0.700   4.396  10.768  0.5463  0.1815 -0.0297
 7179TIP3    H142952   0.640   4.335  10.726  0.7949  1.1538 -1.8683
 7179TIP3    H242953   0.651   4.479  10.771  1.5817  0.8339 -1.0214
 7180TIP3   OH242954   3.318   6.697  15.626  0.7861 -0.3739  0.1261
 7180TIP3    H142955   3.228   6.668  15.641  1.2134 -1.6659  0.2571
 7180TIP3    H242956   3.309   6.783  15.584 -0.5333 -1.0274 -0.9765
 7181TIP3   OH242957   6.210   2.411   4.858  0.0077  0.0492 -0.1358
 7181TIP3    H142958   6.226   2.385   4.767 -0.4693 -2.0122  0.3351
 7181TIP3    H242959   6.279   2.474   4.878  1.2198 -0.8639 -1.3627
 7182TIP3   OH242960   3.294   5.798  12.515 -0.5899 -0.1900  0.1177
 7182TIP3    H142961   3.254   5.866  12.461  3.1343  3.2793  1.4627
 7182TIP3    H242962   3.238   5.794  12.593 -0.7820  1.5110  0.0986
 7183TIP3   OH242963   2.051   2.236   4.128 -0.2193 -0.1213 -0.4893
 7183TIP3    H142964   2.117   2.173   4.100 -0.5345 -0.2273 -1.0065
 7183TIP3    H242965   2.029   2.284   4.047 -2.3061 -1.4952 -0.7472
 7184TIP3   OH242966   2.170   0.744  14.813 -0.6147 -0.2184  0.0961
 7184TIP3    H142967   2.142   0.765  14.724  1.7002 -0.8623 -0.8280
 7184TIP3    H242968   2.110   0.793  14.869 -1.1505  1.4207 -1.8393
 7185TIP3   OH242969   4.120   4.746   3.938  0.2197 -0.0149  0.6089
 7185TIP3    H142970   4.076   4.755   4.023  0.0827 -0.5991  0.6044
 7185TIP3    H242971   4.204   4.704   3.959 -0.1038 -0.7942  0.3857
 7186TIP3   OH242972   1.146   4.930   5.673 -0.4721  0.1026  0.5032
 7186TIP3    H142973   1.176   4.967   5.756 -0.8933 -0.3487  0.8628
 7186TIP3    H242974   1.223   4.933   5.616  0.2663 -1.0250  1.4064
 7187TIP3   OH242975   4.800   2.781   2.005 -0.6589  0.1045  0.0216
 7187TIP3    H142976   4.722   2.764   1.952 -0.8844  1.9026 -0.2737
 7187TIP3    H242977   4.849   2.846   1.954  0.8879 -0.7745  0.3529
 7188TIP3   OH242978   0.321   1.849  16.960 -0.3167 -0.0513 -0.1634
 7188TIP3    H142979   0.323   1.757  16.988  0.9159  0.2181  0.6801
 7188TIP3    H242980   0.229   1.866  16.941 -0.7145 -1.1603  0.7080
 7189TIP3   OH242981   4.712   3.966  16.429 -0.2348  0.0763  0.0788
 7189TIP3    H142982   4.717   4.017  16.509  1.3581 -0.2891  0.2293
 7189TIP3    H242983   4.803   3.941  16.411 -0.5219  0.4403 -2.0133
 7190TIP3   OH242984   3.952   2.169  14.063 -0.2456  0.4543 -0.0353
 7190TIP3    H142985   4.001   2.250  14.047 -1.9968  1.7796  1.1381
 7190TIP3    H242986   3.895   2.160  13.987 -0.2917  0.4920 -0.0047
 7191TIP3   OH242987   6.673   5.368  12.336  0.0505 -1.3090 -0.5528
 7191TIP3    H142988   6.723   5.378  12.417 -3.3338 -2.5794  1.7835
 7191TIP3    H242989   6.716   5.427  12.274  1.5206  1.2312  2.7511
 7192TIP3   OH242990   5.266   4.255  12.072  0.6358  0.4336 -0.4862
 7192TIP3    H142991   5.302   4.342  12.091  0.7245  0.5016 -0.9555
 7192TIP3    H242992   5.178   4.257  12.109  0.7199  0.6478 -0.2976
 7193TIP3   OH242993   1.629   0.243  15.494  0.5936 -0.3410 -0.0157
 7193TIP3    H142994   1.561   0.288  15.443  1.3140  0.9834  0.1647
 7193TIP3    H242995   1.630   0.289  15.578  1.0176 -1.0192  0.3533
 7194TIP3   OH242996   2.578   6.393   5.013  0.0410 -0.1113 -0.4248
 7194TIP3    H142997   2.572   6.398   4.918  0.6594 -1.3456 -0.5494
 7194TIP3    H242998   2.631   6.468   5.038 -0.2746  0.3212 -1.0384
 7195TIP3   OH242999   3.951   3.051   3.719 -0.4127  0.5240  0.3669
 7195TIP3    H143000   3.872   3.013   3.758  1.4880 -4.1230  0.0256
 7195TIP3    H243001   3.936   3.045   3.624  0.5079 -0.9008  0.2906
 7196TIP3   OH243002   4.133   1.292   1.633  0.2571  0.3052  0.1991
 7196TIP3    H143003   4.211   1.348   1.634  0.8447 -0.4525 -1.4704
 7196TIP3    H243004   4.164   1.207   1.603 -1.2525  0.0655 -0.7585
 7197TIP3   OH243005   5.474   0.920  11.026 -0.1068  0.4977 -0.4126
 7197TIP3    H143006   5.414   0.850  11.001 -1.5006  0.8382  1.8236
 7197TIP3    H243007   5.494   0.903  11.118  2.7521  0.7722 -0.9401
 7198TIP3   OH243008   0.047   0.140  13.009  0.1462 -0.4519 -0.3470
 7198TIP3    H143009   0.072   0.083  12.936  0.0558  2.2618 -2.5989
 7198TIP3    H243010   0.121   0.201  13.017 -0.6254  0.3541  0.6834
 7199TIP3   OH243011   5.381   2.569  13.340 -0.3429  0.3314  0.4218
 7199TIP3    H143012   5.364   2.479  13.367  0.5226 -0.0519 -0.2781
 7199TIP3    H243013   5.468   2.566  13.300 -0.3738  1.4479  0.2510
 7200TIP3   OH243014   3.667   2.270  14.239 -0.1871 -1.0682 -0.2930
 7200TIP3    H143015   3.756   2.286  14.272 -1.0201  0.4674  1.3130
 7200TIP3    H243016   3.617   2.244  14.317 -1.4283 -0.7033 -0.9542
 7201TIP3   OH243017   3.865   3.917  11.602 -0.2262  0.0425 -0.6402
 7201TIP3    H143018   3.831   4.006  11.610  0.5757  0.1209  2.1713
 7201TIP3    H243019   3.864   3.882  11.691  0.9889 -2.2179 -1.4662
 7202TIP3   OH243020   1.690   0.859  15.550  0.2165 -0.2048 -0.0308
 7202TIP3    H143021   1.709   0.775  15.592 -0.4325  0.6290  1.9897
 7202TIP3    H243022   1.746   0.860  15.472  1.1386 -1.9731  0.5770
 7203TIP3   OH243023   1.764   4.863   1.157  0.4079 -0.6709 -0.8246
 7203TIP3    H143024   1.774   4.948   1.200  1.5455 -1.5972  0.7915
 7203TIP3    H243025   1.747   4.801   1.228  0.3463 -1.9205 -1.9005
 7204TIP3   OH243026   1.790   1.169   1.924 -0.6867 -0.0823  0.1131
 7204TIP3    H143027   1.718   1.160   1.862 -1.5649  0.6136  1.0071
 7204TIP3    H243028   1.758   1.231   1.989  1.1397  1.0925 -0.0618
 7205TIP3   OH243029   5.105   5.108  14.466 -0.1137 -0.0345  0.4188
 7205TIP3    H143030   5.091   5.195  14.504 -0.4193  0.5940 -1.1052
 7205TIP3    H243031   5.184   5.117  14.412 -0.0178 -0.7632  0.4303
 7206TIP3   OH243032   5.156   5.673   3.936  0.1814  0.4250  0.0485
 7206TIP3    H143033   5.244   5.680   3.900  1.8490 -1.8484  3.4701
 7206TIP3    H243034   5.131   5.582   3.921 -0.7877  0.5474  0.8619
 7207TIP3   OH243035   0.062   3.972   6.249 -0.4206  0.5563 -0.4158
 7207TIP3    H143036   0.119   4.030   6.299 -0.7389  1.7457 -1.3889
 7207TIP3    H243037  -0.027   3.994   6.279 -0.4454 -0.4249  0.2249
 7208TIP3   OH243038   2.400   1.880   1.955 -0.4925  0.2534 -0.1785
 7208TIP3    H143039   2.347   1.808   1.923  0.3148 -0.3176 -0.2246
 7208TIP3    H243040   2.431   1.925   1.876  2.4102 -1.8051 -0.3024
 7209TIP3   OH243041   3.449   6.257  16.207  1.4074 -0.0746 -0.1027
 7209TIP3    H143042   3.465   6.219  16.120 -0.4574 -0.6460 -0.2231
 7209TIP3    H243043   3.359   6.231  16.228  1.5952  0.6610  1.7000
 7210TIP3   OH243044   2.049   2.959  12.351 -0.8082  0.2240 -0.5484
 7210TIP3    H143045   2.137   2.980  12.319 -0.9953  0.9981 -0.5561
 7210TIP3    H243046   2.018   3.041  12.390 -0.4371 -0.7639  1.9352
 7211TIP3   OH243047   2.825   0.045  13.031 -0.2684  0.3338 -0.1207
 7211TIP3    H143048   2.844   0.064  12.939  2.6468 -2.0017 -0.0810
 7211TIP3    H243049   2.760  -0.025  13.028 -0.5901  0.6339 -0.3537
 7212TIP3   OH243050   5.748   5.887  10.655  0.1660  0.4920  0.1115
 7212TIP3    H143051   5.780   5.964  10.702 -1.4356 -0.1226  2.2709
 7212TIP3    H243052   5.654   5.886  10.672 -0.0273 -1.2366 -0.9444
 7213TIP3   OH243053   1.573   5.607   2.998 -0.2663 -0.1783  0.4464
 7213TIP3    H143054   1.548   5.688   3.043 -0.7948 -0.4694  0.6853
 7213TIP3    H243055   1.664   5.620   2.973 -0.1139  0.1764  1.1816
 7214TIP3   OH243056   6.242   0.718  13.016 -0.2541 -0.2145 -0.5699
 7214TIP3    H143057   6.332   0.697  13.042  0.0465  1.4030 -0.2198
 7214TIP3    H243058   6.243   0.712  12.920 -0.4365 -2.6389 -0.4564
 7215TIP3   OH243059   5.711   3.603   2.283 -0.0027  0.1178 -0.2382
 7215TIP3    H143060   5.681   3.674   2.339 -0.9270 -0.7521  0.3960
 7215TIP3    H243061   5.678   3.524   2.326 -1.6137 -0.5046 -2.5507
 7216TIP3   OH243062   3.791   2.736  11.627  0.2657  0.3102 -0.0798
 7216TIP3    H143063   3.715   2.762  11.678 -0.2188 -1.6441  0.2234
 7216TIP3    H243064   3.832   2.665  11.677  2.0675  1.0553 -0.4311
 7217TIP3   OH243065   5.116   5.777   5.941  0.4403 -0.1272  0.0362
 7217TIP3    H143066   5.119   5.866   5.978  0.3049 -0.3814  0.6693
 7217TIP3    H243067   5.073   5.724   6.009 -0.0431 -0.5568 -0.5905
 7218TIP3   OH243068   0.003   5.000  13.633  0.4691 -0.0641  0.6110
 7218TIP3    H143069  -0.083   4.980  13.597  0.5867  0.8989 -0.2182
 7218TIP3    H243070   0.061   5.005  13.556  1.2491 -0.5860  1.1467
 7219TIP3   OH243071   5.628   4.598   2.867  0.8591  0.2769 -0.1473
 7219TIP3    H143072   5.609   4.620   2.958  0.8409 -0.1897 -0.0342
 7219TIP3    H243073   5.621   4.502   2.864  2.8848  0.1162 -0.1674
 7220TIP3   OH243074   1.536   1.964   3.207  0.0545  0.0913 -0.3919
 7220TIP3    H143075   1.519   1.945   3.115 -0.7527 -0.4943 -0.1211
 7220TIP3    H243076   1.631   1.975   3.212  0.3632 -2.2731 -0.8391
 7221TIP3   OH243077   0.253   3.487  16.088  0.2377  0.0835 -0.1647
 7221TIP3    H143078   0.230   3.477  15.995 -0.9854  0.4449  0.0880
 7221TIP3    H243079   0.310   3.564  16.090 -1.6735  1.5368 -0.3283
 7222TIP3   OH243080   1.847   3.683   2.087  0.5160  0.8728  0.1830
 7222TIP3    H143081   1.824   3.774   2.069 -2.0750  0.1813 -0.1676
 7222TIP3    H243082   1.859   3.644   2.000 -0.9001  0.2888  0.2304
 7223TIP3   OH243083   1.640   0.034   0.967 -0.5103  0.2552 -0.0942
 7223TIP3    H143084   1.681   0.113   1.003 -0.9630  0.2840  0.3718
 7223TIP3    H243085   1.546   0.055   0.965 -0.6597 -0.3622  0.2897
 7224TIP3   OH243086   0.161   6.491   6.630 -0.6659  0.5219  0.6646
 7224TIP3    H143087   0.206   6.523   6.708  0.3616  1.6528 -0.3595
 7224TIP3    H243088   0.167   6.396   6.636 -0.2099  0.6125  1.7421
 7225TIP3   OH243089   1.510   5.057  10.959  0.1046  0.1158  0.6800
 7225TIP3    H143090   1.417   5.033  10.963  0.4001 -1.2160 -0.1186
 7225TIP3    H243091   1.555   4.983  11.001  0.7030  1.4507  2.4336
 7226TIP3   OH243092   0.461   0.216  15.267 -0.0382 -0.7841  0.5857
 7226TIP3    H143093   0.446   0.295  15.215  0.1558 -0.3236  1.2229
 7226TIP3    H243094   0.378   0.168  15.263  0.1917 -1.0812 -0.7069
 7227TIP3   OH243095   4.233   1.816   6.384 -0.1001 -0.9156 -0.5679
 7227TIP3    H143096   4.205   1.882   6.447  0.7553 -0.6006 -0.5109
 7227TIP3    H243097   4.185   1.737   6.409 -1.2338 -0.2887 -0.7289
 7228TIP3   OH243098   5.726   4.380   1.218  0.2839 -0.3050  0.1747
 7228TIP3    H143099   5.755   4.442   1.151 -0.1521  0.1717  0.4249
 7228TIP3    H243100   5.795   4.382   1.284 -0.0819  0.4639  0.5342
 7229TIP3   OH243101   4.282   4.669   1.952 -0.1919 -0.0012  0.4237
 7229TIP3    H143102   4.190   4.668   1.923 -0.8011  1.4912  2.1981
 7229TIP3    H243103   4.278   4.644   2.044  1.3839 -1.4613  0.1330
 7230TIP3   OH243104   4.435   1.357   4.475 -0.2041  0.1194  0.0884
 7230TIP3    H143105   4.510   1.308   4.441  0.7608  1.0348  0.8610
 7230TIP3    H243106   4.380   1.373   4.398 -0.3001 -1.7186 -0.2644
 7231TIP3   OH243107   1.144   5.990   1.792 -0.0150  0.1661 -0.4576
 7231TIP3    H143108   1.210   6.000   1.861 -0.2702  0.7552 -0.2986
 7231TIP3    H243109   1.061   6.003   1.837 -0.1152  2.1234 -1.1628
 7232TIP3   OH243110   1.027   0.252   2.819  0.3210  0.2851 -0.0852
 7232TIP3    H143111   1.080   0.174   2.803 -0.2382 -0.4775  1.6074
 7232TIP3    H243112   1.024   0.298   2.735  0.2259 -1.7915 -1.2360
 7233TIP3   OH243113   4.021   1.343   3.535  0.7364 -0.2132 -0.8345
 7233TIP3    H143114   4.058   1.257   3.511  0.1803 -0.4480 -0.8466
 7233TIP3    H243115   3.934   1.344   3.496  0.4889  0.0928 -0.2778
 7234TIP3   OH243116   1.988   2.935   5.571 -0.1158  0.2883 -0.6127
 7234TIP3    H143117   1.958   2.868   5.510 -1.5546  0.0073  0.3728
 7234TIP3    H243118   2.044   2.888   5.632  0.0830  0.2694 -0.8107
 7235TIP3   OH243119   4.356   3.652   2.523 -0.3258 -0.1629 -0.8894
 7235TIP3    H143120   4.306   3.589   2.574  0.6488 -0.3484 -0.1568
 7235TIP3    H243121   4.314   3.736   2.541 -1.0363 -0.4567 -1.1270
 7236TIP3   OH243122   4.647   1.600  13.764  0.3547  0.6439  0.3073
 7236TIP3    H143123   4.597   1.617  13.685  0.7344 -1.0049 -0.3012
 7236TIP3    H243124   4.697   1.681  13.779 -0.1017  1.1441 -0.8364
 7237TIP3   OH243125   6.592   1.987   5.003  0.2458 -0.1694 -0.4339
 7237TIP3    H143126   6.638   2.050   4.948 -0.4054 -0.7634 -1.6595
 7237TIP3    H243127   6.614   2.013   5.093 -0.6627  2.3098 -0.8992
 7238TIP3   OH243128   6.713   5.300  11.978 -0.3234  0.7078 -0.5104
 7238TIP3    H143129   6.721   5.395  11.972  0.0108  0.8800  2.0977
 7238TIP3    H243130   6.792   5.272  12.025 -1.0150 -0.7223 -0.1636
 7239TIP3   OH243131   0.025   4.360  16.875  0.2437  0.0740 -0.5922
 7239TIP3    H143132   0.044   4.419  16.802 -2.3592  1.4033 -0.2583
 7239TIP3    H243133   0.027   4.272  16.836  0.0840  0.6838 -2.0037
 7240TIP3   OH243134   1.340   2.187  12.246 -0.2974  0.7809 -0.2214
 7240TIP3    H143135   1.342   2.243  12.324  0.9281 -0.9160  0.9858
 7240TIP3    H243136   1.317   2.247  12.175  1.1599  2.8510  0.9996
 7241TIP3   OH243137   2.942   0.093  16.517 -0.3469  0.2041 -0.4246
 7241TIP3    H143138   3.025   0.049  16.538 -1.3561 -0.7998  1.7234
 7241TIP3    H243139   2.968   0.177  16.479  1.6439 -0.7032 -1.1497
 7242TIP3   OH243140   0.633   5.511  12.392  0.1841 -0.2014  0.3880
 7242TIP3    H143141   0.631   5.416  12.386  0.4304 -0.2478  0.9825
 7242TIP3    H243142   0.722   5.535  12.369  0.0761 -0.1001  0.0710
 7243TIP3   OH243143   4.200   4.194   2.512  0.1377 -0.1417  0.4216
 7243TIP3    H143144   4.291   4.169   2.530  0.5647  2.0581  1.4845
 7243TIP3    H243145   4.204   4.237   2.427  0.1086 -0.0054  0.4888
 7244TIP3   OH243146   6.288   4.963   2.021 -0.6325 -0.3610 -0.2180
 7244TIP3    H143147   6.203   5.004   2.004 -0.6892 -0.5634 -0.4302
 7244TIP3    H243148   6.346   4.999   1.953  0.2854  2.2631  1.8683
 7245TIP3   OH243149   1.725   0.103  12.013  0.6441 -0.3157  0.2867
 7245TIP3    H143150   1.652   0.078  11.956  0.3712  0.2901  0.3742
 7245TIP3    H243151   1.687   0.105  12.101  0.7959 -0.1305  0.3475
 7246TIP3   OH243152   3.455   4.958  16.348  0.1316  0.3974 -0.6550
 7246TIP3    H143153   3.479   4.975  16.439  0.4141  0.7949 -0.8027
 7246TIP3    H243154   3.460   5.044  16.306 -0.9330  0.3833 -0.8247
 7247TIP3   OH243155   5.704   5.407  12.834 -0.1753  0.5477  0.4930
 7247TIP3    H143156   5.698   5.319  12.871  0.1773  0.8288  1.2270
 7247TIP3    H243157   5.797   5.428  12.835  0.1038 -0.2614 -2.5446
 7248TIP3   OH243158   4.715   0.402  11.653  0.0637 -0.3852  0.2719
 7248TIP3    H143159   4.787   0.455  11.619  1.0812 -0.7780  1.7699
 7248TIP3    H243160   4.757   0.321  11.682 -1.1476 -1.0648  0.1584
 7249TIP3   OH243161   2.578   0.697  13.399  0.4646  0.4582  0.0129
 7249TIP3    H143162   2.527   0.731  13.473 -2.0611  1.2883 -2.0647
 7249TIP3    H243163   2.587   0.604  13.418 -1.6509  0.3383  0.5352
 7250TIP3   OH243164   5.889   0.883  13.706 -0.5455 -0.4267 -0.3169
 7250TIP3    H143165   5.966   0.827  13.701 -0.4456 -0.3664  0.4849
 7250TIP3    H243166   5.911   0.948  13.772 -1.0583 -0.0557 -0.5073
 7251TIP3   OH243167   4.984   4.208   2.980 -0.5215  0.1268  0.3495
 7251TIP3    H143168   5.045   4.256   3.036 -0.3590  0.0780  0.2132
 7251TIP3    H243169   4.965   4.268   2.908 -1.1822  0.4168  0.7541
 7252TIP3   OH243170   1.700   4.647  16.292  0.3871  0.3564  0.1588
 7252TIP3    H143171   1.785   4.638  16.336 -0.0940 -0.7807  0.8844
 7252TIP3    H243172   1.722   4.665  16.201  1.4087 -0.3757  0.2548
 7253TIP3   OH243173   1.013   0.988   4.116  0.1183  0.0241  0.2303
 7253TIP3    H143174   1.018   0.943   4.200  1.0469  0.1620  0.2604
 7253TIP3    H243175   1.072   1.063   4.126 -0.3176  0.4456 -0.3015
 7254TIP3   OH243176   6.576   3.332   1.575  0.5539  0.0963 -0.0245
 7254TIP3    H143177   6.546   3.258   1.627  1.2535  0.9895  1.6877
 7254TIP3    H243178   6.583   3.298   1.486 -1.8650 -1.1147  0.2123
 7255TIP3   OH243179   4.481   4.757  16.015  0.2773  0.4655  0.0813
 7255TIP3    H143180   4.522   4.799  15.938 -0.6299  0.8694 -0.1855
 7255TIP3    H243181   4.499   4.664  16.004  1.4062  0.6712  0.1280
 7256TIP3   OH243182   0.202   3.435   5.836 -0.0801 -0.3678 -0.2489
 7256TIP3    H143183   0.291   3.429   5.801  0.3999  0.9834  0.6910
 7256TIP3    H243184   0.207   3.503   5.904 -1.6951 -0.6911  0.2267
 7257TIP3   OH243185   4.752   5.710   2.261  0.0952 -0.5060  0.3857
 7257TIP3    H143186   4.699   5.733   2.185  0.1197  0.4978  0.6589
 7257TIP3    H243187   4.841   5.700   2.227 -0.1429 -1.4990  0.0441
 7258TIP3   OH243188   3.169   2.369  11.840  0.1042 -0.5609 -0.2909
 7258TIP3    H143189   3.258   2.336  11.856 -0.3740 -0.9469  1.6574
 7258TIP3    H243190   3.117   2.290  11.826 -0.1279 -0.3909 -0.3812
 7259TIP3   OH243191   5.842   4.039   4.234 -0.1349  0.5691 -0.7029
 7259TIP3    H143192   5.804   4.085   4.159 -0.1843 -0.2667 -1.2006
 7259TIP3    H243193   5.934   4.028   4.210 -0.3778 -0.6419 -1.1210
 7260TIP3   OH243194   1.912   5.915  16.117 -0.2300 -0.4136 -0.3379
 7260TIP3    H143195   1.955   5.935  16.033 -0.2761 -1.0462 -0.5174
 7260TIP3    H243196   1.981   5.875  16.170 -0.4891 -1.0551 -0.4816
 7261TIP3   OH243197   6.570   6.367   3.382 -0.0648 -0.2753 -0.1007
 7261TIP3    H143198   6.538   6.453   3.352  1.1574 -0.5488 -2.3052
 7261TIP3    H243199   6.514   6.346   3.457 -0.7735  2.1764  0.1186
 7262TIP3   OH243200   1.433   4.588  16.729 -0.0302 -0.3507  0.0888
 7262TIP3    H143201   1.362   4.616  16.787 -1.8339 -1.5291 -1.4903
 7262TIP3    H243202   1.393   4.586  16.642  1.6793 -1.9437 -0.6869
 7263TIP3   OH243203   6.001   2.663   0.012  0.6698  0.7062  0.6747
 7263TIP3    H143204   6.033   2.720   0.082  1.7210  0.8795  0.0641
 7263TIP3    H243205   5.906   2.677   0.010  0.5465  0.2927  2.4230
 7264TIP3   OH243206   5.079   1.949  14.619  0.6490 -0.1962 -0.2289
 7264TIP3    H143207   5.003   2.006  14.630  1.2999  0.1830  2.9495
 7264TIP3    H243208   5.128   1.987  14.546 -0.6588  1.3173 -0.3439
 7265TIP3   OH243209   4.805   5.796  11.858 -0.0833 -0.2431 -0.1576
 7265TIP3    H143210   4.714   5.805  11.886  0.0661 -0.6646  0.4882
 7265TIP3    H243211   4.802   5.731  11.788 -0.1007 -1.4104  0.8964
 7266TIP3   OH243212   4.139   2.545   0.367 -0.1919  0.0804  0.5951
 7266TIP3    H143213   4.089   2.598   0.429  0.6013  1.2150  0.2877
 7266TIP3    H243214   4.204   2.605   0.331 -0.0580 -0.7924 -0.6741
 7267TIP3   OH243215   3.416   5.004  12.155  0.8751  0.0317 -0.2522
 7267TIP3    H143216   3.386   5.013  12.065  0.3632 -0.8057 -0.1738
 7267TIP3    H243217   3.337   4.983  12.205  1.4011 -1.0872  0.1359
 7268TIP3   OH243218   2.300   1.004  10.284  0.3076 -0.7066 -0.2473
 7268TIP3    H143219   2.223   0.947  10.279  0.8465 -1.3514 -1.5701
 7268TIP3    H243220   2.362   0.956  10.338 -0.5455  0.2230  1.5834
 7269TIP3   OH243221   2.643   0.372  15.252  0.0913  0.0706 -0.2483
 7269TIP3    H143222   2.607   0.298  15.301 -0.3674  0.7548  0.4661
 7269TIP3    H243223   2.729   0.387  15.292  0.1439 -0.0214 -0.3298
 7270TIP3   OH243224   1.521   4.814  12.256  0.2547  0.2830  0.1061
 7270TIP3    H143225   1.585   4.879  12.286 -0.0286  0.8349 -0.4831
 7270TIP3    H243226   1.535   4.808  12.162  1.7081 -2.0727  0.4223
 7271TIP3   OH243227   1.509   0.077  12.704 -0.4057 -0.0277 -0.0079
 7271TIP3    H143228   1.519   0.065  12.798 -0.7714 -1.6786 -0.1669
 7271TIP3    H243229   1.420   0.109  12.693 -0.3897  0.0891  0.1981
 7272TIP3   OH243230   1.816   0.886  13.493 -0.7423  0.3225  0.3693
 7272TIP3    H143231   1.721   0.883  13.481 -0.9235  0.1802  1.7979
 7272TIP3    H243232   1.840   0.797  13.519 -0.1033  0.1571 -0.7352
 7273TIP3   OH243233   2.504   5.409  13.355 -0.6310  0.2584 -0.1889
 7273TIP3    H143234   2.409   5.401  13.351 -0.7537  1.7105 -0.3986
 7273TIP3    H243235   2.524   5.415  13.448 -0.4362 -3.2946  0.0585
 7274TIP3   OH243236   5.611   2.034   2.525 -0.7692 -0.0775 -0.3271
 7274TIP3    H143237   5.616   2.123   2.492  0.5568 -0.2869 -0.7260
 7274TIP3    H243238   5.702   2.010   2.544 -1.2600 -0.8140  1.2023
 7275TIP3   OH243239   5.417   6.469  10.958 -0.0391  0.4486 -0.5222
 7275TIP3    H143240   5.467   6.388  10.964 -0.2054  0.3504 -0.4756
 7275TIP3    H243241   5.483   6.536  10.940  0.1541  0.3770 -0.0838
 7276TIP3   OH243242   0.330   3.703   3.909 -0.0413 -0.1359 -0.1393
 7276TIP3    H143243   0.305   3.654   3.832  1.0082 -1.6332  0.4509
 7276TIP3    H243244   0.275   3.781   3.907 -0.9416 -0.7955 -1.6768
 7277TIP3   OH243245   3.373   3.135  15.454  0.4269  0.3747  0.3143
 7277TIP3    H143246   3.383   3.199  15.384  2.0085  1.4566  1.4805
 7277TIP3    H243247   3.461   3.101  15.468 -0.4369 -2.2933 -0.4809
 7278TIP3   OH243248   5.158   1.302   2.824 -0.5289  0.1496 -0.5447
 7278TIP3    H143249   5.145   1.220   2.775 -0.7635 -0.0889 -0.0904
 7278TIP3    H243250   5.241   1.337   2.791  0.9756 -1.6692  1.1868
 7279TIP3   OH243251   3.079   5.784   5.815 -0.3921  0.0603 -0.3474
 7279TIP3    H143252   3.093   5.869   5.857  0.5143  0.2042 -0.9368
 7279TIP3    H243253   3.011   5.742   5.868  1.2144 -0.0483  1.7265
 7280TIP3   OH243254   0.322   3.049   0.073  0.3803 -0.1873  0.4541
 7280TIP3    H143255   0.370   3.090   0.144 -0.8221 -0.9589  1.7405
 7280TIP3    H243256   0.236   3.028   0.111 -0.2036 -0.8011 -1.1527
 7281TIP3   OH243257   2.927   5.805   2.346 -0.1166  0.0779 -0.5427
 7281TIP3    H143258   2.838   5.825   2.319 -0.0639 -0.3376 -1.0393
 7281TIP3    H243259   2.975   5.793   2.264  0.1258 -0.8587 -0.2729
 7282TIP3   OH243260   1.481   1.980   3.843 -0.3069 -0.0696  0.1284
 7282TIP3    H143261   1.441   1.896   3.863  1.0187 -0.9326 -0.8406
 7282TIP3    H243262   1.511   2.013   3.928 -0.5273 -0.7242  0.4584
 7283TIP3   OH243263   0.214   1.668  11.867  0.2391 -0.4299  0.0765
 7283TIP3    H143264   0.151   1.604  11.902 -1.8272  1.7692  0.4679
 7283TIP3    H243265   0.163   1.719  11.804  1.0140  2.9136  2.0971
 7284TIP3   OH243266   4.055   6.378  14.719  0.0385 -0.4797  0.4953
 7284TIP3    H143267   3.961   6.369  14.701 -0.1199  1.5820  0.1379
 7284TIP3    H243268   4.059   6.437  14.794  1.0532 -0.6686  0.5966
 7285TIP3   OH243269   6.571   4.416  15.877  0.2845  0.4656  0.2444
 7285TIP3    H143270   6.519   4.369  15.812  0.7805  1.3750 -0.8148
 7285TIP3    H243271   6.556   4.368  15.958 -1.7895  0.3989 -0.1525
 7286TIP3   OH243272   6.587   2.319  16.545 -0.0957 -0.0385 -0.0684
 7286TIP3    H143273   6.552   2.378  16.478 -1.8354  1.4903  2.0745
 7286TIP3    H243274   6.516   2.257  16.562  0.0349  0.0609  0.8732
 7287TIP3   OH243275   6.261   4.118   3.928 -0.0032  0.4167  0.6274
 7287TIP3    H143276   6.346   4.098   3.890 -0.9382 -1.0192 -0.7545
 7287TIP3    H243277   6.262   4.213   3.941  0.2355  1.0169 -3.3301
 7288TIP3   OH243278   1.101   3.731   2.563 -0.1235 -0.3489 -0.0504
 7288TIP3    H143279   1.163   3.670   2.523 -0.1624 -0.8076  0.5639
 7288TIP3    H243280   1.132   3.740   2.653 -1.2610 -1.0313  0.4210
 7289TIP3   OH243281   5.566   0.903  15.820 -0.0867  0.9259  0.6374
 7289TIP3    H143282   5.530   0.860  15.742 -0.3026  1.0648  0.6584
 7289TIP3    H243283   5.577   0.994  15.794  1.4558  0.6265  0.2288
 7290TIP3   OH243284   4.663   4.278   4.274 -0.1313  0.3330 -0.6115
 7290TIP3    H143285   4.593   4.292   4.338  0.5727  0.3571  0.1692
 7290TIP3    H243286   4.622   4.230   4.203 -0.9985  0.5599 -0.2690
 7291TIP3   OH243287   0.718   2.339  11.111  0.3509  0.1596 -0.7231
 7291TIP3    H143288   0.649   2.297  11.163 -0.0122 -0.2729 -1.5496
 7291TIP3    H243289   0.712   2.432  11.134  0.5002 -0.0801  0.3577
 7292TIP3   OH243290   0.802   4.066  11.961  0.9542  0.0924 -0.1813
 7292TIP3    H143291   0.853   3.999  11.915  0.2931 -0.2207 -0.4771
 7292TIP3    H243292   0.711   4.037  11.950  0.8328 -0.3651  1.9458
 7293TIP3   OH243293   5.489   5.167   2.240  0.0272  0.3377 -0.0119
 7293TIP3    H143294   5.399   5.149   2.264  0.0301  0.1622 -0.1387
 7293TIP3    H243295   5.496   5.143   2.148  0.5531 -0.9134  0.3511
 7294TIP3   OH243296   6.247   2.519   4.593  0.7685 -0.0578  0.4818
 7294TIP3    H143297   6.328   2.564   4.620  1.0175 -0.9926  1.3256
 7294TIP3    H243298   6.238   2.539   4.500  0.9038  1.7058  0.8240
 7295TIP3   OH243299   6.461   2.607   4.915 -0.6994 -0.3278 -0.2302
 7295TIP3    H143300   6.535   2.656   4.950 -0.9627  0.3050 -0.5678
 7295TIP3    H243301   6.480   2.599   4.821 -1.7880  1.1245 -0.5863
 7296TIP3   OH243302   5.939   4.360   4.333 -0.1816  0.0632 -0.4624
 7296TIP3    H143303   5.886   4.346   4.411 -0.9094  1.7968 -0.6251
 7296TIP3    H243304   5.986   4.441   4.351 -0.2347  0.3819 -1.7592
 7297TIP3   OH243305   4.475   6.725  14.690 -0.0832  0.1148  0.0919
 7297TIP3    H143306   4.422   6.659  14.734 -1.5769  1.1744 -0.0742
 7297TIP3    H243307   4.541   6.675  14.641  0.4821 -1.1368  2.0832
 7298TIP3   OH243308   1.669   5.980   3.760  0.2227 -0.8245 -0.0537
 7298TIP3    H143309   1.748   5.999   3.810 -0.0734  0.0025  0.1157
 7298TIP3    H243310   1.598   6.013   3.816 -0.0061  1.6411 -1.7373
 7299TIP3   OH243311   1.214   1.691  14.446  0.0624 -0.1592 -0.3240
 7299TIP3    H143312   1.272   1.707  14.372  0.2016  0.4687 -0.0897
 7299TIP3    H243313   1.193   1.779  14.478  0.3741 -0.4372  0.6612
 7300TIP3   OH243314   4.243   2.227   0.033  0.3254 -0.4780 -0.2851
 7300TIP3    H143315   4.255   2.135   0.012 -1.3457 -0.7918  0.0756
 7300TIP3    H243316   4.330   2.257   0.061  1.4660 -1.2887 -2.8249
 7301TIP3   OH243317   1.332   2.744  16.708 -0.4324  0.2189 -0.1569
 7301TIP3    H143318   1.333   2.708  16.797 -0.7976  1.7946  0.5097
 7301TIP3    H243319   1.346   2.668  16.651 -4.0887 -1.4801  1.0151
 7302TIP3   OH243320   0.087   1.611  15.144 -0.3964  0.5816 -0.2683
 7302TIP3    H143321   0.027   1.563  15.087 -0.7645  1.3608 -0.5488
 7302TIP3    H243322   0.043   1.695  15.159  0.9231  1.4013 -0.9776
 7303TIP3   OH243323   3.482   6.189  15.170 -0.4865  0.2900  0.5533
 7303TIP3    H143324   3.449   6.099  15.171  1.8773 -0.6178  0.4661
 7303TIP3    H243325   3.439   6.229  15.094 -1.6124 -0.7252  0.6298
 7304TIP3   OH243326   6.351   4.835   3.412  0.3727  0.2943 -0.1406
 7304TIP3    H143327   6.342   4.754   3.461  1.3649 -0.2467 -0.8472
 7304TIP3    H243328   6.337   4.810   3.320  1.2336  0.8086 -0.4197
 7305TIP3   OH243329   2.804   3.433   5.334  0.0007 -0.2573 -0.1321
 7305TIP3    H143330   2.734   3.453   5.272 -0.2875 -0.1313  0.2336
 7305TIP3    H243331   2.770   3.362   5.388  0.7340 -1.2440 -0.9270
 7306TIP3   OH243332   3.568   1.738  13.867 -0.5875  0.1714 -0.2832
 7306TIP3    H143333   3.506   1.708  13.801 -1.1550  0.8073 -0.0475
 7306TIP3    H243334   3.646   1.764  13.817 -0.7168 -0.1130 -0.6288
 7307TIP3   OH243335   3.314   4.112   6.177 -0.1450  0.1966  0.1007
 7307TIP3    H143336   3.326   4.093   6.270  1.1239 -0.6273 -0.2005
 7307TIP3    H243337   3.285   4.029   6.139 -0.8703  0.5851 -0.2066
 7308TIP3   OH243338   4.369   5.992  12.331  0.4297 -0.5234  0.2649
 7308TIP3    H143339   4.297   6.028  12.278  0.4768  0.6221  0.9522
 7308TIP3    H243340   4.446   6.001  12.276 -0.3869 -4.4480 -1.6250
 7309TIP3   OH243341   6.438   5.125   2.694 -0.0597  0.1115  0.1363
 7309TIP3    H143342   6.499   5.059   2.727 -0.2048 -0.6158 -1.0221
 7309TIP3    H243343   6.495   5.196   2.662  0.0818  0.7616  1.7854
 7310TIP3   OH243344   4.811   2.567   3.362 -0.6879 -0.3005 -0.2482
 7310TIP3    H143345   4.840   2.609   3.281  0.4009 -0.7996 -0.1270
 7310TIP3    H243346   4.796   2.475   3.338  1.1288 -0.7947  0.4469
 7311TIP3   OH243347   4.032   4.320  15.471 -0.0346  0.2248  0.9769
 7311TIP3    H143348   4.082   4.279  15.542  2.0475 -0.1638 -0.6820
 7311TIP3    H243349   4.084   4.396  15.445  0.3310 -0.8224 -1.5370
 7312TIP3   OH243350   1.095   3.206   1.392 -0.4987  0.3952  0.1922
 7312TIP3    H143351   1.019   3.190   1.336 -0.5235  1.4464 -0.0925
 7312TIP3    H243352   1.064   3.268   1.458 -0.0929  0.2375  0.5379
 7313TIP3   OH243353   3.089   4.735  11.134 -0.7072  0.0793  0.5725
 7313TIP3    H143354   3.024   4.722  11.065 -1.8297 -1.2985  1.8592
 7313TIP3    H243355   3.053   4.806  11.188 -0.6348  0.0333  0.6817
 7314TIP3   OH243356   1.810   3.424  13.858 -0.4637 -0.4473  0.2018
 7314TIP3    H143357   1.818   3.518  13.846 -0.4911 -0.0356  3.0078
 7314TIP3    H243358   1.723   3.403  13.826  0.4449  0.0433 -2.7126
 7315TIP3   OH243359   6.190   3.237  13.137 -0.0244  0.6482  0.0758
 7315TIP3    H143360   6.153   3.175  13.200  1.1216 -0.4602 -0.3188
 7315TIP3    H243361   6.116   3.292  13.111 -1.2325 -1.0269 -0.1270
 7316TIP3   OH243362   6.086   0.321   5.307  0.1011 -0.1246  0.0391
 7316TIP3    H143363   6.021   0.360   5.250 -0.3955 -0.2623  0.5113
 7316TIP3    H243364   6.153   0.389   5.318 -0.0281  0.0617 -0.3337
 7317TIP3   OH243365   4.436   6.155  15.461 -0.0508 -0.2123 -0.0524
 7317TIP3    H143366   4.437   6.089  15.530  3.4671  2.0458  2.1957
 7317TIP3    H243367   4.423   6.238  15.507  2.8923  1.3961 -1.9989
 7318TIP3   OH243368   1.388   2.361   6.085 -0.2118 -0.1371 -0.3021
 7318TIP3    H143369   1.456   2.338   6.148  2.5035  0.8429 -2.7841
 7318TIP3    H243370   1.369   2.279   6.040 -0.5446 -0.3679  0.2508
 7319TIP3   OH243371   4.436   3.660  16.883  0.0801 -0.5268  0.2612
 7319TIP3    H143372   4.371   3.601  16.845 -0.6848  0.7033 -0.3301
 7319TIP3    H243373   4.470   3.612  16.959 -2.1321 -0.8066  1.0956
 7320TIP3   OH243374   0.300   0.460  15.132 -0.0991  0.0109 -0.2748
 7320TIP3    H143375   0.278   0.490  15.220 -0.2827  0.0357 -0.3270
 7320TIP3    H243376   0.331   0.539  15.087 -0.3398  0.0713 -0.3379
 7321TIP3   OH243377   1.583   3.472   5.484 -0.4487  0.2194 -0.1103
 7321TIP3    H143378   1.628   3.389   5.499  0.2937  0.7697  0.8134
 7321TIP3    H243379   1.533   3.458   5.404  0.8057 -0.6501 -0.7755
 7322TIP3   OH243380   5.141   5.501  11.958  0.2768  0.2013 -0.1061
 7322TIP3    H143381   5.100   5.513  12.044 -1.3122  1.3530 -0.9845
 7322TIP3    H243382   5.068   5.486  11.898  1.4130 -1.2455 -1.1689
 7323TIP3   OH243383   4.217   4.485  16.641 -0.2926  0.1092  0.6740
 7323TIP3    H143384   4.207   4.534  16.559  0.2750 -0.0874  0.4795
 7323TIP3    H243385   4.309   4.499  16.665 -0.7791  1.1805  1.9298
 7324TIP3   OH243386   4.323   3.346   1.164 -0.1872 -0.2673  0.3797
 7324TIP3    H143387   4.389   3.279   1.146  2.7505  2.7650 -0.6118
 7324TIP3    H243388   4.349   3.384   1.248 -0.0676  1.6404 -0.5100
 7325TIP3   OH243389   5.939   1.847  12.157  0.3388 -0.2160  0.0207
 7325TIP3    H143390   5.934   1.825  12.250 -0.3223  0.4138  0.1317
 7325TIP3    H243391   5.994   1.925  12.154 -1.1618  0.8600  0.0624
 7326TIP3   OH243392   2.982   2.923  15.492 -0.0359 -0.0076  0.9022
 7326TIP3    H143393   2.930   3.003  15.488 -1.2324 -0.7313  1.4908
 7326TIP3    H243394   3.064   2.949  15.533 -0.1788  1.0373  0.5255
 7327TIP3   OH243395   2.550   0.694   0.864 -0.2630  0.1801  0.2572
 7327TIP3    H143396   2.633   0.649   0.875 -0.0371  0.7760  1.0123
 7327TIP3    H243397   2.549   0.761   0.932 -0.9181  0.8421 -0.3893
 7328TIP3   OH243398   3.316   2.816  16.045  0.4817 -0.0797  0.1328
 7328TIP3    H143399   3.321   2.822  16.140 -0.6223  2.4409  0.0483
 7328TIP3    H243400   3.351   2.899  16.013 -0.8477 -0.1678 -1.6257
 7329TIP3   OH243401   2.494   1.823  16.098  0.3566  0.5452  0.1337
 7329TIP3    H143402   2.588   1.810  16.083  0.1662 -1.9356  0.8571
 7329TIP3    H243403   2.491   1.891  16.166  1.5720  1.6959 -0.9340
 7330TIP3   OH243404   3.784   0.178  12.433 -0.4049  0.0292 -0.4480
 7330TIP3    H143405   3.771   0.096  12.385  0.6383 -0.2345 -0.2891
 7330TIP3    H243406   3.824   0.152  12.516 -0.8139  0.6287 -0.0570
 7331TIP3   OH243407   5.006   4.222  13.200  0.0742 -0.7129 -0.1622
 7331TIP3    H143408   5.024   4.292  13.137 -2.6524 -0.8605 -1.1759
 7331TIP3    H243409   4.946   4.261  13.264  1.4368 -1.0776  1.3676
 7332TIP3   OH243410   6.674   0.277  12.704  0.3321  0.0570 -0.4165
 7332TIP3    H143411   6.759   0.233  12.707  0.3070  0.0103 -0.3787
 7332TIP3    H243412   6.672   0.331  12.783  0.7465  0.8324 -0.9355
 7333TIP3   OH243413   5.036   6.293  14.479 -0.2557 -0.4092 -0.5493
 7333TIP3    H143414   5.124   6.316  14.449 -0.5578  1.2875 -0.2195
 7333TIP3    H243415   4.994   6.378  14.497 -0.8951 -1.2789  2.3146
 7334TIP3   OH243416   2.666   1.764   2.564  0.0500  0.5380 -0.3957
 7334TIP3    H143417   2.669   1.840   2.622  0.0315  0.1252  0.1451
 7334TIP3    H243418   2.578   1.767   2.525 -0.2004  0.3943  0.1626
 7335TIP3   OH243419   1.031   5.081  12.174 -0.3909  0.1716  0.3115
 7335TIP3    H143420   1.051   5.017  12.106 -1.2926 -1.3059  1.4268
 7335TIP3    H243421   0.984   5.032  12.241  0.0070  1.7209  1.7713
 7336TIP3   OH243422   0.444   1.842   5.362  0.2202  0.0223  0.3715
 7336TIP3    H143423   0.390   1.894   5.302 -0.0091 -0.8998 -0.2220
 7336TIP3    H243424   0.483   1.907   5.420 -1.3478  0.7230  0.6687
 7337TIP3   OH243425   2.120   3.631   1.143 -0.0650  0.1245 -0.2201
 7337TIP3    H143426   2.111   3.580   1.063  1.9866 -2.3216  1.0195
 7337TIP3    H243427   2.134   3.565   1.212 -0.1888  2.2346  1.8847
 7338TIP3   OH243428   5.726   2.348   1.457 -0.2032  0.1549  0.4037
 7338TIP3    H143429   5.756   2.300   1.379  0.4435 -0.6151  1.1168
 7338TIP3    H243430   5.807   2.375   1.501 -0.5630  0.2072  1.0400
 7339TIP3   OH243431   5.604   6.644  15.098  0.4219  0.3507 -0.3903
 7339TIP3    H143432   5.576   6.735  15.096 -2.4710 -0.5024 -0.5187
 7339TIP3    H243433   5.570   6.609  15.180  1.6342 -0.5960 -0.2666
 7340TIP3   OH243434   1.496   5.529  15.177  0.3177  0.1189  0.1031
 7340TIP3    H143435   1.443   5.566  15.107 -0.9399 -0.6326  0.6438
 7340TIP3    H243436   1.558   5.598  15.200  1.5121 -0.0144 -2.5146
 7341TIP3   OH243437   4.748   3.800   1.094 -0.0318  0.2247  0.1973
 7341TIP3    H143438   4.704   3.851   1.026 -0.6493 -0.0794  0.3619
 7341TIP3    H243439   4.769   3.717   1.051 -1.1644 -0.2858  0.6007
 7342TIP3   OH243440   1.290   2.677   2.450 -0.1645 -0.0131 -0.2000
 7342TIP3    H143441   1.309   2.602   2.507  0.7734 -0.3550 -0.9339
 7342TIP3    H243442   1.376   2.704   2.418 -0.7756 -0.5351 -2.3346
 7343TIP3   OH243443   6.735   4.970  14.417  0.1913  0.2540 -0.6302
 7343TIP3    H143444   6.730   5.062  14.390  0.5373  0.7850  1.0419
 7343TIP3    H243445   6.757   4.974  14.510 -0.2799 -1.5213 -0.4276
 7344TIP3   OH243446   3.627   5.465  16.216 -0.3166  0.3181  0.2608
 7344TIP3    H143447   3.581   5.381  16.205  0.6124 -0.3180  1.1562
 7344TIP3    H243448   3.624   5.481  16.310  1.1155  0.3724  0.3046
 7345TIP3   OH243449   4.460   1.799   0.224 -0.1723 -0.1915  0.0075
 7345TIP3    H143450   4.503   1.876   0.262 -1.0807  0.9044 -1.1721
 7345TIP3    H243451   4.369   1.805   0.253 -0.5375 -0.1246 -1.1225
 7346TIP3   OH243452   5.421   1.863  15.061 -0.1554  0.2873  0.3384
 7346TIP3    H143453   5.382   1.950  15.058  1.5032  1.0340 -0.3666
 7346TIP3    H243454   5.477   1.859  14.983  0.9783 -0.8364  1.1930
 7347TIP3   OH243455   6.670   1.799   2.135 -0.1717 -0.6153 -0.1569
 7347TIP3    H143456   6.663   1.799   2.230  0.7929  0.2844 -0.0817
 7347TIP3    H243457   6.710   1.715   2.114  0.4441 -0.4378  0.3010
 7348TIP3   OH243458   6.355   2.351  16.329 -0.1718 -0.5666 -0.3765
 7348TIP3    H143459   6.270   2.391  16.344 -0.6836 -1.3739 -1.0457
 7348TIP3    H243460   6.334   2.264  16.293  0.8906 -1.5239  1.2323
 7349TIP3   OH243461   6.046   5.540  15.735  0.2528  0.8886  0.8951
 7349TIP3    H143462   6.039   5.595  15.813  0.7982  0.7460  1.0495
 7349TIP3    H243463   5.987   5.580  15.672  1.0392  1.9671  0.8336
 7350TIP3   OH243464   4.221   2.606  16.741 -0.3354 -0.1375 -0.4460
 7350TIP3    H143465   4.195   2.584  16.831  1.7026 -0.2048  0.1580
 7350TIP3    H243466   4.306   2.648  16.751  0.0328 -0.3994 -2.3771
 7351TIP3   OH243467   2.967   6.063  12.699 -0.0776 -0.3639  0.3068
 7351TIP3    H143468   3.002   6.015  12.774 -1.4431  0.6665  1.6619
 7351TIP3    H243469   2.902   6.004  12.661  0.0860 -0.6088  0.4120
 7352TIP3   OH243470   1.693   2.513   6.011  0.6563 -0.0952  0.3682
 7352TIP3    H143471   1.620   2.542   5.957  1.2478 -0.0198 -0.3891
 7352TIP3    H243472   1.691   2.571   6.087  0.5684  0.5918 -0.1548
 7353TIP3   OH243473   4.545   4.598  14.537  0.3453 -0.0394 -0.0423
 7353TIP3    H143474   4.599   4.647  14.598 -0.1972  0.3103  0.1661
 7353TIP3    H243475   4.563   4.506  14.558 -0.2776  0.0780  1.0481
 7354TIP3   OH243476   3.271   3.810  12.064  0.3358 -0.6639 -0.1952
 7354TIP3    H143477   3.234   3.877  12.007  0.9999 -0.6206 -0.5822
 7354TIP3    H243478   3.316   3.749  12.005  1.2763 -0.4582  0.2938
 7355TIP3   OH243479   5.037   2.657  11.736  0.0420 -0.0155  0.2737
 7355TIP3    H143480   5.061   2.628  11.648 -0.7139 -3.3074  1.0697
 7355TIP3    H243481   5.102   2.724  11.758 -0.9392  2.2882 -3.4872
 7356TIP3   OH243482   4.071   0.757  13.328 -0.3429 -0.2313 -0.0695
 7356TIP3    H143483   4.064   0.840  13.375 -0.2088 -1.1646  1.6455
 7356TIP3    H243484   3.994   0.707  13.357 -0.5220 -0.6376 -1.2373
 7357TIP3   OH243485   4.881   5.828   5.746 -0.4093  0.0684 -0.1894
 7357TIP3    H143486   4.921   5.906   5.707  0.5352 -0.4934 -0.3419
 7357TIP3    H243487   4.949   5.791   5.802 -1.4192  0.2895  1.2200
 7358TIP3   OH243488   1.852   0.345   2.250 -0.4409  0.1198 -0.2666
 7358TIP3    H143489   1.872   0.370   2.160  0.1593 -0.4206 -0.2883
 7358TIP3    H243490   1.935   0.355   2.297 -1.0146  1.4835  0.4813
 7359TIP3   OH243491   0.047   6.340   0.520  0.1678  0.6349  0.2583
 7359TIP3    H143492   0.095   6.401   0.464  1.3846 -1.0280 -0.5643
 7359TIP3    H243493   0.009   6.277   0.459  1.5260 -1.2261  1.2764
 7360TIP3   OH243494   4.702   1.847  14.484  0.2046  0.2827  0.6718
 7360TIP3    H143495   4.670   1.830  14.395  1.6135  0.5168  0.0925
 7360TIP3    H243496   4.707   1.761  14.524  2.2343 -0.1752 -0.4553
 7361TIP3   OH243497   2.460   0.214   3.983  0.2526  0.1762 -1.2542
 7361TIP3    H143498   2.447   0.122   4.010  0.1933  0.5121 -0.1045
 7361TIP3    H243499   2.373   0.253   3.991  0.5171  0.6289 -0.5807
 7362TIP3   OH243500   6.787   6.170   0.303 -0.1833 -0.2705 -0.1574
 7362TIP3    H143501   6.866   6.132   0.267 -0.5981  0.0663 -1.4525
 7362TIP3    H243502   6.762   6.238   0.240 -1.4916 -0.3772  0.2278
 7363TIP3   OH243503   5.039   2.592   6.813 -0.0901  0.0074 -0.0038
 7363TIP3    H143504   4.992   2.589   6.729 -0.9301 -2.6531  0.5384
 7363TIP3    H243505   5.131   2.583   6.789 -0.4813 -2.8854 -0.5169
 7364TIP3   OH243506   1.605   5.832  11.947  0.3336 -0.0010  0.2256
 7364TIP3    H143507   1.602   5.890  11.870 -1.8448 -2.0965 -1.3637
 7364TIP3    H243508   1.698   5.818  11.963  0.8212 -0.0325 -2.4406
 7365TIP3   OH243509   2.101   4.973  14.996 -0.2931 -0.5483 -0.7648
 7365TIP3    H143510   2.023   4.919  15.011 -0.5526 -0.1127 -0.5440
 7365TIP3    H243511   2.104   4.984  14.901  0.2878 -1.7331 -0.8976
 7366TIP3   OH243512   5.554   4.187   5.575 -0.4158  0.1706  0.1794
 7366TIP3    H143513   5.589   4.223   5.493  1.6125  1.1649  1.4559
 7366TIP3    H243514   5.565   4.092   5.566 -0.3556  0.2642 -0.7700
 7367TIP3   OH243515   3.821   3.530   5.334  0.0437 -0.6513  0.3990
 7367TIP3    H143516   3.728   3.516   5.315 -0.2587  0.3172  1.1465
 7367TIP3    H243517   3.842   3.464   5.400 -0.5097  0.1408  1.3779
 7368TIP3   OH243518   6.056   4.457   5.918 -0.2802  0.0399 -0.7723
 7368TIP3    H143519   6.055   4.532   5.977  0.7392 -0.6858  0.1809
 7368TIP3    H243520   6.148   4.432   5.911 -0.6243 -1.2891 -0.8574
 7369TIP3   OH243521   6.605   2.569   1.577 -0.4693 -0.4888  0.8626
 7369TIP3    H143522   6.648   2.485   1.593  3.9970  1.6961  1.2293
 7369TIP3    H243523   6.609   2.614   1.661 -0.8784  0.9175  0.1383
 7370TIP3   OH243524   2.241   4.097  13.236  0.5953  0.0505 -0.5597
 7370TIP3    H143525   2.208   4.159  13.301  0.6858  1.4862 -1.8432
 7370TIP3    H243526   2.182   4.021  13.243  1.2772 -0.3005  1.9260
 7371TIP3   OH243527   5.011   0.957   0.837  0.0110  0.0561  0.4954
 7371TIP3    H143528   4.974   0.992   0.918  0.9873  0.6363  0.7051
 7371TIP3    H243529   5.063   1.030   0.801  0.3671 -0.5078 -0.1416
 7372TIP3   OH243530   1.833   5.645   0.686 -0.6614  0.4051  0.0997
 7372TIP3    H143531   1.893   5.652   0.760  0.3263 -0.0609 -0.6603
 7372TIP3    H243532   1.760   5.703   0.710 -0.7125 -0.3102  1.7764
 7373TIP3   OH243533   0.079   5.686   4.249 -0.0068  0.6653 -0.1221
 7373TIP3    H143534   0.107   5.743   4.177 -0.0333 -0.8899 -1.4136
 7373TIP3    H243535  -0.011   5.662   4.226 -0.6030  1.5082  1.3238
 7374TIP3   OH243536   0.478   5.026  11.513 -0.5552 -0.3194  0.7002
 7374TIP3    H143537   0.406   4.963  11.510 -1.4986  0.7291  1.2553
 7374TIP3    H243538   0.476   5.069  11.427  1.3862 -2.4393 -0.4781
 7375TIP3   OH243539   1.590   4.860  13.546  0.4172  0.1230 -0.1336
 7375TIP3    H143540   1.656   4.797  13.574 -0.9152 -1.2424 -0.0188
 7375TIP3    H243541   1.527   4.863  13.618 -1.5436 -1.3089 -1.7010
 7376TIP3   OH243542   2.749   3.281  15.067  0.0827 -0.0708  0.2182
 7376TIP3    H143543   2.747   3.375  15.089  0.3404 -0.1423  0.5623
 7376TIP3    H243544   2.835   3.268  15.027 -0.0887 -0.0943 -0.1448
 7377TIP3   OH243545   3.077   2.615  15.315 -0.7373  0.0744 -0.2426
 7377TIP3    H143546   3.123   2.660  15.386  0.7039 -1.6808 -0.0191
 7377TIP3    H243547   3.112   2.526  15.317 -3.2275 -0.9624 -0.9246
 7378TIP3   OH243548   5.174   1.733  12.042  0.4028  0.0921 -0.1111
 7378TIP3    H143549   5.222   1.752  12.123  0.3932 -0.4599  0.0189
 7378TIP3    H243550   5.213   1.653  12.009 -0.2417 -0.2070 -0.1527
 7379TIP3   OH243551   2.291   2.724  13.567  0.7350  0.5341  0.3873
 7379TIP3    H143552   2.343   2.654  13.607 -2.5085 -1.9610  0.4963
 7379TIP3    H243553   2.234   2.754  13.638 -1.8186 -0.7024 -1.0692
 7380TIP3   OH243554   0.374   1.431   1.403  0.6439 -0.2905  0.4510
 7380TIP3    H143555   0.326   1.367   1.351  0.3155  0.0221  0.3667
 7380TIP3    H243556   0.437   1.379   1.454 -0.8266 -0.8588  1.7232
 7381TIP3   OH243557   2.185   2.335   0.547 -0.3239 -0.3445  0.3617
 7381TIP3    H143558   2.169   2.404   0.610 -1.3396 -0.1114 -0.1435
 7381TIP3    H243559   2.098   2.307   0.518  0.0409 -2.3633  1.1286
 7382TIP3   OH243560   0.546   1.030   3.775 -0.1075  0.2797 -0.1291
 7382TIP3    H143561   0.453   1.041   3.752 -0.1425 -0.8609 -0.5479
 7382TIP3    H243562   0.591   1.100   3.728 -0.8173  1.1230  0.4431
 7383TIP3   OH243563   0.000   1.750   5.645 -0.0225 -0.1514 -0.0276
 7383TIP3    H143564   0.018   1.840   5.615  0.4293  0.2178  1.3455
 7383TIP3    H243565   0.086   1.716   5.671 -0.1002 -1.2045 -1.1090
 7384TIP3   OH243566   2.726   3.923  12.051 -0.6106 -0.3432  0.2058
 7384TIP3    H143567   2.771   3.955  12.129 -0.2545  0.4892 -0.3177
 7384TIP3    H243568   2.646   3.975  12.046 -1.6301 -1.8092  1.1248
 7385TIP3   OH243569   1.763   1.441   0.534  0.8407  0.3361 -0.3739
 7385TIP3    H143570   1.727   1.356   0.562  1.3775  0.0503 -0.5372
 7385TIP3    H243571   1.694   1.504   0.554  1.0495  0.0916  1.2131
 7386TIP3   OH243572   3.204   2.560  13.013  0.3003 -0.2059 -0.3746
 7386TIP3    H143573   3.169   2.490  13.068 -0.2260 -0.6572 -1.2715
 7386TIP3    H243574   3.269   2.604  13.068  0.6675 -1.4286  0.1837
 7387TIP3   OH243575   5.323   0.209   4.207  0.2332 -0.6984  0.2877
 7387TIP3    H143576   5.356   0.160   4.131  1.6844  2.9165 -1.5597
 7387TIP3    H243577   5.398   0.213   4.266 -0.0490 -1.1187  0.6780
 7388TIP3   OH243578   0.913   6.743  13.052  0.0412 -0.4878  0.2498
 7388TIP3    H143579   0.865   6.691  13.116  0.8516 -0.0008  1.2946
 7388TIP3    H243580   0.963   6.805  13.106 -0.1259  0.6766 -0.9155
 7389TIP3   OH243581   5.275   3.199   6.677 -0.3269 -0.0203  0.1889
 7389TIP3    H143582   5.255   3.222   6.586  0.2600 -2.2997 -0.5403
 7389TIP3    H243583   5.332   3.270   6.707  0.4095  0.1848 -1.5982
 7390TIP3   OH243584   3.323   1.918  16.653 -0.2916 -0.0456 -0.1766
 7390TIP3    H143585   3.298   1.837  16.608 -1.0436  0.4214 -0.6179
 7390TIP3    H243586   3.384   1.960  16.592  0.0247 -0.2315  0.0105
 7391TIP3   OH243587   3.000   6.051  16.428 -0.1519  0.2719  0.1817
 7391TIP3    H143588   3.033   5.964  16.409 -1.3764 -0.2095  0.2278
 7391TIP3    H243589   2.920   6.059  16.378 -0.7029  0.9105  1.1294
 7392TIP3   OH243590   6.231   5.386   0.660  0.2838  0.1159  0.1646
 7392TIP3    H143591   6.246   5.399   0.567 -0.1891  0.3886  0.1212
 7392TIP3    H243592   6.222   5.291   0.670  2.0845 -0.0645  0.2204
 7393TIP3   OH243593   3.530   3.604  15.663  0.8682 -0.8007 -0.5539
 7393TIP3    H143594   3.504   3.544  15.732  2.3931 -0.0612  0.6992
 7393TIP3    H243595   3.626   3.601  15.663  0.9172  0.1726 -1.7778
 7394TIP3   OH243596   0.201   4.603   4.516 -0.1769  0.3294 -0.4663
 7394TIP3    H143597   0.217   4.559   4.433  0.0568 -1.0336  0.2771
 7394TIP3    H243598   0.288   4.618   4.552 -0.2918  0.3761 -0.2053
 7395TIP3   OH243599   4.494   0.092  12.551 -1.1863 -0.1689  0.2372
 7395TIP3    H143600   4.484   0.009  12.505  0.3019 -0.8202  1.0283
 7395TIP3    H243601   4.588   0.098  12.568 -1.1737  2.0335 -0.4503
 7396TIP3   OH243602   4.849   5.122   3.329  0.6386 -0.2128  0.5985
 7396TIP3    H143603   4.757   5.096   3.335  0.8134 -0.9774  0.0315
 7396TIP3    H243604   4.891   5.050   3.284  1.6829 -0.2417  1.5937
 7397TIP3   OH243605   2.125   1.653   2.295 -0.1646  0.6421 -0.0742
 7397TIP3    H143606   2.089   1.741   2.312 -1.5424  0.3800 -1.5731
 7397TIP3    H243607   2.053   1.605   2.255  1.2000 -0.5736 -1.1196
 7398TIP3   OH243608   6.658   4.369   0.116 -0.1283 -0.2025 -0.4543
 7398TIP3    H143609   6.588   4.312   0.149  0.0262 -0.7306 -1.0294
 7398TIP3    H243610   6.612   4.444   0.078 -0.4035 -0.6843 -1.0898
 7399TIP3   OH243611   0.664   6.184  13.346  0.2636  0.3301  0.2705
 7399TIP3    H143612   0.588   6.165  13.291 -0.2752  1.6227  0.5487
 7399TIP3    H243613   0.661   6.279  13.360  1.7058  0.3413  0.6145
 7400TIP3   OH243614   0.148   2.591   2.865 -0.0286 -0.0531  0.7090
 7400TIP3    H143615   0.086   2.542   2.813  0.4120 -2.0765  2.0266
 7400TIP3    H243616   0.232   2.547   2.851  1.1205  2.5162 -0.9080
 7401TIP3   OH243617   1.740   6.728   2.632  0.0998  0.1828 -0.3445
 7401TIP3    H143618   1.777   6.815   2.616  0.6503  0.0051 -0.0756
 7401TIP3    H243619   1.813   6.668   2.616  0.1462 -0.1242  0.9224
 7402TIP3   OH243620   6.392   0.713   4.722 -0.3116  0.0064 -0.3861
 7402TIP3    H143621   6.441   0.787   4.686 -0.7957  0.7277  0.4264
 7402TIP3    H243622   6.443   0.687   4.799 -1.8449  1.5437  1.1742
 7403TIP3   OH243623   2.027   2.795   1.517 -0.0783  0.1312  0.1273
 7403TIP3    H143624   2.023   2.759   1.606  0.3110 -0.9335 -0.2745
 7403TIP3    H243625   1.952   2.756   1.473 -0.1828  0.5386 -0.0526
 7404TIP3   OH243626   2.341   2.529  12.480  0.4999  0.1348 -0.2867
 7404TIP3    H143627   2.298   2.558  12.560  1.3997  0.3261  0.1420
 7404TIP3    H243628   2.278   2.545  12.411 -0.2254  0.1190  0.3688
 7405TIP3   OH243629   6.083   3.684   3.083  0.2111  0.0323  0.1938
 7405TIP3    H143630   6.011   3.698   3.022  0.1542 -0.9142  0.0359
 7405TIP3    H243631   6.102   3.591   3.077  1.0721  0.1694  0.6617
 7406TIP3   OH243632   0.851   0.922  15.825 -0.0477  0.3791 -0.9523
 7406TIP3    H143633   0.836   1.017  15.832  0.2310  0.4744 -1.6024
 7406TIP3    H243634   0.941   0.910  15.855 -0.1609  0.2877 -0.6457
 7407TIP3   OH243635   3.539   4.257  12.878 -0.1131 -0.3301  0.2679
 7407TIP3    H143636   3.486   4.205  12.938 -0.1791  0.9251  1.3230
 7407TIP3    H243637   3.487   4.336  12.861 -0.5425 -1.1220 -2.2537
 7408TIP3   OH243638   6.551   6.011   0.294 -0.1973 -0.0994  0.1370
 7408TIP3    H143639   6.622   5.961   0.253 -0.2725 -0.1564  0.0775
 7408TIP3    H243640   6.595   6.071   0.354  0.1629  2.2516 -2.3964
 7409TIP3   OH243641   2.270   0.351   4.819 -1.1218 -0.8223 -0.2449
 7409TIP3    H143642   2.185   0.310   4.806 -1.6282  0.4823 -1.2495
 7409TIP3    H243643   2.327   0.309   4.755 -1.3265 -0.8279 -0.4241
 7410TIP3   OH243644   1.249   3.264  14.734 -0.7501  0.9764 -0.2658
 7410TIP3    H143645   1.246   3.168  14.727  0.0759  0.8754  0.7393
 7410TIP3    H243646   1.214   3.283  14.821 -0.8935  1.5911 -0.4553
 7411TIP3   OH243647   6.577   5.369  16.242  0.5716  0.5427 -0.1063
 7411TIP3    H143648   6.625   5.296  16.281  2.2979  2.3107  1.1458
 7411TIP3    H243649   6.644   5.422  16.199 -0.5126  1.9775 -0.0862
 7412TIP3   OH243650   4.066   5.067   2.666 -0.2078  0.0696  0.4237
 7412TIP3    H143651   4.094   5.126   2.736  0.9190  0.9349 -0.7184
 7412TIP3    H243652   3.985   5.106   2.633 -0.3696  0.0442  0.7902
 7413TIP3   OH243653   0.910   0.233   3.627 -0.1064  0.2279 -0.4506
 7413TIP3    H143654   0.898   0.149   3.672 -1.6123  0.6544 -0.0156
 7413TIP3    H243655   0.894   0.214   3.535  1.3195 -0.3102 -0.5995
 7414TIP3   OH243656   1.585   2.953  16.413 -0.0168 -0.3266  0.0180
 7414TIP3    H143657   1.537   2.924  16.336 -1.6077  0.8655  0.5515
 7414TIP3    H243658   1.578   2.880  16.474 -0.4839 -0.4607 -0.1947
 7415TIP3   OH243659   5.252   2.294  10.362 -0.2620  0.1872  0.4945
 7415TIP3    H143660   5.342   2.263  10.370 -0.3502 -0.2387 -0.1164
 7415TIP3    H243661   5.250   2.344  10.280 -0.7472 -0.4195  0.1242
 7416TIP3   OH243662   5.962   4.694  15.481 -0.5554 -0.0655 -0.1927
 7416TIP3    H143663   5.896   4.644  15.433 -0.0506  0.2764 -1.2535
 7416TIP3    H243664   6.010   4.743  15.414 -1.4773  2.3929  0.8610
 7417TIP3   OH243665   4.421   5.671  15.088 -0.5597 -0.4094  0.2554
 7417TIP3    H143666   4.452   5.724  15.162 -1.1447  0.3035 -0.0022
 7417TIP3    H243667   4.379   5.596  15.129 -0.6859 -0.1284  0.6477
 7418TIP3   OH243668   4.333   2.299  16.752 -0.2260 -0.4744  0.0212
 7418TIP3    H143669   4.360   2.377  16.799  1.7958 -0.4982 -1.0561
 7418TIP3    H243670   4.312   2.236  16.822  1.8429 -0.2196  0.9181
 7419TIP3   OH243671   0.452   5.572  12.172 -0.3522 -0.3033 -0.2003
 7419TIP3    H143672   0.476   5.498  12.115  1.4702 -0.0905  0.2693
 7419TIP3    H243673   0.515   5.568  12.244 -0.2929  1.6674 -0.1243
 7420TIP3   OH243674   0.840   0.308   3.906 -0.4820  0.0782  0.2844
 7420TIP3    H143675   0.879   0.317   3.819  0.5489 -0.6574  0.6582
 7420TIP3    H243676   0.801   0.221   3.906  1.6128 -0.8739  1.3702
 7421TIP3   OH243677   4.555   4.954   4.681 -0.9844  0.0836  0.0684
 7421TIP3    H143678   4.541   5.042   4.645 -1.0439 -0.2621 -0.7839
 7421TIP3    H243679   4.624   4.965   4.745 -2.4821  1.1406  1.5438
 7422TIP3   OH243680   5.014   2.122   1.565  0.0632 -0.5440  0.8805
 7422TIP3    H143681   4.994   2.036   1.529 -1.0363  0.2237 -0.3536
 7422TIP3    H243682   5.058   2.169   1.494  1.8092 -0.5026  1.9562
 7423TIP3   OH243683   4.651   3.449   4.190 -0.0936 -0.2024  0.2832
 7423TIP3    H143684   4.576   3.394   4.167 -0.0587  1.0539 -3.0032
 7423TIP3    H243685   4.616   3.509   4.256 -1.3461 -1.1194  0.4868
 7424TIP3   OH243686   4.429   2.591  12.301  0.4609 -0.0320  0.3867
 7424TIP3    H143687   4.403   2.621  12.214 -2.0200 -2.2326  0.3269
 7424TIP3    H243688   4.401   2.662  12.360 -0.5474  0.1457 -0.2918
 7425TIP3   OH243689   5.867   6.567   6.174  0.2533 -0.4837  0.5639
 7425TIP3    H143690   5.829   6.606   6.253  0.3949 -2.2269  1.5448
 7425TIP3    H243691   5.928   6.501   6.208  0.3612 -1.2129 -1.0169
 7426TIP3   OH243692   1.600   6.709   5.739 -0.1455 -0.9599  0.2241
 7426TIP3    H143693   1.545   6.758   5.800 -0.3052 -0.9959  0.1109
 7426TIP3    H243694   1.589   6.754   5.655 -0.3634 -1.2404  0.1006
 7427TIP3   OH243695   3.475   0.418   3.402  0.3207 -0.0333  0.1784
 7427TIP3    H143696   3.398   0.434   3.347 -0.3735 -0.4729  1.0078
 7427TIP3    H243697   3.468   0.326   3.426  1.7259 -0.3754 -0.6604
 7428TIP3   OH243698   2.704   6.694  15.923 -0.4868  0.3273  0.2282
 7428TIP3    H143699   2.695   6.620  15.982 -1.0679  1.0330  1.0357
 7428TIP3    H243700   2.721   6.769  15.980  0.6778  0.7221 -0.6119
 7429TIP3   OH243701   1.382   3.962  15.828  0.0390  0.2637  0.2636
 7429TIP3    H143702   1.399   4.011  15.908  0.0457 -0.6539  0.8249
 7429TIP3    H243703   1.442   3.887  15.832  0.4944  0.5477 -0.9011
 7430TIP3   OH243704   6.508   5.156   3.920 -0.2117 -0.5010 -0.5103
 7430TIP3    H143705   6.488   5.249   3.916  1.6158 -0.1064 -0.9601
 7430TIP3    H243706   6.591   5.151   3.967 -0.0110 -1.8550 -0.9885
 7431TIP3   OH243707   5.981   5.777  10.528 -0.1595  0.6694  0.3760
 7431TIP3    H143708   5.901   5.812  10.569  0.0802 -0.5020  1.8521
 7431TIP3    H243709   6.042   5.767  10.600  1.1932  1.1173 -0.6899
 7432TIP3   OH243710   4.323   3.091   6.423 -0.2956  0.2563 -0.2272
 7432TIP3    H143711   4.250   3.034   6.446  1.4711 -1.7834  0.5128
 7432TIP3    H243712   4.400   3.045   6.456  1.3299  2.3141 -1.0765
 7433TIP3   OH243713   4.054   4.535   4.147  0.0653  0.3047 -0.0496
 7433TIP3    H143714   4.020   4.563   4.062 -0.3757 -0.7954 -0.2462
 7433TIP3    H243715   4.143   4.505   4.129  0.0753  0.3465 -0.0704
 7434TIP3   OH243716   0.843   4.127   6.076  0.1162 -0.0926  0.7708
 7434TIP3    H143717   0.927   4.110   6.033  0.1432 -0.1593  0.8488
 7434TIP3    H243718   0.801   4.041   6.079 -0.1446  0.0196  0.3318
 7435TIP3   OH243719   6.383   3.220   1.991 -0.5399  0.3277  0.6258
 7435TIP3    H143720   6.349   3.308   2.006 -0.9426  0.4316 -0.8129
 7435TIP3    H243721   6.342   3.166   2.059 -0.8122  1.1237  1.0969
 7436TIP3   OH243722   4.419   0.553   3.412 -0.5104  0.0690  0.8296
 7436TIP3    H143723   4.447   0.643   3.397 -2.1961  0.4396 -0.1484
 7436TIP3    H243724   4.494   0.500   3.384 -0.4527  1.0690 -0.9381
 7437TIP3   OH243725   5.498   1.241   1.394 -0.1365 -0.0593  0.0620
 7437TIP3    H143726   5.459   1.167   1.440 -0.4192  0.2768  0.3674
 7437TIP3    H243727   5.587   1.248   1.429 -0.9618  1.3627  1.9352
 7438TIP3   OH243728   1.902   0.039   2.230  0.3839 -0.4495  0.1972
 7438TIP3    H143729   1.874   0.130   2.218 -1.7519 -1.0551  0.4203
 7438TIP3    H243730   1.997   0.042   2.217 -0.1235  1.1450 -3.7507
 7439TIP3   OH243731   5.840   3.844   1.710  0.1160 -0.0415 -0.3913
 7439TIP3    H143732   5.880   3.900   1.777  0.1381  0.1192 -0.5365
 7439TIP3    H243733   5.752   3.880   1.699  0.4912  0.6502 -1.2594
 7440TIP3   OH243734   4.282   3.477  16.732 -0.6089  0.6073 -0.0419
 7440TIP3    H143735   4.206   3.485  16.790 -2.1395  0.6110 -2.0134
 7440TIP3    H243736   4.248   3.436  16.653  1.2193  1.5810 -1.3784
 7441TIP3   OH243737   2.297   2.179   0.352  0.4387 -0.4370  0.3471
 7441TIP3    H143738   2.260   2.246   0.410 -0.0613  0.4475 -0.9708
 7441TIP3    H243739   2.234   2.173   0.280  1.2108 -1.2992 -0.2627
 7442TIP3   OH243740   0.825   5.967   3.143  0.1435  0.0942  0.0457
 7442TIP3    H143741   0.797   5.998   3.057 -1.2453 -0.8537  0.1390
 7442TIP3    H243742   0.904   6.018   3.163  0.1966  0.6647 -1.5673
 7443TIP3   OH243743   1.705   2.219   5.471 -0.1167  0.5064  0.0337
 7443TIP3    H143744   1.767   2.278   5.514 -0.7840  1.7947 -0.7389
 7443TIP3    H243745   1.757   2.178   5.401 -0.0678  1.4521 -0.4999
 7444TIP3   OH243746   3.740   4.151   5.037 -0.2180 -0.2573  0.1078
 7444TIP3    H143747   3.824   4.160   5.081 -0.3948  0.5773  0.2930
 7444TIP3    H243748   3.716   4.060   5.050 -0.0475 -0.1372  1.3596
 7445TIP3   OH243749   2.481   6.786  17.231  0.3211 -0.3110  0.2825
 7445TIP3    H143750   2.510   6.705  17.274  0.9163  0.8938  2.1956
 7445TIP3    H243751   2.403   6.761  17.182  0.7600 -2.1404  0.4950
 7446TIP3   OH243752   5.244   4.579  16.870 -0.1652 -0.5917 -0.5177
 7446TIP3    H143753   5.257   4.577  16.965  0.4777  1.2630 -0.5359
 7446TIP3    H243754   5.333   4.571  16.834 -0.4904 -2.2375 -0.9992
 7447TIP3   OH243755   4.498   5.633   1.697  0.8254  0.5409  0.4048
 7447TIP3    H143756   4.448   5.590   1.766  0.8961 -0.3520 -0.1017
 7447TIP3    H243757   4.441   5.631   1.621  0.3561  2.3901  0.6680
 7448TIP3   OH243758   5.904   0.742  14.098  0.2593 -0.0142 -0.0716
 7448TIP3    H143759   5.894   0.709  14.009 -1.2320 -2.7499  1.0537
 7448TIP3    H243760   5.848   0.820  14.101 -1.5918 -1.2875 -0.8503
 7449TIP3   OH243761   1.994   1.495  17.098  0.4255  0.3438 -0.3920
 7449TIP3    H143762   1.899   1.496  17.107  0.5365  0.5269  0.9083
 7449TIP3    H243763   2.023   1.422  17.152  0.9948 -0.0086 -1.1601
 7450TIP3   OH243764   2.571   4.342   2.386  0.0523 -0.8205 -0.2108
 7450TIP3    H143765   2.655   4.343   2.339 -0.5226  0.9245 -1.2489
 7450TIP3    H243766   2.507   4.313   2.321 -0.6299  0.8751 -0.3294
 7451TIP3   OH243767   6.233   2.314   5.623 -0.3247 -0.4666 -0.2621
 7451TIP3    H143768   6.166   2.382   5.629  0.6419  0.2774  3.0238
 7451TIP3    H243769   6.314   2.362   5.604 -0.3408 -1.1528 -2.1641
 7452TIP3   OH243770   1.267   6.128   1.586  1.0435  0.4793  0.0272
 7452TIP3    H143771   1.232   6.216   1.602  0.8177  0.5013 -0.5641
 7452TIP3    H243772   1.237   6.076   1.660 -2.3481 -0.1036 -1.6435
 7453TIP3   OH243773   0.805   5.317   3.606 -0.1572  0.6213  0.3069
 7453TIP3    H143774   0.792   5.340   3.514  0.7362  0.0941  0.0461
 7453TIP3    H243775   0.850   5.392   3.644 -1.3965  1.2451  0.5399
 7454TIP3   OH243776   1.640   6.631   5.095  0.5345  0.0390  0.3085
 7454TIP3    H143777   1.648   6.565   5.026 -1.5961 -0.6027  0.6325
 7454TIP3    H243778   1.610   6.710   5.049 -2.9436 -0.9613  0.7087
 7455TIP3   OH243779   1.153   2.407  12.187 -0.5591 -0.1610 -0.4523
 7455TIP3    H143780   1.129   2.347  12.117 -0.4649  0.1499 -0.7540
 7455TIP3    H243781   1.144   2.494  12.147  1.7569 -0.0505 -0.7851
 7456TIP3   OH243782   3.515   4.547   6.104  0.0975 -0.1799  1.1262
 7456TIP3    H143783   3.464   4.627   6.117  0.6845  0.7827 -2.1439
 7456TIP3    H243784   3.452   4.485   6.066  0.5897  0.0413 -0.0778
 7457TIP3   OH243785   5.673   0.876  12.380  0.2223  0.0012 -0.1566
 7457TIP3    H143786   5.695   0.956  12.331  1.4899  0.7627  1.6248
 7457TIP3    H243787   5.715   0.806  12.331 -0.1279  0.5085 -1.2201
 7458TIP3   OH243788   4.136   4.564  15.382 -0.4183 -0.1735  0.2636
 7458TIP3    H143789   4.188   4.555  15.303  0.3514  4.2399  0.1616
 7458TIP3    H243790   4.059   4.614  15.355 -0.7114  0.3931  2.0176
 7459TIP3   OH243791   3.055   1.865   3.200  0.0175 -0.7411 -0.0271
 7459TIP3    H143792   2.998   1.924   3.151  0.0240 -0.0229  0.8025
 7459TIP3    H243793   3.014   1.779   3.192  0.2110 -0.7011 -1.5650
 7460TIP3   OH243794   2.259   5.505   5.331  0.2109 -0.4519 -0.3185
 7460TIP3    H143795   2.238   5.416   5.306 -2.2364  0.8930 -3.3765
 7460TIP3    H243796   2.330   5.532   5.272  1.4676 -0.5748  1.0918
 7461TIP3   OH243797   4.994   5.420  15.347  0.0496  0.1273 -0.3284
 7461TIP3    H143798   4.929   5.484  15.318 -1.8839 -1.7281 -0.1822
 7461TIP3    H243799   5.015   5.446  15.437  1.1810  2.0045 -1.0875
 7462TIP3   OH243800   2.331   3.528   0.874 -0.3638  0.1267  0.6723
 7462TIP3    H143801   2.255   3.561   0.826 -0.9474 -1.5247  0.4324
 7462TIP3    H243802   2.406   3.568   0.830 -0.9350 -0.7114 -1.1187
 7463TIP3   OH243803   2.215   6.563  14.222 -0.1258  0.8691 -0.0406
 7463TIP3    H143804   2.234   6.532  14.311 -1.1932  0.6927  0.1397
 7463TIP3    H243805   2.279   6.518  14.167  0.1239  0.4701  0.5648
 7464TIP3   OH243806   1.435   6.031  10.995  0.4066 -0.6783 -0.3696
 7464TIP3    H143807   1.444   6.014  10.901  0.8353 -0.3528 -0.3894
 7464TIP3    H243808   1.342   6.016  11.014  0.3263 -0.7717 -0.8411
 7465TIP3   OH243809   0.082   1.316   1.225 -0.8598  0.1774  0.1822
 7465TIP3    H143810   0.122   1.348   1.145 -0.3648 -1.4928 -0.2601
 7465TIP3    H243811  -0.009   1.344   1.221 -1.2279 -1.2095 -1.7161
 7466TIP3   OH243812   0.147   2.351  15.991 -0.6161  0.0697 -0.3054
 7466TIP3    H143813   0.172   2.428  16.043 -0.5485  1.5031 -2.3949
 7466TIP3    H243814   0.219   2.289  16.004 -0.2106  0.7234  0.6441
 7467TIP3   OH243815   6.312   5.415  13.234  0.6319 -0.4057  0.1703
 7467TIP3    H143816   6.247   5.448  13.172  1.0057 -0.1706 -0.1018
 7467TIP3    H243817   6.273   5.431  13.320  0.7463  0.6348  0.0391
 7468TIP3   OH243818   1.799   3.799  12.070  0.0438  0.2776 -0.1107
 7468TIP3    H143819   1.844   3.715  12.058  0.1850  0.4171 -0.5809
 7468TIP3    H243820   1.777   3.827  11.981 -0.8704  0.2715  0.1090
 7469TIP3   OH243821   3.137   1.702  12.330 -0.0613 -0.0693 -0.5410
 7469TIP3    H143822   3.120   1.703  12.236  0.8105 -3.0128 -0.7518
 7469TIP3    H243823   3.232   1.700  12.338 -0.0377  2.4968  0.4809
 7470TIP3   OH243824   0.563   0.241  11.390  0.4359  0.3449 -0.3039
 7470TIP3    H143825   0.594   0.154  11.364  1.8585  1.0742 -1.0715
 7470TIP3    H243826   0.629   0.272  11.452  0.2303  1.1138 -0.4667
 7471TIP3   OH243827   4.183   5.252  16.822  0.0375  0.7968  0.2409
 7471TIP3    H143828   4.255   5.240  16.759  0.2579  0.0796  0.6130
 7471TIP3    H243829   4.109   5.205  16.783  0.0822  0.6224  0.3652
 7472TIP3   OH243830   4.029   0.266   2.479 -0.0685  0.1134 -0.2271
 7472TIP3    H143831   4.059   0.244   2.567  0.0219 -1.6890 -0.6729
 7472TIP3    H243832   4.061   0.194   2.425  1.4219  2.1121 -2.0520
 7473TIP3   OH243833   4.425   6.460   3.721 -0.2001 -0.1840  0.6110
 7473TIP3    H143834   4.354   6.417   3.770  1.1249 -0.2296  2.5484
 7473TIP3    H243835   4.467   6.388   3.673 -0.0616 -0.5288  1.2395
 7474TIP3   OH243836   2.358   0.055  15.634  0.1528 -0.6399 -0.3844
 7474TIP3    H143837   2.421   0.010  15.576 -1.4035  0.4960 -3.0628
 7474TIP3    H243838   2.299  -0.015  15.663 -0.4350 -0.8725 -2.0700
 7475TIP3   OH243839   0.158   6.184  13.111 -0.6077 -0.3314  0.3568
 7475TIP3    H143840   0.174   6.244  13.038 -1.3988  1.9363  1.9890
 7475TIP3    H243841   0.074   6.144  13.092 -0.6147 -0.0669 -0.1776
 7476TIP3   OH243842   1.342   0.379   2.233 -0.3960 -0.7320  0.3337
 7476TIP3    H143843   1.320   0.470   2.256 -2.0460 -1.2103  0.7461
 7476TIP3    H243844   1.419   0.359   2.287 -0.6403  0.0944  1.0089
 7477TIP3   OH243845   5.661   1.125   3.137 -0.1193 -1.0441  0.6622
 7477TIP3    H143846   5.658   1.200   3.077 -1.5844  0.9065  3.0867
 7477TIP3    H243847   5.750   1.125   3.171 -0.8047  1.2499  2.6001
 7478TIP3   OH243848   4.630   1.821  16.575  0.2631  0.7280  0.0910
 7478TIP3    H143849   4.671   1.751  16.625 -0.6208  0.2914  0.2161
 7478TIP3    H243850   4.668   1.815  16.488  1.1164  0.8972  0.4391
 7479TIP3   OH243851   4.259   1.773  10.943 -0.1292  0.2781  0.2185
 7479TIP3    H143852   4.293   1.700  10.891  2.4404  1.1118  0.6336
 7479TIP3    H243853   4.205   1.823  10.882 -0.6457 -1.1177 -0.4762
 7480TIP3   OH243854   1.807   5.345  10.791 -0.3582 -0.5349  0.2154
 7480TIP3    H143855   1.803   5.303  10.705  0.0535 -0.5398  0.1972
 7480TIP3    H243856   1.900   5.362  10.805  0.0283 -3.8167  2.2202
 7481TIP3   OH243857   6.141   3.050   6.182 -0.4690  0.4011 -0.1181
 7481TIP3    H143858   6.227   3.044   6.223 -0.0148 -1.5415 -1.2850
 7481TIP3    H243859   6.085   3.089   6.248  0.9584  0.2217  1.2202
 7482TIP3   OH243860   3.874   2.112  11.650 -0.3985 -0.0416 -0.1909
 7482TIP3    H143861   3.944   2.170  11.619 -0.2924 -0.7961 -1.3855
 7482TIP3    H243862   3.905   2.024  11.628 -0.1388 -0.6435  2.4190
 7483TIP3   OH243863   6.148   0.661  15.200  0.3022 -0.2378 -0.5451
 7483TIP3    H143864   6.122   0.608  15.276 -0.1935 -1.0572 -1.2787
 7483TIP3    H243865   6.241   0.678  15.214  0.1159  0.0006  0.4758
 7484TIP3   OH243866   1.916   1.543  15.953  0.4916  0.2536 -0.0081
 7484TIP3    H143867   1.835   1.511  15.991 -0.3725  2.6534  0.2479
 7484TIP3    H243868   1.896   1.556  15.861  1.2969 -1.3521 -0.4352
 7485TIP3   OH243869   5.021   1.879  16.360  0.0035 -0.2200 -0.1461
 7485TIP3    H143870   5.040   1.846  16.448  1.8887  0.3084 -0.3359
 7485TIP3    H243871   4.951   1.944  16.374 -1.1127 -1.5843  0.6818
 7486TIP3   OH243872   0.607   0.736   3.466  0.1466 -0.1524  0.5252
 7486TIP3    H143873   0.550   0.680   3.519 -0.2762  0.5740  0.8516
 7486TIP3    H243874   0.657   0.786   3.530  3.0669 -2.6130  0.3070
 7487TIP3   OH243875   3.490   5.174   2.341  0.1390 -0.3319  0.0328
 7487TIP3    H143876   3.578   5.136   2.338 -0.2071 -1.0278 -1.3812
 7487TIP3    H243877   3.506   5.268   2.354  1.0588 -0.5602  0.6538
 7488TIP3   OH243878   5.158   3.697   1.604 -0.0965 -0.4882 -0.5168
 7488TIP3    H143879   5.126   3.656   1.684 -1.1530 -1.1062 -1.2478
 7488TIP3    H243880   5.079   3.732   1.562  0.3539 -0.8667 -1.6782
 7489TIP3   OH243881   0.707   2.566   3.161 -0.1905 -0.0944  0.7721
 7489TIP3    H143882   0.716   2.651   3.117  2.4566 -0.4317  0.6004
 7489TIP3    H243883   0.657   2.586   3.240 -1.1407  1.3107 -0.1611
 7490TIP3   OH243884   6.745   3.809  14.328  0.4565 -0.5956 -0.0141
 7490TIP3    H143885   6.671   3.823  14.269  0.4642 -0.4224  0.0148
 7490TIP3    H243886   6.706   3.808  14.415  0.8520  2.8435  0.2999
 7491TIP3   OH243887   1.701   6.051  16.217  0.0287  0.1878  0.0613
 7491TIP3    H143888   1.660   6.078  16.135  0.2830  1.1541  0.2442
 7491TIP3    H243889   1.785   6.015  16.191 -0.3978 -0.6109 -0.2044
 7492TIP3   OH243890   6.626   0.078  14.835 -0.1532 -0.1179 -0.2604
 7492TIP3    H143891   6.616   0.145  14.902  1.3124  0.5755 -0.7209
 7492TIP3    H243892   6.583   0.114  14.758  0.4283  0.1919 -0.4398
 7493TIP3   OH243893   0.209   2.858  15.418  0.3430 -0.1678  0.0006
 7493TIP3    H143894   0.128   2.869  15.367  0.9917  1.2807 -0.7563
 7493TIP3    H243895   0.270   2.921  15.380  1.2876 -0.0355  1.6849
 7494TIP3   OH243896   0.108   3.589  13.667 -0.3081 -0.0012 -0.5157
 7494TIP3    H143897   0.023   3.548  13.683 -1.2305  2.0601  0.0654
 7494TIP3    H243898   0.095   3.641  13.589  0.3672  0.4707 -0.3121
 7495TIP3   OH243899   2.675   0.875  14.408 -0.5538  0.0533  0.3216
 7495TIP3    H143900   2.744   0.930  14.444 -0.2627 -0.0352 -0.0916
 7495TIP3    H243901   2.681   0.793  14.457  0.3351 -0.3411 -0.4319
 7496TIP3   OH243902   4.622   1.043   5.593 -0.3674 -0.3846 -0.0376
 7496TIP3    H143903   4.659   1.098   5.523 -1.2199  0.4206  0.1330
 7496TIP3    H243904   4.675   1.063   5.670 -0.8955  0.4617  0.1073
 7497TIP3   OH243905   0.092   0.104  16.146  0.3400  0.1626  0.1803
 7497TIP3    H143906   0.104   0.089  16.053  0.2194 -1.9269  0.4747
 7497TIP3    H243907   0.140   0.032  16.188  1.4303  1.7559  1.7629
 7498TIP3   OH243908   0.482   4.484  15.186 -0.2812  0.3342 -0.1730
 7498TIP3    H143909   0.553   4.548  15.184 -1.4016  1.6005  0.2182
 7498TIP3    H243910   0.499   4.431  15.264  0.1606  0.7059 -0.0157
 7499TIP3   OH243911   2.712   1.646  11.062 -0.7128  0.4336 -0.3626
 7499TIP3    H143912   2.800   1.684  11.062 -1.5183  2.4339 -2.2639
 7499TIP3    H243913   2.716   1.577  11.128  1.3653  2.5824  1.8599
 7500TIP3   OH243914   5.742   3.636  17.124  0.0901  0.3992 -0.5406
 7500TIP3    H143915   5.691   3.717  17.130 -2.0066 -0.8693 -0.9306
 7500TIP3    H243916   5.768   3.617  17.214 -1.0582  0.4869 -0.1805
 7501TIP3   OH243917   5.853   2.857   1.116  0.0014  0.1954 -0.0642
 7501TIP3    H143918   5.841   2.898   1.201 -1.0543 -0.7524  0.2515
 7501TIP3    H243919   5.766   2.824   1.092  0.8994 -2.2127 -0.1333
 7502TIP3   OH243920   6.288   5.187  15.027  0.4484 -0.0654 -0.1781
 7502TIP3    H143921   6.277   5.093  15.017  2.2553 -0.1935 -1.0442
 7502TIP3    H243922   6.273   5.223  14.939  1.6078  0.2631 -0.2482
 7503TIP3   OH243923   6.453   5.808  11.387 -0.0279 -0.5436  0.5187
 7503TIP3    H143924   6.483   5.899  11.391 -2.2675  0.3694 -2.2128
 7503TIP3    H243925   6.528   5.757  11.417  2.8688  1.9016 -2.1952
 7504TIP3   OH243926   4.090   3.519   3.431  0.1121  0.3196  0.5111
 7504TIP3    H143927   4.135   3.594   3.391  0.0415  0.8412  1.3860
 7504TIP3    H243928   4.156   3.477   3.486  0.9803 -2.0386 -2.2794
 7505TIP3   OH243929   4.148   6.166  10.954 -0.0232 -0.1047 -0.1185
 7505TIP3    H143930   4.104   6.082  10.945  0.8138 -0.3310 -2.4493
 7505TIP3    H243931   4.235   6.152  10.916 -0.5561  2.3249 -2.4146
 7506TIP3   OH243932   2.959   0.163   3.985 -0.2898 -0.3565  0.1697
 7506TIP3    H143933   2.891   0.098   4.003 -0.1192 -0.6209 -0.1211
 7506TIP3    H243934   3.015   0.162   4.063 -0.6232 -0.1407  0.4057
 7507TIP3   OH243935   6.691   5.911  13.500  0.2780 -0.5165 -0.5732
 7507TIP3    H143936   6.708   5.956  13.418  1.4557  1.1475  0.5400
 7507TIP3    H243937   6.735   5.826  13.491  1.7766  0.2873 -1.0680
 7508TIP3   OH243938   4.900   1.842  16.850 -0.7959  0.4572  0.5140
 7508TIP3    H143939   4.813   1.802  16.845 -0.1097 -1.0132  0.1156
 7508TIP3    H243940   4.911   1.863  16.942 -1.7211  1.0014  0.5109
 7509TIP3   OH243941   4.439   1.287  10.436 -0.1869  0.8072 -0.3149
 7509TIP3    H143942   4.353   1.250  10.415  0.0265  1.6365 -2.7817
 7509TIP3    H243943   4.421   1.380  10.453  0.0408  0.7036  0.5132
 7510TIP3   OH243944   4.109   5.179   0.971 -0.1824  0.5237  0.1590
 7510TIP3    H143945   4.168   5.254   0.978 -0.1765  0.3505  2.0938
 7510TIP3    H243946   4.150   5.111   1.023  0.5805 -1.3722 -2.7930
 7511TIP3   OH243947   0.954   4.689  15.040 -0.2747 -0.1250 -0.0212
 7511TIP3    H143948   0.915   4.746  14.974 -1.2798 -1.0776 -0.2637
 7511TIP3    H243949   0.994   4.618  14.989  0.7592  0.2191  0.2943
 7512TIP3   OH243950   0.957   2.231   3.998  0.2418 -0.4425  0.8293
 7512TIP3    H143951   0.951   2.144   3.958  0.5780 -0.8852  1.7293
 7512TIP3    H243952   0.933   2.217   4.090  0.5403  0.3733  1.0345
 7513TIP3   OH243953   3.986   5.848   3.595  0.0610  0.3110 -0.5210
 7513TIP3    H143954   4.018   5.827   3.682  0.3006  0.7363 -0.4998
 7513TIP3    H243955   3.947   5.935   3.604  0.2376  0.4310 -0.8692
 7514TIP3   OH243956   3.415   6.222   2.027 -0.0830  0.3091  0.3950
 7514TIP3    H143957   3.494   6.239   2.079 -0.0968  2.7324 -0.3119
 7514TIP3    H243958   3.346   6.212   2.092  0.2544  1.3196  0.9297
 7515TIP3   OH243959   2.138   3.785  11.283  0.5921 -0.4347  0.0366
 7515TIP3    H143960   2.043   3.791  11.288  0.7015  3.4059 -0.6660
 7515TIP3    H243961   2.169   3.811  11.370  1.0289 -0.3962 -0.1252
 7516TIP3   OH243962   5.766   0.937   1.338 -0.0688 -0.3930  0.0984
 7516TIP3    H143963   5.738   0.953   1.428  0.9865  1.3566  0.1428
 7516TIP3    H243964   5.684   0.923   1.290 -0.7261  0.0237  1.0793
 7517TIP3   OH243965   6.407   1.642  13.915 -0.1584 -0.3427 -0.2192
 7517TIP3    H143966   6.369   1.728  13.895 -1.8477 -1.0614 -0.1693
 7517TIP3    H243967   6.372   1.619  14.001  0.0139 -1.2305 -0.3802
 7518TIP3   OH243968   6.012   0.482   1.840 -0.2998  0.0725 -0.4120
 7518TIP3    H143969   5.934   0.534   1.820  1.5524  2.3308 -2.0126
 7518TIP3    H243970   6.053   0.467   1.755  0.0194 -2.8155  0.1806
 7519TIP3   OH243971   4.442   0.434  13.360 -0.3583  0.4234  0.2328
 7519TIP3    H143972   4.494   0.376  13.304  0.3515  2.2414 -1.0524
 7519TIP3    H243973   4.384   0.480  13.300 -0.4640  1.5020  1.1406
 7520TIP3   OH243974   2.169   4.556   0.508 -0.4499  0.0008 -0.2258
 7520TIP3    H143975   2.171   4.636   0.559 -1.4886  0.0215 -0.2248
 7520TIP3    H243976   2.187   4.486   0.571  1.1135  0.2660 -0.3364
 7521TIP3   OH243977   5.240   5.012  16.917  0.0256  0.1289 -0.3540
 7521TIP3    H143978   5.310   5.022  16.982  0.7728  1.2146 -1.3159
 7521TIP3    H243979   5.202   5.099  16.908 -1.1607 -0.3546 -0.1940
 7522TIP3   OH243980   1.690   6.222  17.034  0.0384  0.2252  0.4845
 7522TIP3    H143981   1.665   6.184  16.949  1.6727  0.4491 -0.1061
 7522TIP3    H243982   1.656   6.311  17.031  0.7089  0.4643 -0.2369
 7523TIP3   OH243983   3.852   1.331   4.160  0.0795 -0.1331  0.4194
 7523TIP3    H143984   3.858   1.252   4.106  0.0760 -0.2939  0.6536
 7523TIP3    H243985   3.940   1.370   4.157 -0.1910  0.4185 -0.5463
 7524TIP3   OH243986   5.814   3.002   4.289  0.0941 -0.0899 -0.1967
 7524TIP3    H143987   5.772   3.023   4.205 -2.1157 -2.0485  0.3756
 7524TIP3    H243988   5.846   2.912   4.278  0.7724  0.0353  0.6939
 7525TIP3   OH243989   2.542   0.115  12.227  0.1150  0.4298  0.0472
 7525TIP3    H143990   2.584   0.194  12.194 -0.2207  0.4205 -0.4104
 7525TIP3    H243991   2.579   0.102  12.315  2.6917 -0.7959 -1.1830
 7526TIP3   OH243992   3.711   5.466  13.173 -0.4635  0.2583 -0.2583
 7526TIP3    H143993   3.630   5.501  13.137  0.2367 -1.2042 -3.4331
 7526TIP3    H243994   3.778   5.487  13.108  0.8327 -2.6296  0.0580
 7527TIP3   OH243995   3.157   2.135  12.434  0.0782 -0.1074  0.5324
 7527TIP3    H143996   3.112   2.196  12.492  3.0778  2.2596  0.5041
 7527TIP3    H243997   3.131   2.162  12.345 -1.8003 -1.5398  0.6149
 7528TIP3   OH243998   6.687   6.076  12.979 -0.3952 -0.6591 -0.4279
 7528TIP3    H143999   6.636   6.002  12.944 -0.4481 -0.4141 -0.8634
 7528TIP3    H244000   6.691   6.139  12.908  0.4702 -0.6483 -0.3745
 7529TIP3   OH244001   1.955   0.041   0.082 -0.1638  0.1046  0.2193
 7529TIP3    H144002   1.951   0.113   0.020  0.0641  0.0230  0.1072
 7529TIP3    H244003   1.889  -0.021   0.051 -0.7796  0.5328  0.6623
 7530TIP3   OH244004   4.985   3.637  16.496 -0.3152  0.2615  0.0264
 7530TIP3    H144005   4.964   3.699  16.567 -1.4287 -0.3399  0.2389
 7530TIP3    H244006   5.039   3.571  16.537  1.0400  1.1871 -0.2427
 7531TIP3   OH244007   4.781   3.253  12.062  0.5798 -0.0414 -0.1458
 7531TIP3    H144008   4.781   3.162  12.032  0.2398 -0.2151  0.3693
 7531TIP3    H244009   4.871   3.283  12.048  0.7528 -0.5326 -0.0963
 7532TIP3   OH244010   1.821   2.887   1.174 -0.2618 -0.0529  0.7457
 7532TIP3    H144011   1.762   2.821   1.138  0.2100 -0.8509  1.4195
 7532TIP3    H244012   1.768   2.934   1.238 -0.7431  0.5560 -0.0905
 7533TIP3   OH244013   6.384   1.836  12.645  0.3245  0.5233  0.1546
 7533TIP3    H144014   6.423   1.917  12.614  2.5495 -0.5013  0.1633
 7533TIP3    H244015   6.329   1.862  12.719 -0.8978  2.2994 -1.3336
 7534TIP3   OH244016   6.343   1.938  15.859 -0.1300  0.2713  0.0740
 7534TIP3    H144017   6.358   2.028  15.888  0.7761  0.4129 -0.8120
 7534TIP3    H244018   6.249   1.934  15.843  0.0367  1.5195 -1.3609
 7535TIP3   OH244019   6.451   2.758   0.853  0.1310 -0.3284  0.9395
 7535TIP3    H144020   6.432   2.827   0.917  0.9122 -0.0156  0.8325
 7535TIP3    H244021   6.517   2.703   0.895  1.7423  0.7248 -0.1763
 7536TIP3   OH244022   0.063   1.672   5.049 -0.6880  0.2366 -0.2015
 7536TIP3    H144023   0.056   1.670   4.954 -0.7143  3.9461 -0.3575
 7536TIP3    H244024   0.040   1.762   5.073 -0.9763 -0.7040  3.3384
 7537TIP3   OH244025   2.048   4.324  14.770 -0.3967 -0.1656 -0.1536
 7537TIP3    H144026   2.120   4.262  14.767  2.0683  2.4818  1.7007
 7537TIP3    H244027   2.027   4.332  14.864 -3.9595 -1.7838 -0.7195
 7538TIP3   OH244028   3.390   5.966   2.785  0.1269  0.1607  0.2104
 7538TIP3    H144029   3.416   5.968   2.693 -0.5704 -0.3944 -0.0051
 7538TIP3    H244030   3.294   5.967   2.782  0.1003 -0.3547  0.9225
 7539TIP3   OH244031   3.915   5.353   2.933  0.2551  0.1394  0.3712
 7539TIP3    H144032   3.988   5.326   2.878  1.1230 -0.4921  1.8079
 7539TIP3    H244033   3.851   5.283   2.925  0.5523 -0.1448  0.4871
 7540TIP3   OH244034   0.309   1.289   2.836  0.2737 -0.3847  0.2806
 7540TIP3    H144035   0.338   1.233   2.764  1.8119  1.1777 -0.3678
 7540TIP3    H244036   0.331   1.241   2.916  1.3730 -0.7815 -0.2634
 7541TIP3   OH244037   2.375   1.745   2.665  0.2019  0.2576  0.7456
 7541TIP3    H144038   2.417   1.728   2.750 -0.6026  0.5753  1.2135
 7541TIP3    H244039   2.351   1.838   2.669  1.7525  0.7534 -0.5461
 7542TIP3   OH244040   2.221   0.943  16.066  0.0301 -0.0140 -0.3021
 7542TIP3    H144041   2.125   0.946  16.057 -0.2291 -3.1661  0.8269
 7542TIP3    H244042   2.235   0.928  16.159  1.4169 -4.0691 -1.0547
 7543TIP3   OH244043   4.563   6.606  10.841  0.2491  0.4377  0.2456
 7543TIP3    H144044   4.601   6.569  10.921 -0.9451  0.0031  0.6227
 7543TIP3    H244045   4.583   6.699  10.846  2.7163 -0.0175 -0.3926
 7544TIP3   OH244046   4.885   4.974   2.674 -0.3649 -0.1249 -0.0283
 7544TIP3    H144047   4.850   4.996   2.760 -0.8170 -1.5711  0.1720
 7544TIP3    H244048   4.959   4.915   2.692  0.1625  0.3650 -0.5814
 7545TIP3   OH244049   3.225   3.411  15.479  0.0923  0.1722 -0.0021
 7545TIP3    H144050   3.137   3.400  15.443 -0.3988  0.3939  1.1142
 7545TIP3    H244051   3.242   3.505  15.473 -0.2826  0.3106  0.9959
 7546TIP3   OH244052   2.072   1.639   0.471  0.4886  0.4495  0.3848
 7546TIP3    H144053   2.143   1.676   0.523  1.4326 -0.2742 -0.3618
 7546TIP3    H244054   2.116   1.580   0.409 -0.4306  2.4467 -2.2451
 7547TIP3   OH244055   0.134   5.961   4.759 -0.0370  0.4438  0.5499
 7547TIP3    H144056   0.103   5.875   4.730  0.4111  0.4805 -0.0445
 7547TIP3    H244057   0.193   5.941   4.832  1.9017  0.0682 -1.0777
 7548TIP3   OH244058   0.606   6.760  16.699  0.0449 -0.0801  0.3687
 7548TIP3    H144059   0.520   6.720  16.688  0.2883 -0.2021 -1.0477
 7548TIP3    H244060   0.667   6.701  16.655  0.6180  0.9382 -0.2201
 7549TIP3   OH244061   1.749   5.164  14.091 -0.8948  0.4264 -0.4236
 7549TIP3    H144062   1.660   5.196  14.109 -0.6502  1.0114 -0.2693
 7549TIP3    H244063   1.807   5.226  14.135 -0.4211 -0.2949 -0.0091
 7550TIP3   OH244064   3.673   2.197  14.902  0.9189 -0.2589 -0.2829
 7550TIP3    H144065   3.744   2.137  14.925  1.6997  0.9700  0.5400
 7550TIP3    H244066   3.618   2.201  14.981 -0.3300 -1.5417 -1.0570
 7551TIP3   OH244067   2.661   4.175  10.752 -0.3831 -0.1108  0.3939
 7551TIP3    H144068   2.727   4.243  10.738 -0.2833  0.0567  1.6180
 7551TIP3    H244069   2.710   4.103  10.792 -0.2316 -1.4204 -2.0132
 7552TIP3   OH244070   4.731   0.385  13.987 -0.5305 -0.3285 -0.3604
 7552TIP3    H144071   4.643   0.381  13.950 -0.7433  2.4827 -0.2257
 7552TIP3    H244072   4.779   0.444  13.929  1.0201 -1.1209  0.0860
 7553TIP3   OH244073   0.923   3.161   6.444  0.2007  0.0974 -0.0855
 7553TIP3    H144074   0.834   3.192   6.424  0.2073  0.8904  1.0792
 7553TIP3    H244075   0.965   3.235   6.489  1.0356 -0.7236  0.5006
 7554TIP3   OH244076   3.535   2.189  16.231 -0.1697  0.2762  0.1872
 7554TIP3    H144077   3.484   2.188  16.312 -0.4773 -2.0658 -0.0150
 7554TIP3    H244078   3.515   2.106  16.188  2.5608  0.0203 -0.6978
 7555TIP3   OH244079   5.412   3.715   2.427  0.3680 -0.5713 -0.1345
 7555TIP3    H144080   5.498   3.756   2.435 -0.3091  1.2007 -1.6377
 7555TIP3    H244081   5.354   3.771   2.479  0.1383 -1.8966  1.0754
 7556TIP3   OH244082   5.344   4.007  13.167  0.3241 -0.2604  0.1262
 7556TIP3    H144083   5.312   4.024  13.255  0.6366  1.1866 -0.0297
 7556TIP3    H244084   5.436   4.035  13.169  0.3765 -0.3640 -0.6089
 7557TIP3   OH244085   0.109   5.527  12.174 -0.3322  0.6364  0.1721
 7557TIP3    H144086   0.172   5.592  12.206 -0.1049  0.4299  0.1417
 7557TIP3    H244087   0.136   5.510  12.083 -0.2542  0.3293  0.2529
 7558TIP3   OH244088   3.324   4.780   6.442  0.2962  0.3871  0.0899
 7558TIP3    H144089   3.268   4.741   6.375  1.3526 -2.5233  0.8232
 7558TIP3    H244090   3.268   4.784   6.520  0.8217 -1.7387  0.5981
 7559TIP3   OH244091   2.715   3.193  11.143  0.0788  0.5140 -0.2666
 7559TIP3    H144092   2.669   3.187  11.227  0.1993  0.7505 -0.1844
 7559TIP3    H244093   2.681   3.120  11.092  0.4599 -0.0066  0.2129
 7560TIP3   OH244094   4.896   2.882  12.842 -0.2110  0.0994 -0.4641
 7560TIP3    H144095   4.946   2.827  12.781 -0.8660 -1.4579  0.3793
 7560TIP3    H244096   4.824   2.917  12.789 -0.6724 -1.1047 -0.6580
 7561TIP3   OH244097   1.832   5.949   3.523 -0.9302  0.7499  0.6395
 7561TIP3    H144098   1.882   5.962   3.603 -0.9154 -1.4590  0.9984
 7561TIP3    H244099   1.745   5.924   3.553 -1.2460  1.0422 -0.0252
 7562TIP3   OH244100   3.594   2.007   4.054  0.0586  0.2650 -0.0435
 7562TIP3    H144101   3.669   2.065   4.042  2.0538 -2.2308 -0.1177
 7562TIP3    H244102   3.600   1.945   3.981 -1.1573 -0.9110  0.8461
 7563TIP3   OH244103   0.727   0.874   4.263 -0.3327  0.0779  0.0081
 7563TIP3    H144104   0.812   0.831   4.258 -0.6396 -0.5472  0.0198
 7563TIP3    H244105   0.687   0.860   4.177 -0.2369  0.7705 -0.1527
 7564TIP3   OH244106   6.000   0.001   4.507  0.3222 -0.1016  0.9730
 7564TIP3    H144107   5.943   0.058   4.559  1.4850  2.0878 -0.0744
 7564TIP3    H244108   6.083   0.001   4.553  0.8882  0.5862 -0.0304
 7565TIP3   OH244109   2.950   0.707   1.345 -0.4216 -0.3263  0.0236
 7565TIP3    H144110   2.902   0.746   1.418  1.1948 -0.2535  1.0760
 7565TIP3    H244111   2.943   0.613   1.358 -0.0213 -0.3125  0.3741
 7566TIP3   OH244112   0.512   0.763  11.608 -0.7261 -0.3022 -0.2118
 7566TIP3    H144113   0.436   0.720  11.570  0.9526 -4.2504  0.6516
 7566TIP3    H244114   0.580   0.756  11.540 -0.2685  0.5660  0.1454
 7567TIP3   OH244115   1.892   6.631  13.404 -0.2375  0.4744 -0.3313
 7567TIP3    H144116   1.883   6.540  13.432  0.7822  0.4349 -0.1093
 7567TIP3    H244117   1.887   6.627  13.308  0.3456  0.1133 -0.3512
 7568TIP3   OH244118   5.859   5.458  12.236  0.1437 -0.0489  0.9120
 7568TIP3    H144119   5.830   5.549  12.226 -2.7603 -1.2094 -2.1070
 7568TIP3    H244120   5.786   5.414  12.279  0.4384 -1.4833 -0.0412
 7569TIP3   OH244121   6.414   0.861   3.816 -0.0718 -0.6659 -0.0836
 7569TIP3    H144122   6.406   0.864   3.911 -1.1897 -1.6537 -0.1395
 7569TIP3    H244123   6.507   0.839   3.801  0.1554 -0.3099  0.7641
 7570TIP3   OH244124   6.078   3.040   0.376 -0.0542 -0.2539 -0.1875
 7570TIP3    H144125   6.127   3.054   0.458 -0.8289  0.4692  0.1690
 7570TIP3    H244126   6.062   3.129   0.343  1.4189 -0.5744 -1.8498
 7571TIP3   OH244127   2.313   3.187  11.870 -0.4098 -0.7002  0.3435
 7571TIP3    H144128   2.252   3.124  11.833 -0.5395  0.2982 -1.1964
 7571TIP3    H244129   2.398   3.143  11.869 -0.2634 -0.4146 -1.9227
 7572TIP3   OH244130   4.722   2.030  15.324  0.1883  0.0207  0.0807
 7572TIP3    H144131   4.764   2.096  15.378  1.0250  0.5772 -1.2321
 7572TIP3    H244132   4.653   1.993  15.380  0.1118  1.5680  1.0253
 7573TIP3   OH244133   2.466   3.315   1.018 -0.6523  0.3794 -0.0782
 7573TIP3    H144134   2.476   3.240   0.960 -1.8454 -0.5548  0.9065
 7573TIP3    H244135   2.415   3.378   0.967 -1.2987 -0.2503 -0.2181
 7574TIP3   OH244136   6.672   3.221  13.603 -0.2683 -0.0331 -0.2172
 7574TIP3    H144137   6.762   3.206  13.632 -0.2816 -0.2596 -0.2882
 7574TIP3    H244138   6.674   3.308  13.562 -0.6986  1.1801  2.2416
 7575TIP3   OH244139   1.361   4.352  13.570  0.2090 -0.3754 -0.1670
 7575TIP3    H144140   1.321   4.289  13.631 -1.0182 -0.0555 -0.6262
 7575TIP3    H244141   1.359   4.308  13.485  1.4945 -0.6342 -0.0720
 7576TIP3   OH244142   6.006   3.249   1.902 -0.0204  0.0897 -0.3144
 7576TIP3    H144143   6.017   3.327   1.847  1.5762  0.7380  0.8814
 7576TIP3    H244144   6.051   3.271   1.984 -3.0166 -0.5797  1.5676
 7577TIP3   OH244145   6.678   0.681  12.606  0.2339 -0.1827  0.2728
 7577TIP3    H144146   6.617   0.620  12.647  0.6500 -1.1615 -0.5377
 7577TIP3    H244147   6.625   0.731  12.544 -0.3281  1.0621  1.7155
 7578TIP3   OH244148   2.419   5.456  17.237  0.2313  0.4928  0.4574
 7578TIP3    H144149   2.424   5.550  17.253  1.0861  0.4659  0.3281
 7578TIP3    H244150   2.503   5.421  17.266  0.7993  0.0830 -1.5575
 7579TIP3   OH244151   1.259   2.342  14.832  0.0112  0.2231  0.2330
 7579TIP3    H144152   1.191   2.338  14.765  1.6217  0.2885 -1.4307
 7579TIP3    H244153   1.211   2.350  14.914 -1.9400  2.0690 -1.0613
 7580TIP3   OH244154   6.750   0.744   1.438  0.0257 -0.2108  0.5642
 7580TIP3    H144155   6.827   0.714   1.390 -0.5185 -1.5428  0.4912
 7580TIP3    H244156   6.713   0.814   1.384  1.2164  0.4745  0.6385
 7581TIP3   OH244157   4.964   6.611  11.636  0.8082  0.0216 -0.5156
 7581TIP3    H144158   5.028   6.678  11.663 -0.6764  1.4347 -0.4222
 7581TIP3    H244159   4.907   6.657  11.574 -0.4532 -1.0708 -0.1693
 7582TIP3   OH244160   5.044   5.822   0.851  0.2638  0.1708  0.5925
 7582TIP3    H144161   5.046   5.911   0.885  1.4541  0.4189 -0.1196
 7582TIP3    H244162   5.081   5.828   0.763  1.6613 -1.2507  1.0595
 7583TIP3   OH244163   4.535   0.517  12.480 -0.1932 -0.3178 -0.1828
 7583TIP3    H144164   4.608   0.578  12.490  0.6215 -1.4058  0.7949
 7583TIP3    H244165   4.461   0.562  12.519 -0.2451  1.1074 -1.8564
 7584TIP3   OH244166   1.136   3.620  11.720 -0.1798  0.1273  0.3841
 7584TIP3    H144167   1.070   3.557  11.749 -0.2213 -0.9658 -1.9720
 7584TIP3    H244168   1.117   3.634  11.628  1.5289  1.5137  0.2128
 7585TIP3   OH244169   2.615   1.522  16.298 -0.4770  0.5483  0.4171
 7585TIP3    H144170   2.699   1.476  16.290 -0.2473  1.1250 -0.6631
 7585TIP3    H244171   2.623   1.571  16.379 -0.6031 -1.0574  1.4127
 7586TIP3   OH244172   6.142   3.440  11.753  0.3584  0.3218 -0.0149
 7586TIP3    H144173   6.108   3.504  11.690  1.0074  0.4992 -0.1814
 7586TIP3    H244174   6.208   3.488  11.803 -1.0147  0.5389  1.6323
 7587TIP3   OH244175   1.544   0.412   0.540 -0.6127  0.4267 -0.5381
 7587TIP3    H144176   1.452   0.419   0.565 -0.4324  2.3321 -0.3637
 7587TIP3    H244177   1.583   0.356   0.607 -1.3396  0.8421  0.2394
 7588TIP3   OH244178   6.733   2.908  12.385 -0.2639 -0.1241 -0.0072
 7588TIP3    H144179   6.670   2.880  12.320 -2.8056  3.1310  0.9375
 7588TIP3    H244180   6.782   2.978  12.343 -0.8585  0.9274  1.0187
 7589TIP3   OH244181   3.540   5.946  17.176  0.2056 -0.2328  0.2351
 7589TIP3    H144182   3.457   5.974  17.216 -1.1999 -1.7048 -1.5464
 7589TIP3    H244183   3.594   6.026  17.174 -1.5844  1.0157  0.4044
 7590TIP3   OH244184   4.028   6.405  16.441  0.2883 -0.3669 -0.3498
 7590TIP3    H144185   3.979   6.406  16.359 -0.8391 -1.3619  0.3001
 7590TIP3    H244186   4.101   6.346  16.425 -0.5193 -1.3903 -0.3146
 7591TIP3   OH244187   3.796   1.742   4.827  0.6810 -0.0037 -0.1201
 7591TIP3    H144188   3.756   1.829   4.831 -0.8419 -0.6369 -1.2099
 7591TIP3    H244189   3.883   1.758   4.790  0.7267  1.1519  0.4421
 7592TIP3   OH244190   3.512   2.226   4.239  0.6938 -0.2504  0.0767
 7592TIP3    H144191   3.538   2.158   4.177  0.7053 -0.1107 -0.0709
 7592TIP3    H244192   3.419   2.208   4.257 -0.2439  1.6963 -2.5453
 7593TIP3   OH244193   6.446   0.800  16.285  0.0273  0.2902 -0.7619
 7593TIP3    H144194   6.455   0.826  16.377 -1.5282  1.4359 -0.9187
 7593TIP3    H244195   6.510   0.855  16.239 -0.6990  1.2912 -0.6146
 7594TIP3   OH244196   6.787   2.065  14.204  0.0188  0.1168  0.1247
 7594TIP3    H144197   6.716   2.042  14.264  2.1397  0.0372  2.6887
 7594TIP3    H244198   6.761   2.150  14.168 -2.0120 -0.5376 -0.0073
 7595TIP3   OH244199   1.686   5.494   1.786  0.2581  0.2079  0.1669
 7595TIP3    H144200   1.594   5.468   1.792  0.1141  1.0327  1.9783
 7595TIP3    H244201   1.704   5.496   1.693 -1.9211  1.2406 -0.2777
 7596TIP3   OH244202   2.150   6.014   1.087 -0.5676 -0.4815 -0.1037
 7596TIP3    H144203   2.102   6.095   1.074  1.8540  1.0585  0.3906
 7596TIP3    H244204   2.157   5.976   0.999 -1.7921 -0.2314 -0.3182
 7597TIP3   OH244205   5.725   6.200   4.304  0.7692  0.6082 -0.5975
 7597TIP3    H144206   5.632   6.196   4.283  0.6365 -1.1320  0.1905
 7597TIP3    H244207   5.762   6.259   4.238 -0.8732  1.2649 -0.9555
 7598TIP3   OH244208   0.979   2.034  10.523  0.2885 -0.4541 -0.3481
 7598TIP3    H144209   0.988   1.952  10.474  0.1652 -1.0865  0.6706
 7598TIP3    H244210   0.895   2.071  10.494  0.2747 -0.7665 -0.7030
 7599TIP3   OH244211   5.808   5.421  11.932 -0.1255  0.2142  0.0025
 7599TIP3    H144212   5.726   5.371  11.930 -1.1947  1.8818  0.4332
 7599TIP3    H244213   5.840   5.410  12.022  0.7580 -1.4040 -0.4983
 7600TIP3   OH244214   3.796   1.542   2.345  0.6426  0.4201 -0.4534
 7600TIP3    H144215   3.891   1.551   2.331  0.7595 -1.0338 -0.7268
 7600TIP3    H244216   3.776   1.455   2.310 -0.7329  0.5800 -0.0598
 7601TIP3   OH244217   6.177   6.251   0.798  0.6971  0.4579 -0.5273
 7601TIP3    H144218   6.119   6.321   0.769  0.4116  0.6844  0.5681
 7601TIP3    H244219   6.129   6.207   0.868  2.1721  1.2189  1.0368
 7602TIP3   OH244220   0.684   1.189  11.280  0.5978 -0.4236  0.7401
 7602TIP3    H144221   0.624   1.263  11.287  0.8052 -0.2642  0.8647
 7602TIP3    H244222   0.631   1.118  11.246  0.7087  0.1522 -0.6564
 7603TIP3   OH244223   4.780   3.348   4.679  0.5580 -0.2625 -0.1115
 7603TIP3    H144224   4.709   3.410   4.698  0.7289 -0.4760  1.2833
 7603TIP3    H244225   4.742   3.262   4.697  0.8403 -0.4488 -0.4080
 7604TIP3   OH244226   0.222   6.516  12.608  0.6290  0.0925  0.7362
 7604TIP3    H144227   0.274   6.478  12.537  0.3346 -1.0966  1.1370
 7604TIP3    H244228   0.133   6.486  12.590 -0.3722  3.8974 -1.1903
 7605TIP3   OH244229   5.301   1.315   4.174 -0.2659 -0.3235 -0.4872
 7605TIP3    H144230   5.347   1.231   4.178 -1.2330 -0.8658 -0.3946
 7605TIP3    H244231   5.297   1.344   4.265 -0.0740 -0.2552 -0.5001
 7606TIP3   OH244232   1.533   2.693  16.514 -0.4890 -0.0065  1.1363
 7606TIP3    H144233   1.473   2.658  16.447 -1.1970 -1.6111  2.5756
 7606TIP3    H244234   1.616   2.649  16.497 -0.1345  1.0261  0.1346
 7607TIP3   OH244235   1.250   1.567  13.849  0.2197 -0.7261  0.1217
 7607TIP3    H144236   1.292   1.486  13.875  0.4347 -0.7148 -0.1815
 7607TIP3    H244237   1.248   1.564  13.753 -0.2779 -0.6288  0.1228
 7608TIP3   OH244238   5.504   3.328   4.933  0.0684 -0.1480  0.2635
 7608TIP3    H144239   5.471   3.393   4.871 -0.3185 -1.1090 -0.5475
 7608TIP3    H244240   5.447   3.252   4.920  1.5330 -1.2176  0.0812
 7609TIP3   OH244241   5.258   1.888  15.741  0.2202  0.1340  0.0416
 7609TIP3    H144242   5.271   1.912  15.650  1.1014  1.9500  0.6198
 7609TIP3    H244243   5.186   1.824  15.740 -1.0828  1.5828 -1.7288
 7610TIP3   OH244244   4.809   5.145  14.469  0.2060 -0.2435  0.3313
 7610TIP3    H144245   4.902   5.145  14.493  0.6082  0.2852 -1.1071
 7610TIP3    H244246   4.810   5.163  14.375 -1.4110  0.8609  0.5148
 7611TIP3   OH244247   1.460   1.590   1.666 -0.7885 -0.0293  0.1285
 7611TIP3    H144248   1.376   1.546   1.657 -0.4993 -0.9431  1.7530
 7611TIP3    H244249   1.445   1.678   1.632 -2.3050 -0.2942  0.0840
 7612TIP3   OH244250   4.007   2.478   1.334  0.0139  0.2585 -0.0161
 7612TIP3    H144251   3.961   2.484   1.250 -0.0979 -0.9923 -0.0470
 7612TIP3    H244252   3.938   2.465   1.399  0.1052  1.1647  0.2780
 7613TIP3   OH244253   2.157   6.299  13.655  0.0205  0.3922  0.0562
 7613TIP3    H144254   2.183   6.380  13.697 -0.1155 -0.1535  1.2050
 7613TIP3    H244255   2.192   6.305  13.566  0.9839  1.2075  0.4933
 7614TIP3   OH244256   0.339   3.866  15.120  0.5032  0.1130  0.2198
 7614TIP3    H144257   0.337   3.773  15.100  1.7745 -0.1633  1.3048
 7614TIP3    H244258   0.384   3.906  15.045 -0.1976 -0.1170 -0.3264
 7615TIP3   OH244259   6.283   6.162   6.428  0.3090  0.0052  0.2402
 7615TIP3    H144260   6.244   6.119   6.352 -0.5500  0.5384  0.3705
 7615TIP3    H244261   6.375   6.173   6.405  0.3656 -1.1934 -0.1063
 7616TIP3   OH244262   1.221   0.308  17.096  0.3556 -0.5909 -0.1942
 7616TIP3    H144263   1.302   0.324  17.047  0.3167 -0.7818 -0.3213
 7616TIP3    H244264   1.219   0.213  17.108 -0.2944 -0.6761 -0.9671
 7617TIP3   OH244265   5.379   0.337   5.408  0.2836 -0.2614  0.1952
 7617TIP3    H144266   5.430   0.408   5.368  0.0801 -0.0483  0.3125
 7617TIP3    H244267   5.319   0.382   5.467 -0.5100 -0.4668 -0.4558
 7618TIP3   OH244268   2.473   2.869   0.515 -0.0923  0.4207 -0.3975
 7618TIP3    H144269   2.567   2.873   0.497  0.0588 -1.9604 -0.2229
 7618TIP3    H244270   2.452   2.957   0.544  2.0728  1.0221 -0.4960
 7619TIP3   OH244271   4.590   4.688   3.340 -0.0219  0.4474 -0.4713
 7619TIP3    H144272   4.627   4.727   3.419  0.5078  0.6435 -0.8148
 7619TIP3    H244273   4.650   4.713   3.270 -0.4608  0.2344 -0.9317
 7620TIP3   OH244274   0.264   5.951  12.960  0.6699 -0.0264 -0.0552
 7620TIP3    H144275   0.205   5.909  12.898  1.6874 -1.5271 -0.0084
 7620TIP3    H244276   0.205   6.001  13.017 -0.5119 -1.0470 -0.3435
 7621TIP3   OH244277   2.001   2.711   2.730  0.0725  0.3265 -0.0822
 7621TIP3    H144278   2.097   2.715   2.729  0.0486  1.4495  0.8627
 7621TIP3    H244279   1.974   2.801   2.749 -1.1460 -0.1427  0.4350
 7622TIP3   OH244280   1.093   0.674  14.307  0.1515  0.5916 -0.2013
 7622TIP3    H144281   1.118   0.693  14.397 -0.1972 -2.8008  0.6743
 7622TIP3    H244282   0.999   0.693  14.304  0.5962  2.8739 -0.5098
 7623TIP3   OH244283   5.617   0.719  16.028  0.4755  0.0505  0.0454
 7623TIP3    H144284   5.698   0.683  15.994  0.1106 -0.2887 -0.4785
 7623TIP3    H244285   5.572   0.755  15.952  0.0298  0.0171  0.2872
 7624TIP3   OH244286   4.468   2.557  14.073  0.8761  0.0757  0.0376
 7624TIP3    H144287   4.451   2.647  14.103  0.0087 -0.1311  0.1683
 7624TIP3    H244288   4.387   2.510  14.091  1.5276 -0.8858  0.5295
 7625TIP3   OH244289   6.558   0.257   0.353  0.3117 -0.5146  0.0401
 7625TIP3    H144290   6.620   0.192   0.388 -0.6092 -1.4680 -0.0637
 7625TIP3    H244291   6.595   0.281   0.268  0.7021 -0.8449  0.1105
 7626TIP3   OH244292   5.147   6.166  15.414  0.2152  0.1569  0.0547
 7626TIP3    H144293   5.079   6.122  15.364 -0.4915  1.4455 -0.1416
 7626TIP3    H244294   5.154   6.253  15.374  2.0998 -0.0253 -0.0384
 7627TIP3   OH244295   4.374   0.131   4.391  0.5200 -0.1944  0.1013
 7627TIP3    H144296   4.467   0.133   4.414  0.2792 -2.3651  1.3245
 7627TIP3    H244297   4.372   0.092   4.304  0.6454 -1.7453  0.7798
 7628TIP3   OH244298   1.005   2.998   6.679 -0.2454  0.0322  0.4643
 7628TIP3    H144299   0.961   3.053   6.614 -1.6629 -2.0486 -0.3952
 7628TIP3    H244300   1.088   2.973   6.637  0.2435  1.1626  0.7162
 7629TIP3   OH244301   2.443   2.054  15.029  0.3232  0.1351  0.1893
 7629TIP3    H144302   2.359   2.088  15.058 -1.2425 -2.8366 -0.7538
 7629TIP3    H244303   2.485   2.021  15.108 -0.6999 -1.1085  0.2182
 7630TIP3   OH244304   0.011   4.736  12.237  0.2246 -0.0264  0.8067
 7630TIP3    H144305   0.048   4.821  12.260  0.3462  0.4057 -0.9378
 7630TIP3    H244306   0.014   4.734  12.142 -1.4513 -1.2390  0.7667
 7631TIP3   OH244307   4.376   4.350   5.392  0.3448 -0.2851  0.2293
 7631TIP3    H144308   4.453   4.399   5.363 -1.0582  1.3716 -0.7620
 7631TIP3    H244309   4.333   4.408   5.455 -0.2091 -1.1165  0.6297
 7632TIP3   OH244310   4.158   4.176  13.452 -0.5517  0.4326 -0.0770
 7632TIP3    H144311   4.095   4.120  13.497 -1.3123  0.7833 -0.6978
 7632TIP3    H244312   4.198   4.119  13.386  0.5788 -0.0871  1.0400
 7633TIP3   OH244313   6.417   0.350  13.945 -0.2551  0.0637  0.0993
 7633TIP3    H144314   6.476   0.423  13.929 -1.4631  1.1371  0.4376
 7633TIP3    H244315   6.418   0.299  13.863  0.4095  0.5871 -0.2192
 7634TIP3   OH244316   3.751   6.254   5.919  0.4660  0.1368 -0.2103
 7634TIP3    H144317   3.719   6.171   5.957  2.3833 -0.2044  0.6931
 7634TIP3    H244318   3.681   6.317   5.938 -0.2661 -0.8888  0.5722
 7635TIP3   OH244319   0.565   2.532   5.186 -0.5911  0.1333  0.2123
 7635TIP3    H144320   0.492   2.570   5.136 -1.5105 -0.0170  1.4091
 7635TIP3    H244321   0.629   2.508   5.120 -0.5287  2.6039 -0.6789
 7636TIP3   OH244322   0.984   5.119   6.326 -0.0409 -0.3460 -0.1956
 7636TIP3    H144323   0.945   5.071   6.399  0.2826 -1.0800 -0.5096
 7636TIP3    H244324   1.074   5.135   6.353 -0.1567  0.1268 -0.0752
 7637TIP3   OH244325   2.966   4.251   4.017  0.1111  0.2338 -0.0902
 7637TIP3    H144326   3.026   4.313   3.976  1.6385 -1.0948  0.1343
 7637TIP3    H244327   3.004   4.233   4.103 -0.2698 -1.0781 -0.1837
 7638TIP3   OH244328   3.507   0.439  12.183  0.6401 -0.0409  0.0477
 7638TIP3    H144329   3.508   0.532  12.160  1.5496 -0.1164 -0.2259
 7638TIP3    H244330   3.600   0.414  12.187  0.5160 -0.2302  2.9553
 7639TIP3   OH244331   5.615   5.363  11.244 -0.4483  0.3898 -0.9356
 7639TIP3    H144332   5.629   5.457  11.229 -0.2624  0.3951 -0.7377
 7639TIP3    H244333   5.685   5.338  11.304 -1.0135  0.3180 -0.2850
 7640TIP3   OH244334   1.462   6.275  15.174  0.0257  0.3601 -0.4388
 7640TIP3    H144335   1.500   6.360  15.198  1.4125 -0.7312  1.3661
 7640TIP3    H244336   1.530   6.211  15.197 -1.1763 -1.2934 -1.3452
 7641TIP3   OH244337   0.443   1.016  13.084 -0.0802  1.1061 -0.0647
 7641TIP3    H144338   0.458   1.015  12.990  0.1564  1.1100 -0.0291
 7641TIP3    H244339   0.529   0.997  13.122 -0.1351  1.2814  0.1526
 7642TIP3   OH244340   1.014   2.989   3.101  0.4539 -1.0976 -0.2016
 7642TIP3    H144341   0.989   2.966   3.191  1.5763 -0.6747  0.2185
 7642TIP3    H244342   0.933   3.022   3.062 -0.1086 -1.5524  0.5706
 7643TIP3   OH244343   2.858   1.519  15.308  0.1962  0.6135 -0.4111
 7643TIP3    H144344   2.791   1.502  15.374  2.5568 -0.6075  1.7906
 7643TIP3    H244345   2.842   1.453  15.240 -1.7865  1.3826 -0.7175
 7644TIP3   OH244346   5.072   0.872  10.845 -0.4917  0.0743  0.1092
 7644TIP3    H144347   5.055   0.926  10.921  2.0436  1.1390 -0.0182
 7644TIP3    H244348   5.016   0.908  10.776  0.6012  2.0789  0.2401
 7645TIP3   OH244349   1.550   5.820   3.172 -0.6219  0.4332  0.2002
 7645TIP3    H144350   1.613   5.892   3.167  0.5460 -0.4781  1.4708
 7645TIP3    H244351   1.477   5.855   3.224  0.0214  0.6428  0.9614
 7646TIP3   OH244352   2.837   1.828  10.485 -0.2144  0.4230 -0.0923
 7646TIP3    H144353   2.878   1.741  10.480  2.1636  1.6071 -2.3500
 7646TIP3    H244354   2.896   1.878  10.541 -3.0164 -0.0771  3.5148
 7647TIP3   OH244355   1.621   5.173  14.527  0.2957 -0.0051 -0.1130
 7647TIP3    H144356   1.581   5.259  14.541  0.4736  0.2319 -1.0729
 7647TIP3    H244357   1.580   5.140  14.448  0.4096 -0.7067  0.1159
 7648TIP3   OH244358   6.157   4.645  10.948 -0.0755 -0.1713 -0.0082
 7648TIP3    H144359   6.207   4.666  11.026 -0.2548  2.6074 -0.5999
 7648TIP3    H244360   6.080   4.597  10.980  0.2399  0.2754  1.4201
 7649TIP3   OH244361   3.834   5.184   0.966  0.6499 -0.3104 -0.3312
 7649TIP3    H144362   3.929   5.178   0.977  0.7974 -0.7408 -1.7325
 7649TIP3    H244363   3.820   5.164   0.874 -0.7892 -0.0243 -0.1757
 7650TIP3   OH244364   3.597   6.535  16.182 -0.6470  0.1436 -0.0012
 7650TIP3    H144365   3.626   6.457  16.135 -1.1746  1.2414 -2.1705
 7650TIP3    H244366   3.600   6.606  16.118 -2.6549  1.4078  1.2350
 7651TIP3   OH244367   6.657   3.780  17.040 -0.4101 -0.1003 -0.2794
 7651TIP3    H144368   6.618   3.775  17.128 -2.0763  0.3686 -0.9780
 7651TIP3    H244369   6.709   3.860  17.042  0.5002 -0.7000  0.6497
 7652TIP3   OH244370   3.816   2.283  15.905  0.0426 -0.2078  0.0106
 7652TIP3    H144371   3.813   2.250  15.815  1.1759 -1.4146  0.3911
 7652TIP3    H244372   3.807   2.378  15.896 -2.7423 -0.5224 -1.1489
 7653TIP3   OH244373   5.425   5.761  17.081  0.2089  0.5690 -0.2561
 7653TIP3    H144374   5.418   5.803  17.166  0.8642 -1.1480  0.6729
 7653TIP3    H244375   5.446   5.670  17.101  0.5790  0.1927 -2.2591
 7654TIP3   OH244376   0.119   4.117  13.564  0.3592  0.7554 -0.0913
 7654TIP3    H144377   0.158   4.156  13.642  1.2317 -1.8506  0.8022
 7654TIP3    H244378   0.028   4.147  13.565  0.7689  1.9955  1.0531
 7655TIP3   OH244379   2.027   1.435   4.819 -0.1391 -0.1878  0.1627
 7655TIP3    H144380   2.015   1.348   4.857 -1.6110  0.5927  1.5183
 7655TIP3    H244381   2.001   1.426   4.727  1.4671 -1.5959 -0.1718
 7656TIP3   OH244382   4.894   3.941  17.077  0.3358 -0.1142  1.1420
 7656TIP3    H144383   4.952   3.880  17.122  3.2049  0.2393 -1.9164
 7656TIP3    H244384   4.836   3.885  17.026  1.4908 -0.3701  0.0911
 7657TIP3   OH244385   4.202   3.311  11.575  0.1226  0.0636 -0.3700
 7657TIP3    H144386   4.171   3.290  11.487 -0.5717  0.9937 -0.3615
 7657TIP3    H244387   4.291   3.344  11.562  0.0427  0.1445 -0.7215
 7658TIP3   OH244388   2.027   2.692   2.153 -0.4831  0.4633  0.2075
 7658TIP3    H144389   2.048   2.657   2.240 -3.0434 -0.9486  0.3012
 7658TIP3    H244390   2.112   2.709   2.113  0.7288  1.0091  2.9308
 7659TIP3   OH244391   4.901   6.336  16.159  0.2962  0.1333 -0.0886
 7659TIP3    H144392   4.953   6.374  16.088 -0.8197  0.6695 -0.6402
 7659TIP3    H244393   4.951   6.356  16.239  0.5487  1.3380 -0.5342
 7660TIP3   OH244394   5.253   4.454   3.654  0.2075 -0.1287 -0.2211
 7660TIP3    H144395   5.241   4.548   3.668 -2.0910  0.4322 -4.8875
 7660TIP3    H244396   5.193   4.413   3.716 -0.2416  1.5565  0.5015
 7661TIP3   OH244397   4.295   1.199  14.904  0.0382 -0.0923 -0.4550
 7661TIP3    H144398   4.284   1.255  14.828  0.5446 -0.6771 -0.9650
 7661TIP3    H244399   4.358   1.133  14.876  0.4383 -0.1473  0.5569
 7662TIP3   OH244400   6.725   4.436   5.994 -0.0865  1.0472  0.4451
 7662TIP3    H144401   6.698   4.349   6.021  0.0281  0.5500 -0.9670
 7662TIP3    H244402   6.820   4.437   6.009  0.3023  0.0669 -1.7298
 7663TIP3   OH244403   1.477   4.737  11.976  0.0833 -0.4703 -0.3430
 7663TIP3    H144404   1.481   4.774  11.888  0.0380 -0.7193 -0.4516
 7663TIP3    H244405   1.384   4.722  11.992  0.2044 -1.8107 -0.8422
 7664TIP3   OH244406   0.547   4.927  16.719 -0.4185  0.0801  0.3636
 7664TIP3    H144407   0.632   4.895  16.750 -0.8455 -1.9244 -0.4692
 7664TIP3    H244408   0.566   4.971  16.636 -0.3805 -2.0035 -0.7898
 7665TIP3   OH244409   4.091   2.328  13.345 -0.7186 -0.1866  0.4304
 7665TIP3    H144410   4.154   2.342  13.415 -0.8939  0.5917  0.4406
 7665TIP3    H244411   4.033   2.404  13.350 -1.3903 -0.6763  0.1409
 7666TIP3   OH244412   1.772   1.167  13.159 -0.1236 -0.0694 -0.0748
 7666TIP3    H144413   1.728   1.125  13.232 -0.2738  3.0569  1.7025
 7666TIP3    H244414   1.863   1.178  13.188  0.1833 -0.1835 -0.9649
 7667TIP3   OH244415   4.421   5.702   0.918 -0.1457  0.1183  0.0396
 7667TIP3    H144416   4.353   5.677   0.981 -0.4362 -0.4634 -0.5060
 7667TIP3    H244417   4.502   5.664   0.953 -0.0231  1.1253  0.8869
 7668TIP3   OH244418   4.110   2.725  12.234  0.7245  0.1071 -0.2493
 7668TIP3    H144419   4.069   2.780  12.301  0.1472 -0.7245  0.0792
 7668TIP3    H244420   4.133   2.787  12.164 -1.6932  0.5154 -0.7379
 7669TIP3   OH244421   5.556   4.459   6.542 -0.2155 -0.1675  0.0960
 7669TIP3    H144422   5.530   4.541   6.500 -1.8519 -0.5717  0.3041
 7669TIP3    H244423   5.639   4.479   6.584 -0.0865  1.0931 -0.7458
 7670TIP3   OH244424   3.007   6.386  13.631  0.2701 -0.1902  0.2642
 7670TIP3    H144425   3.043   6.303  13.663  0.4109  0.0802  0.8136
 7670TIP3    H244426   2.915   6.367  13.615  0.0793 -0.2043  1.3061
 7671TIP3   OH244427   5.791   6.275   5.743 -0.4891  0.6893 -0.1279
 7671TIP3    H144428   5.760   6.223   5.817  0.6460 -0.0558 -0.1625
 7671TIP3    H244429   5.729   6.257   5.673 -1.2567  0.9685  0.4730
 7672TIP3   OH244430   0.234   4.825  14.974  0.1342 -0.7554  0.4483
 7672TIP3    H144431   0.222   4.755  15.039 -1.8557 -0.9809 -0.1347
 7672TIP3    H244432   0.167   4.890  14.996  0.3561 -0.1857 -0.5238
 7673TIP3   OH244433   6.045   6.136  16.689  0.0530  0.0508  0.1293
 7673TIP3    H144434   5.960   6.146  16.732  0.4545 -1.4494  1.2948
 7673TIP3    H244435   6.109   6.161  16.756  0.5695  0.4601 -0.5054
 7674TIP3   OH244436   6.122   1.249  13.402 -0.6230  0.0901  0.0755
 7674TIP3    H144437   6.211   1.267  13.374 -0.6918 -0.7936 -0.7550
 7674TIP3    H244438   6.131   1.175  13.463 -0.6498  0.8959  1.0631
 7675TIP3   OH244439   2.988   2.441   3.404  0.6481 -0.7237  0.1842
 7675TIP3    H144440   2.903   2.419   3.366 -0.2428 -0.2636  1.8772
 7675TIP3    H244441   2.968   2.506   3.472  2.5639  0.7517 -0.6325
 7676TIP3   OH244442   2.379   0.950  12.830  0.1272  0.3000 -0.0320
 7676TIP3    H144443   2.370   0.919  12.740  0.0963  1.1424 -0.3256
 7676TIP3    H244444   2.472   0.939  12.850  0.5022  1.8313 -0.8230
 7677TIP3   OH244445   3.637   2.712   0.369 -0.2554  0.6585  0.0134
 7677TIP3    H144446   3.574   2.677   0.307  0.8387 -2.7259  0.6823
 7677TIP3    H244447   3.715   2.658   0.357  0.8537  1.6023  2.5411
 7678TIP3   OH244448   0.985   6.774   2.626 -0.6288  0.1504 -0.5093
 7678TIP3    H144449   1.006   6.779   2.719 -1.2042  0.0632 -0.3735
 7678TIP3    H244450   1.045   6.708   2.591 -0.2645  0.3440 -0.2427
 7679TIP3   OH244451   4.555   4.974   6.075 -0.6460 -0.3694  0.0571
 7679TIP3    H144452   4.466   4.940   6.087 -0.8617 -1.1300 -3.3564
 7679TIP3    H244453   4.549   5.035   6.002  1.9036 -1.6849 -1.3373
 7680TIP3   OH244454   4.803   0.357   1.230 -0.2629 -0.3689  0.0319
 7680TIP3    H144455   4.802   0.447   1.263  2.0085  1.2557 -3.9629
 7680TIP3    H244456   4.796   0.366   1.135  0.6836 -4.3891 -0.5172
 7681TIP3   OH244457   0.649   2.117   6.490  0.2979  0.1082  0.8584
 7681TIP3    H144458   0.730   2.140   6.534 -0.3755  1.1762  1.5620
 7681TIP3    H244459   0.637   2.024   6.508  1.5019 -0.1260  0.5141
 7682TIP3   OH244460   5.064   1.576   5.857  0.3192  0.8684  0.2688
 7682TIP3    H144461   5.083   1.670   5.853 -0.7790  1.1898  2.1412
 7682TIP3    H244462   4.984   1.566   5.805  0.1807  1.0606  0.4396
 7683TIP3   OH244463   3.941   2.790  13.515  0.3402 -0.3609 -0.4648
 7683TIP3    H144464   3.963   2.836  13.597  1.7428  0.6881 -1.3979
 7683TIP3    H244465   3.869   2.731  13.539 -0.8647  1.6400  0.9834
 7684TIP3   OH244466   0.947   3.895   4.338 -0.3272  0.3950  0.5677
 7684TIP3    H144467   0.958   3.921   4.246 -0.6265  2.4885  1.0976
 7684TIP3    H244468   0.924   3.802   4.334  0.5516  0.2375 -1.4278
 7685TIP3   OH244469   0.587   5.121  16.986 -0.1764  0.0792 -0.3508
 7685TIP3    H144470   0.631   5.093  16.906  0.4421  0.6688 -0.2199
 7685TIP3    H244471   0.622   5.209  17.003 -0.4120  0.0132  0.4795
 7686TIP3   OH244472   6.190   1.929  11.475 -0.1651 -0.0778  0.4965
 7686TIP3    H144473   6.282   1.942  11.498  0.4267 -0.9593 -1.3402
 7686TIP3    H244474   6.157   1.872  11.544  0.9493 -0.6672  0.5586
 7687TIP3   OH244475   5.822   4.049  13.443  0.1056  0.0559  0.3629
 7687TIP3    H144476   5.890   3.983  13.459 -1.1678 -1.0665  1.2354
 7687TIP3    H244477   5.869   4.121  13.399  1.8075 -0.7817  0.7480
 7688TIP3   OH244478   2.363   4.040   1.597 -0.2602  0.0652 -0.2838
 7688TIP3    H144479   2.429   4.058   1.665 -1.8646  2.4408  0.7410
 7688TIP3    H244480   2.280   4.057   1.641 -1.3606  0.8698 -2.6214
 7689TIP3   OH244481   6.306   5.234   4.924  0.8271 -0.0674 -0.4739
 7689TIP3    H144482   6.246   5.308   4.917  0.3973 -0.5084 -1.6392
 7689TIP3    H244483   6.251   5.161   4.952  1.0644 -0.1718 -0.2759
 7690TIP3   OH244484   3.602   2.177  11.633  0.0706 -0.2208 -0.2746
 7690TIP3    H144485   3.644   2.236  11.571 -2.3532  1.7250 -0.1653
 7690TIP3    H244486   3.658   2.100  11.636  2.2892  1.2843 -1.9001
 7691TIP3   OH244487   0.563   6.510  17.042 -0.1743  0.8220  0.0236
 7691TIP3    H144488   0.653   6.541  17.030  0.8132 -1.9126 -0.0433
 7691TIP3    H244489   0.527   6.509  16.953  0.0373  1.0781 -0.0647
 7692TIP3   OH244490   0.473   3.130   3.162  0.3514  0.2658  0.0160
 7692TIP3    H144491   0.508   3.048   3.199 -0.3147 -1.0022 -2.0765
 7692TIP3    H244492   0.395   3.148   3.214 -0.4579 -1.3738 -0.5911
 7693TIP3   OH244493   5.729   3.542   1.017  0.3717 -0.0820 -0.2973
 7693TIP3    H144494   5.642   3.582   1.008 -0.0506 -1.2718 -1.6306
 7693TIP3    H244495   5.790   3.616   1.014 -0.6192  0.8601  1.5079
 7694TIP3   OH244496   1.580   0.132   2.994  0.2474  0.1549  0.0192
 7694TIP3    H144497   1.553   0.185   3.069  1.6690  0.0275  0.6415
 7694TIP3    H244498   1.667   0.165   2.972  0.4381 -0.7884 -0.6632
 7695TIP3   OH244499   0.416   3.645   1.147 -0.9623 -0.2083 -0.4642
 7695TIP3    H144500   0.476   3.712   1.181 -0.7431 -0.8699  0.4913
 7695TIP3    H244501   0.467   3.563   1.151 -2.0994 -0.8698  0.8523
 7696TIP3   OH244502   2.085   0.662   4.875 -0.3784  0.2445 -1.0685
 7696TIP3    H144503   2.069   0.726   4.944  0.6630  0.6641 -1.2086
 7696TIP3    H244504   2.065   0.577   4.916 -0.5562  0.5593 -0.5003
 7697TIP3   OH244505   1.946   4.578  14.699  0.3874  0.1348  0.5476
 7697TIP3    H144506   1.882   4.577  14.770 -1.5680 -0.4700 -1.2024
 7697TIP3    H244507   1.985   4.490  14.701 -1.7228 -0.8615 -0.9430
 7698TIP3   OH244508   6.624   2.298   3.505 -0.1797 -0.6111 -0.4754
 7698TIP3    H144509   6.567   2.259   3.571  0.8409  0.4644  1.0783
 7698TIP3    H244510   6.700   2.240   3.502  0.5088  0.2246  0.4997
 7699TIP3   OH244511   5.085   4.422  11.588 -0.2498  0.8345 -0.1723
 7699TIP3    H144512   5.143   4.369  11.534  0.8813  1.4469  0.4246
 7699TIP3    H244513   5.115   4.512  11.575  0.1533  0.9747  1.5796
 7700TIP3   OH244514   3.036   4.062   6.248 -0.0546 -0.5859 -0.1385
 7700TIP3    H144515   3.056   4.100   6.163 -1.0201  0.8930  0.2720
 7700TIP3    H244516   2.952   4.017   6.236  0.2113 -1.0815 -0.1697
 7701TIP3   OH244517   0.156   0.153   1.902 -0.0955 -0.1534 -0.5290
 7701TIP3    H144518   0.198   0.239   1.911  0.3168 -0.3084 -0.9723
 7701TIP3    H244519   0.160   0.116   1.990 -1.4993  0.8418 -0.0236
 7702TIP3   OH244520   0.688   3.933  10.555  0.1935 -0.0092  0.1079
 7702TIP3    H144521   0.756   3.969  10.498  0.2981  0.9045  0.8015
 7702TIP3    H244522   0.665   3.849  10.514  0.7892  0.2868 -0.8653
 7703TIP3   OH244523   2.513   4.038  15.678  0.3821 -0.5673  0.3575
 7703TIP3    H144524   2.424   4.071  15.669  1.0410  0.7597 -1.7766
 7703TIP3    H244525   2.567   4.117  15.680  1.4701 -1.3413  2.1933
 7704TIP3   OH244526   6.583   0.834   3.531 -0.3347  0.4536  0.8792
 7704TIP3    H144527   6.525   0.849   3.456  0.3610 -0.8847  0.0449
 7704TIP3    H244528   6.562   0.746   3.560 -0.1047  0.7060  1.8264
 7705TIP3   OH244529   5.825   1.814  13.815  0.1353 -0.5848 -0.0692
 7705TIP3    H144530   5.731   1.828  13.819  0.3548  0.7278  0.4824
 7705TIP3    H244531   5.859   1.888  13.765  0.9533 -0.6884  0.3188
 7706TIP3   OH244532   3.392   5.122   6.005 -0.0253  0.0815 -0.4326
 7706TIP3    H144533   3.383   5.082   6.091  0.0217  1.5979  0.3088
 7706TIP3    H244534   3.486   5.119   5.986  0.3769  2.4507  0.9549
 7707TIP3   OH244535   4.668   5.951   3.743 -0.6476  0.0301 -0.2960
 7707TIP3    H144536   4.735   5.921   3.804 -1.4203 -0.6492  0.2384
 7707TIP3    H244537   4.716   5.999   3.676  0.2534  0.5107  0.6705
 7708TIP3   OH244538   4.512   3.983  16.129  0.4656 -0.0600 -0.3443
 7708TIP3    H144539   4.535   3.901  16.084 -1.1214 -0.8303  0.2052
 7708TIP3    H244540   4.417   3.977  16.143  0.3838  1.7503 -0.0396
 7709TIP3   OH244541   3.287   1.249   1.948  0.5024  0.6973 -0.4563
 7709TIP3    H144542   3.253   1.188   1.882  1.8501 -1.3079  0.6408
 7709TIP3    H244543   3.325   1.321   1.897  1.6288 -0.8711 -1.9002
 7710TIP3   OH244544   2.462   2.725   1.509  0.1411  0.1605  0.1009
 7710TIP3    H144545   2.437   2.714   1.417 -0.5478  0.1755  0.2835
 7710TIP3    H244546   2.543   2.676   1.518 -0.3841 -0.7767 -0.2459
 7711TIP3   OH244547   3.835   0.585   5.598  0.1876 -0.1352 -0.3309
 7711TIP3    H144548   3.828   0.492   5.618  2.2328 -0.0999  0.6941
 7711TIP3    H244549   3.803   0.629   5.677  2.4666  0.0076  0.5456
 7712TIP3   OH244550   3.858   5.732  15.002 -0.2986 -0.0139  0.7899
 7712TIP3    H144551   3.841   5.682  15.082 -2.2684  0.3709  0.6462
 7712TIP3    H244552   3.804   5.811  15.012 -1.1246 -0.3012 -1.2263
 7713TIP3   OH244553   2.396   1.853  11.165 -0.3007  0.8192 -0.0664
 7713TIP3    H144554   2.321   1.890  11.212 -1.3601 -0.9589 -0.3138
 7713TIP3    H244555   2.406   1.910  11.089 -1.3263  1.1709  0.0486
 7714TIP3   OH244556   2.884   0.309   2.534  0.6825 -0.0511  0.2609
 7714TIP3    H144557   2.902   0.229   2.583  1.8399 -0.4202 -0.7787
 7714TIP3    H244558   2.852   0.280   2.449 -2.0735  0.5941  1.0065
 7715TIP3   OH244559   6.392   3.214  14.642  0.2868  1.2463 -0.1218
 7715TIP3    H144560   6.425   3.209  14.552  0.7054  1.6466  0.0051
 7715TIP3    H244561   6.313   3.160  14.642  1.8143 -1.0423 -0.0454
 7716TIP3   OH244562   3.852   1.844  15.154 -0.1652  0.8404  0.8529
 7716TIP3    H144563   3.778   1.899  15.177 -0.0408  1.5892 -0.4721
 7716TIP3    H244564   3.816   1.783  15.088  0.3700  1.1579  0.2635
 7717TIP3   OH244565   2.601   0.757   3.363  0.4239  0.5027  0.1696
 7717TIP3    H144566   2.518   0.718   3.389 -0.5075  1.7101 -0.9256
 7717TIP3    H244567   2.615   0.828   3.425 -0.1111  1.2405 -0.5468
 7718TIP3   OH244568   1.726   5.447  17.128 -0.0767 -0.8952  0.1297
 7718TIP3    H144569   1.771   5.502  17.065  0.6161 -2.0478 -0.4017
 7718TIP3    H244570   1.764   5.470  17.212  1.7946 -2.1042 -0.3489
 7719TIP3   OH244571   0.986   0.067  14.783  0.3929  0.1060 -0.3588
 7719TIP3    H144572   0.998   0.005  14.855 -1.1414  2.0582  1.6861
 7719TIP3    H244573   1.045   0.037  14.715  0.4572 -2.9683  0.9576
 7720TIP3   OH244574   2.551   1.843   4.560 -0.0180 -0.3411 -0.1841
 7720TIP3    H144575   2.637   1.810   4.584  0.4048  0.9176  0.0677
 7720TIP3    H244576   2.528   1.795   4.481  0.9319 -0.6659 -0.2716
 7721TIP3   OH244577   4.320   5.371  13.079 -0.0888  0.2268  0.0551
 7721TIP3    H144578   4.309   5.440  13.013 -1.4642  1.5801  1.6735
 7721TIP3    H244579   4.264   5.397  13.152  0.0510 -2.1556  1.0750
 7722TIP3   OH244580   4.253   1.817   2.340 -0.2658  0.6942  0.5614
 7722TIP3    H144581   4.223   1.775   2.259 -0.2352  1.3954  0.1829
 7722TIP3    H244582   4.342   1.784   2.353  0.4403  2.0266 -0.7205
 7723TIP3   OH244583   2.122   0.932  14.249  0.0202 -0.5887 -0.2445
 7723TIP3    H144584   2.083   0.861  14.198 -0.5024 -0.1089 -0.5311
 7723TIP3    H244585   2.198   0.893  14.291  0.3202 -1.0580 -1.2042
 7724TIP3   OH244586   5.748   4.535   4.453  0.4375 -0.1822  0.2491
 7724TIP3    H144587   5.675   4.516   4.513  0.1671  2.1059  0.6850
 7724TIP3    H244588   5.818   4.567   4.510  0.9387 -0.0273 -0.4504
 7725TIP3   OH244589   0.992   2.459   5.668 -0.0467 -0.6559 -0.3595
 7725TIP3    H144590   0.996   2.417   5.582 -0.4262 -1.5465  0.0589
 7725TIP3    H244591   0.907   2.503   5.669 -0.5677 -1.6739  0.0408
 7726TIP3   OH244592   6.413   5.350  11.500 -0.3901  0.1138  0.0314
 7726TIP3    H144593   6.364   5.268  11.508  0.5254 -0.3125  1.7581
 7726TIP3    H244594   6.384   5.389  11.418 -1.7396 -1.3535 -0.1992
 7727TIP3   OH244595   5.718   3.063  13.740 -0.1029 -0.4262 -0.0347
 7727TIP3    H144596   5.781   3.016  13.685  0.3686  0.8674 -0.6249
 7727TIP3    H244597   5.678   2.995  13.794  0.9273 -1.4324 -0.5128
 7728TIP3   OH244598   6.367   2.270  15.841 -0.4951  0.4374  0.2759
 7728TIP3    H144599   6.408   2.322  15.772 -1.7255  0.5143 -0.4156
 7728TIP3    H244600   6.274   2.267  15.816 -0.5156 -1.6919  0.5806
 7729TIP3   OH244601   4.087   4.394  12.204  0.4225  0.2148 -0.5139
 7729TIP3    H144602   4.023   4.456  12.171  1.7185  0.5625 -2.4445
 7729TIP3    H244603   4.073   4.315  12.152  0.5098 -0.2488  0.1529
 7730TIP3   OH244604   4.106   2.330  12.640 -0.6559  0.1029 -0.7175
 7730TIP3    H144605   4.057   2.315  12.559 -0.5927  2.0248 -1.1323
 7730TIP3    H244606   4.100   2.424  12.655 -0.8744 -0.2582  1.6578
 7731TIP3   OH244607   6.113   1.177  16.095 -0.1260 -0.3769 -0.1780
 7731TIP3    H144608   6.115   1.223  16.179 -0.5773  0.8722 -0.8353
 7731TIP3    H244609   6.118   1.085  16.118  1.7399  0.0288  1.1301
 7732TIP3   OH244610   3.226   4.196  15.741 -0.4622  0.6044  0.5024
 7732TIP3    H144611   3.167   4.129  15.705  1.8306 -0.3511 -1.6450
 7732TIP3    H244612   3.257   4.158  15.823  0.6978 -0.9300 -0.6209
 7733TIP3   OH244613   5.791   4.832   5.163 -0.6452  0.1068  0.0276
 7733TIP3    H144614   5.781   4.856   5.071 -1.0603 -0.0195  0.0411
 7733TIP3    H244615   5.883   4.806   5.171 -0.9165 -1.0398 -0.6155
 7734TIP3   OH244616   5.775   5.157  13.513  0.2083  0.9254 -0.4183
 7734TIP3    H144617   5.839   5.087  13.530 -0.1128  0.5979 -0.5651
 7734TIP3    H244618   5.692   5.111  13.503 -0.1785  1.4253  0.5354
 7735TIP3   OH244619   0.051   2.581   5.432 -0.2377  0.1266 -0.1007
 7735TIP3    H144620   0.098   2.586   5.349  0.4557 -0.9533  0.2174
 7735TIP3    H244621   0.093   2.510   5.479 -1.1653  0.1904  0.8455
 7736TIP3   OH244622   2.571   1.852  11.916  0.4348  0.2659  0.1214
 7736TIP3    H144623   2.559   1.917  11.847 -1.3788  0.1471  0.3031
 7736TIP3    H244624   2.523   1.775  11.885  1.2001 -0.4437  0.6591
 7737TIP3   OH244625   2.102   3.619  15.008  0.5934 -0.4382 -0.6648
 7737TIP3    H144626   2.167   3.641  14.940  1.2984 -0.9739 -0.1684
 7737TIP3    H244627   2.032   3.573  14.960  0.2304  0.7648 -1.3215
 7738TIP3   OH244628   5.906   2.010  13.625 -0.0920 -0.3696  0.8777
 7738TIP3    H144629   5.921   2.097  13.663 -0.9560 -0.6467  1.8778
 7738TIP3    H244630   5.824   2.019  13.576 -0.2027 -0.6284  1.0121
 7739TIP3   OH244631   3.868   1.202   1.196 -0.1560 -0.3358 -0.1441
 7739TIP3    H144632   3.799   1.268   1.207 -1.0595 -1.2794 -0.0923
 7739TIP3    H244633   3.908   1.195   1.283 -1.0531 -0.9429  0.2230
 7740TIP3   OH244634   5.114   5.784   2.698 -0.1415 -0.3453 -0.0087
 7740TIP3    H144635   5.143   5.718   2.760 -0.7131 -0.1125  0.5111
 7740TIP3    H244636   5.047   5.740   2.646 -0.3840 -0.2346  0.2091
 7741TIP3   OH244637   6.373   1.302  13.327  0.7751 -0.2395 -0.1087
 7741TIP3    H144638   6.416   1.306  13.413  0.2295 -0.9383  0.2015
 7741TIP3    H244639   6.374   1.393  13.296  2.1696 -0.1847  0.0359
 7742TIP3   OH244640   2.475   0.340   2.746 -0.1279  0.1178 -0.1164
 7742TIP3    H144641   2.478   0.367   2.654 -0.1076 -2.1157 -0.7873
 7742TIP3    H244642   2.511   0.415   2.793  0.9942  0.8264 -2.0297
 7743TIP3   OH244643   4.247   5.375  14.578 -0.1254 -0.0226  0.0258
 7743TIP3    H144644   4.257   5.455  14.526  0.6538  0.7064  1.2656
 7743TIP3    H244645   4.193   5.318  14.524  0.3197  0.8777 -1.4012
 7744TIP3   OH244646   0.484   3.145   3.671  0.3780  0.0840 -0.2399
 7744TIP3    H144647   0.463   3.222   3.724 -0.5458  1.0683 -1.9839
 7744TIP3    H244648   0.543   3.093   3.726 -0.2143  1.2725  1.5688
 7745TIP3   OH244649   0.353   1.585   2.631  0.3021 -0.1156  0.0316
 7745TIP3    H144650   0.308   1.574   2.547  0.6253 -0.2551 -0.1246
 7745TIP3    H244651   0.298   1.539   2.694  0.5952 -0.8953 -0.2775
 7746TIP3   OH244652   1.782   1.363   2.109  0.0857  0.3842  0.5329
 7746TIP3    H144653   1.754   1.364   2.201 -1.6322  1.1468  0.0281
 7746TIP3    H244654   1.813   1.452   2.094  0.0066  0.3681  0.2796
 7747TIP3   OH244655   2.097   5.717  11.008 -0.1714 -0.1429  0.0056
 7747TIP3    H144656   2.054   5.802  11.014  1.6427  0.7621  0.2339
 7747TIP3    H244657   2.189   5.737  10.994  0.1657 -2.0769 -0.7011
 7748TIP3   OH244658   5.745   0.282  13.376  0.2007  0.3274  0.2627
 7748TIP3    H144659   5.830   0.317  13.352  0.5729  0.3523  1.6380
 7748TIP3    H244660   5.759   0.188  13.385  0.1072  0.3515  0.6453
 7749TIP3   OH244661   5.645   3.389  14.908 -0.0599  0.2661 -0.2666
 7749TIP3    H144662   5.668   3.482  14.904 -1.7195  0.7247  0.4973
 7749TIP3    H244663   5.556   3.384  14.875 -0.0682 -1.0279 -0.0926
 7750TIP3   OH244664   5.000   3.427  13.974 -0.1791  0.3650  0.1096
 7750TIP3    H144665   5.063   3.360  13.947 -1.1978 -1.3571  1.9150
 7750TIP3    H244666   4.973   3.468  13.891  1.9732 -0.0391 -0.8397
 7751TIP3   OH244667   4.177   3.533  17.200  0.2625  0.4881  0.3901
 7751TIP3    H144668   4.240   3.478  17.155  0.0122  0.9462 -0.5476
 7751TIP3    H244669   4.159   3.604  17.138 -1.1838  0.3508  0.6207
 7752TIP3   OH244670   2.715   5.453  14.068 -0.0273  0.1736 -0.2716
 7752TIP3    H144671   2.634   5.453  14.017  0.9435 -0.1383 -1.8436
 7752TIP3    H244672   2.781   5.416  14.009  0.8019 -1.6532  1.7376
 7753TIP3   OH244673   1.143   2.554  12.427  0.4347  0.2418 -0.2650
 7753TIP3    H144674   1.077   2.539  12.494  1.4053  0.2444  0.7134
 7753TIP3    H244675   1.132   2.482  12.365 -0.0848 -0.0948  0.2147
 7754TIP3   OH244676   3.509   0.667  12.893  0.2576  0.1268  0.2692
 7754TIP3    H144677   3.480   0.748  12.935  1.3606  0.5723  0.1767
 7754TIP3    H244678   3.472   0.597  12.948 -3.7156  0.5887 -1.6250
 7755TIP3   OH244679   5.794   2.821  15.645  0.0703  0.3793  0.3839
 7755TIP3    H144680   5.873   2.772  15.670  1.2550  1.9915 -0.1122
 7755TIP3    H244681   5.789   2.811  15.550 -0.5240 -0.0076  0.4562
 7756TIP3   OH244682   3.520   3.591  12.283  0.3069  0.3629  0.5903
 7756TIP3    H144683   3.427   3.613  12.294  0.5124  0.6959  1.7272
 7756TIP3    H244684   3.560   3.614  12.367  1.3077 -0.3667  0.3156
 7757TIP3   OH244685   2.211   2.957  16.071  0.1053 -0.0547 -0.2633
 7757TIP3    H144686   2.214   2.970  15.976  2.8349  0.7671 -0.1032
 7757TIP3    H244687   2.302   2.958  16.098 -0.6335 -0.5185  2.3640
 7758TIP3   OH244688   4.494   1.299  10.709  0.0881  0.2868  0.3090
 7758TIP3    H144689   4.465   1.297  10.618 -0.5538  1.3635  0.4801
 7758TIP3    H244690   4.535   1.214  10.723  1.7959  0.7489 -1.5055
 7759TIP3   OH244691   3.178   1.495  13.468 -0.0288  0.1205 -0.1259
 7759TIP3    H144692   3.104   1.486  13.528  1.0348 -0.2902  1.1472
 7759TIP3    H244693   3.181   1.589  13.449 -1.2798  0.0494 -0.7261
 7760TIP3   OH244694   5.349   2.117   5.562  0.7302 -0.0161  0.2596
 7760TIP3    H144695   5.342   2.211   5.580 -1.4762 -0.3156  1.1080
 7760TIP3    H244696   5.409   2.085   5.630  0.6424  0.6151  0.6422
 7761TIP3   OH244697   4.012   2.823  11.158 -0.5572 -0.4902 -0.1049
 7761TIP3    H144698   4.071   2.748  11.145 -1.4889 -1.0695 -1.1003
 7761TIP3    H244699   3.994   2.854  11.070 -3.7446 -1.9088  0.0031
 7762TIP3   OH244700   0.419   2.329  12.182  0.0303  0.4879 -0.9884
 7762TIP3    H144701   0.337   2.355  12.142 -1.8220 -0.7357  1.8616
 7762TIP3    H244702   0.449   2.254  12.130  0.3100  2.0242 -3.1126
 7763TIP3   OH244703   4.768   0.744   1.681 -0.2082 -0.4669 -0.3431
 7763TIP3    H144704   4.861   0.721   1.690 -0.4024 -1.6854 -1.2124
 7763TIP3    H244705   4.761   0.783   1.594 -0.0015  2.4187  0.8915
 7764TIP3   OH244706   6.434   0.493  14.638 -0.1702  0.4519  0.4960
 7764TIP3    H144707   6.369   0.521  14.702  0.1435  0.6741  0.7225
 7764TIP3    H244708   6.512   0.544  14.659 -0.4518  1.4735 -0.8999
 7765TIP3   OH244709   3.985   2.086   5.781  0.1087  0.0407  0.3578
 7765TIP3    H144710   3.967   2.139   5.704 -0.7190 -0.4170  0.2354
 7765TIP3    H244711   3.900   2.052   5.808  0.4169  0.0347  1.3555
 7766TIP3   OH244712   4.438   0.238   9.766  0.1529  0.3671 -0.1347
 7766TIP3    H144713   4.431   0.330   9.792  1.0848  0.3335  0.2493
 7766TIP3    H244714   4.368   0.194   9.814  1.3432  0.4470  1.7274
 7767TIP3   OH244715   3.289   2.702   1.408 -0.2567 -0.2302 -0.5240
 7767TIP3    H144716   3.308   2.768   1.342  3.1338 -0.0467  0.5891
 7767TIP3    H244717   3.216   2.739   1.459  0.9905  2.2292 -0.4838
 7768TIP3   OH244718   3.397   0.291  14.446 -0.1111  0.3833 -0.8367
 7768TIP3    H144719   3.478   0.316  14.489 -0.4126  0.0490 -0.0632
 7768TIP3    H244720   3.401   0.334  14.361  1.2511 -0.2970 -1.1333
 7769TIP3   OH244721   0.208   0.092  14.266  0.0572  0.4602  0.6264
 7769TIP3    H144722   0.256   0.137  14.198 -1.1917  0.4347 -0.2876
 7769TIP3    H244723   0.119   0.128  14.262 -0.5145 -0.8452  1.0016
 7770TIP3   OH244724   4.087   1.192   2.545 -0.2509 -0.5823 -0.1558
 7770TIP3    H144725   4.169   1.233   2.516  0.2233  0.3000  2.2629
 7770TIP3    H244726   4.115   1.127   2.610 -1.4777  0.4007  1.4131
 7771TIP3   OH244727   2.955   1.074   4.882  0.3813 -0.1170 -0.3834
 7771TIP3    H144728   2.865   1.076   4.913 -0.3806  0.8644 -2.5714
 7771TIP3    H244729   2.988   1.162   4.897  1.1392 -0.5692  0.7534
 7772TIP3   OH244730   4.199   4.645   0.034 -0.4334 -0.0563  0.1322
 7772TIP3    H144731   4.164   4.599   0.111 -0.5682  0.1739  0.2098
 7772TIP3    H244732   4.202   4.737   0.061 -1.4757  0.1623 -0.5099
 7773TIP3   OH244733   2.024   1.887  16.455  0.1668  0.1955 -0.0645
 7773TIP3    H144734   1.969   1.902  16.532 -0.0622 -2.4404  0.3002
 7773TIP3    H244735   1.977   1.931  16.384 -1.9140 -1.1587  0.4409
 7774TIP3   OH244736   0.532   0.190   5.656 -0.2845 -0.0312 -0.2974
 7774TIP3    H144737   0.555   0.277   5.688  0.0056  0.7743 -2.6174
 7774TIP3    H244738   0.599   0.170   5.590 -0.4177 -1.9650  0.1124
 7775TIP3   OH244739   4.817   0.009  10.761 -0.2970 -0.2676  0.2650
 7775TIP3    H144740   4.836  -0.070  10.812 -3.2258 -0.3808  1.2295
 7775TIP3    H244741   4.733   0.040  10.794 -0.6832  1.5227 -2.2574
 7776TIP3   OH244742   3.823   2.661  12.783  0.2142 -0.4839  0.1444
 7776TIP3    H144743   3.808   2.677  12.690  0.2096 -0.9366  0.0677
 7776TIP3    H244744   3.802   2.744  12.826  0.0759 -0.3222 -0.2433
 7777TIP3   OH244745   5.370   6.639  15.811 -0.7955 -0.4869 -0.3076
 7777TIP3    H144746   5.295   6.693  15.833  0.2219  0.9590 -0.3576
 7777TIP3    H244747   5.409   6.616  15.895 -0.9516 -0.7566 -0.3083
 7778TIP3   OH244748   5.759   4.701   2.651  0.5091  1.0212  1.0003
 7778TIP3    H144749   5.695   4.755   2.604  0.4653  0.6603  0.6372
 7778TIP3    H244750   5.707   4.643   2.706  0.4262 -0.3908 -0.4925
 7779TIP3   OH244751   4.004   3.073  13.019 -0.7827  0.7758  0.4362
 7779TIP3    H144752   3.959   3.093  12.937 -0.3361 -0.7306 -0.1821
 7779TIP3    H244753   3.973   2.986  13.043 -2.2094  1.8488  2.7708
 7780TIP3   OH244754   3.318   2.883  13.485  0.0382  0.0043 -0.0856
 7780TIP3    H144755   3.395   2.888  13.541  0.8263  2.4464 -1.3068
 7780TIP3    H244756   3.267   2.960  13.508 -0.7887 -0.2405 -1.0828
 7781TIP3   OH244757   1.669   2.255  10.431 -0.4476  0.0938  0.1302
 7781TIP3    H144758   1.753   2.234  10.391 -0.1399  1.3348  0.1280
 7781TIP3    H244759   1.620   2.172  10.429  1.3557 -1.0313  1.6130
 7782TIP3   OH244760   6.246   6.133  15.305 -0.0161  0.4093  0.2466
 7782TIP3    H144761   6.336   6.102  15.302 -0.3133 -0.4113 -0.1405
 7782TIP3    H244762   6.196   6.061  15.343 -0.4971  0.9042  0.5747
 7783TIP3   OH244763   0.673   2.048  12.370 -0.1526 -0.0129  0.3869
 7783TIP3    H144764   0.740   2.077  12.307 -0.7877 -0.1973 -0.3784
 7783TIP3    H244765   0.610   1.999  12.317 -0.3909 -0.6714  1.2701
 7784TIP3   OH244766   6.661   3.858   1.251  0.2867 -0.2758  0.6317
 7784TIP3    H144767   6.751   3.825   1.256 -0.1639 -1.5287  0.8513
 7784TIP3    H244768   6.656   3.922   1.322  0.9804 -0.2712  0.6865
 7785TIP3   OH244769   4.103   6.584   9.956 -0.3780 -0.6284 -0.1998
 7785TIP3    H144770   4.038   6.557  10.021 -0.7863 -0.9987 -0.7650
 7785TIP3    H244771   4.187   6.564   9.997 -0.6160 -0.3781  0.4296
 7786TIP3   OH244772   5.517   1.356  10.504  0.8466 -0.2197 -0.0603
 7786TIP3    H144773   5.595   1.318  10.546  1.3840 -0.2348 -1.0544
 7786TIP3    H244774   5.547   1.381  10.417 -0.0036  0.7362 -0.0803
 7787TIP3   OH244775   2.243   6.394  12.136  0.7172 -0.1874  0.5654
 7787TIP3    H144776   2.334   6.387  12.164  1.1103  0.1596 -0.5967
 7787TIP3    H244777   2.247   6.387  12.040 -0.3446  1.1108  0.4207
 7788TIP3   OH244778   5.818   5.019   3.835 -0.4993 -0.3043  0.4842
 7788TIP3    H144779   5.866   5.009   3.753  1.4888  2.1295  1.2775
 7788TIP3    H244780   5.769   4.937   3.845  2.9018 -2.5942 -0.7517
 7789TIP3   OH244781   0.429   4.203  13.365 -0.2110  0.0260  0.0249
 7789TIP3    H144782   0.371   4.245  13.301 -2.2971  0.1947  1.9797
 7789TIP3    H244783   0.454   4.273  13.424 -1.0527 -0.7911  1.3739
 7790TIP3   OH244784   6.663   2.577   6.307 -0.4321  0.1358 -0.0829
 7790TIP3    H144785   6.608   2.528   6.246  0.3879 -1.1962  0.2177
 7790TIP3    H244786   6.616   2.575   6.390  0.3560 -1.5658  0.3407
 7791TIP3   OH244787   1.495   4.564  14.206 -0.0469 -0.8192 -0.0905
 7791TIP3    H144788   1.506   4.637  14.267 -2.0250 -1.3568  0.9426
 7791TIP3    H244789   1.529   4.488  14.254  1.8288 -0.6407 -1.0882
 7792TIP3   OH244790   5.497   0.285   5.997 -0.1486 -0.1004  0.4000
 7792TIP3    H144791   5.585   0.248   6.005 -0.1079  0.0272  0.5352
 7792TIP3    H244792   5.474   0.313   6.085 -1.3224 -2.3935  0.8614
 7793TIP3   OH244793   1.347   4.374   0.054 -0.2909  0.9041 -0.3040
 7793TIP3    H144794   1.402   4.437   0.100 -0.0183  0.6790 -0.3200
 7793TIP3    H244795   1.405   4.299   0.038 -0.9802  0.0824  0.9546
 7794TIP3   OH244796   2.836   6.157  15.374 -0.5485  0.3917 -0.3348
 7794TIP3    H144797   2.768   6.114  15.323  0.1355 -0.8872 -0.1882
 7794TIP3    H244798   2.878   6.218  15.314 -1.0142  0.2876 -0.7604
 7795TIP3   OH244799   1.363   4.182  13.042 -0.1790 -0.0093  0.1590
 7795TIP3    H144800   1.363   4.176  12.947 -1.3466 -0.9404  0.2127
 7795TIP3    H244801   1.456   4.185  13.065  0.1146  0.0545 -0.9932
 7796TIP3   OH244802   6.635   5.267  14.667 -0.8577 -0.2331 -0.3507
 7796TIP3    H144803   6.543   5.249  14.687 -1.0106  0.4684 -0.4051
 7796TIP3    H244804   6.684   5.215  14.731 -1.3380  1.2797  1.3038
 7797TIP3   OH244805   1.275   1.108   3.203  0.3311 -0.3841  0.1381
 7797TIP3    H144806   1.198   1.060   3.234 -0.5124  0.7510 -0.1514
 7797TIP3    H244807   1.347   1.079   3.259 -0.3442 -1.3590  0.4943
 7798TIP3   OH244808   2.926   0.880  15.359  0.1376 -0.1467  0.2922
 7798TIP3    H144809   2.965   0.876  15.272  1.6633  0.4297  0.9425
 7798TIP3    H244810   2.898   0.971  15.369 -0.4756 -0.3258  0.2150
 7799TIP3   OH244811   2.060   6.627   0.243  0.6258  0.7506  0.1989
 7799TIP3    H144812   2.130   6.646   0.305  0.4706  1.8957  0.0371
 7799TIP3    H244813   2.032   6.713   0.211 -0.1065  0.2418 -0.5597
 7800TIP3   OH244814   3.249   2.470   2.789 -0.3313  0.2977  0.7216
 7800TIP3    H144815   3.321   2.455   2.849  0.8615 -0.5438 -0.8933
 7800TIP3    H244816   3.229   2.563   2.799  0.4220  0.3557  1.7774
 7801TIP3   OH244817   3.812   4.108   4.470  0.7234 -0.4676  0.7881
 7801TIP3    H144818   3.729   4.115   4.517  0.7464 -0.6002  0.8503
 7801TIP3    H244819   3.879   4.118   4.537  0.8209  3.5630  0.2097
 7802TIP3   OH244820   4.958   5.432   5.549 -0.6377  0.7324  0.4242
 7802TIP3    H144821   4.884   5.493   5.549 -1.3030 -0.0177 -1.3807
 7802TIP3    H244822   4.919   5.349   5.520  0.4734 -0.2497  1.7243
 7803TIP3   OH244823   3.582   2.351  10.856  0.0831 -0.3061  0.1644
 7803TIP3    H144824   3.517   2.332  10.788  1.3692  1.4091 -1.5845
 7803TIP3    H244825   3.542   2.318  10.937 -2.3391 -0.5525 -1.0960
 7804TIP3   OH244826   6.215   3.887   3.549  0.1042 -0.1723 -0.2783
 7804TIP3    H144827   6.239   3.827   3.478  0.6384 -0.6725  0.3118
 7804TIP3    H244828   6.152   3.947   3.509  0.5703 -0.2976 -1.2372
 7805TIP3   OH244829   6.719   6.319  14.672  0.1399  0.4887  0.2006
 7805TIP3    H144830   6.634   6.306  14.631  0.2710 -0.4889  0.2250
 7805TIP3    H244831   6.709   6.397  14.725 -1.1835 -0.4625  1.3853
 7806TIP3   OH244832   4.804   2.721  13.176  0.1513  0.0318  0.4661
 7806TIP3    H144833   4.764   2.634  13.179  1.4060 -0.5735 -0.1210
 7806TIP3    H244834   4.889   2.707  13.136 -0.0337  1.6932 -0.5642
 7807TIP3   OH244835   3.739   1.726   0.709 -0.4775 -0.0181  0.1186
 7807TIP3    H144836   3.648   1.735   0.680 -0.3917  1.1833  0.2082
 7807TIP3    H244837   3.787   1.701   0.630 -0.6033  1.0552 -0.2959
 7808TIP3   OH244838   1.251   0.292   0.908  0.3508  0.7617 -0.5444
 7808TIP3    H144839   1.254   0.276   0.814  0.4805  1.1144 -0.6037
 7808TIP3    H244840   1.323   0.354   0.924  0.1456  0.9304 -0.2623
 7809TIP3   OH244841   1.805   5.676   3.997 -0.4164 -0.1064 -0.1098
 7809TIP3    H144842   1.718   5.685   4.037 -0.8615 -2.8704 -0.3543
 7809TIP3    H244843   1.849   5.610   4.050  1.7412  1.5714  0.2657
 7810TIP3   OH244844   6.462   1.473  16.007 -0.3273 -0.3839  0.2386
 7810TIP3    H144845   6.414   1.397  15.974  0.5430 -0.4766 -0.8601
 7810TIP3    H244846   6.538   1.435  16.052  0.2114 -0.1708 -0.4800
 7811TIP3   OH244847   2.281   4.955  13.018  0.3394 -0.0875  0.7518
 7811TIP3    H144848   2.196   4.920  13.046  0.7400 -0.1801  1.8759
 7811TIP3    H244849   2.261   5.041  12.982 -0.6259 -1.3147 -1.7467
 7812TIP3   OH244850   3.844   6.094  14.720  0.1350 -0.3881 -0.4644
 7812TIP3    H144851   3.859   6.053  14.805  0.7813 -1.7203 -1.2043
 7812TIP3    H244852   3.749   6.094  14.710  0.0070  0.5796  0.6344
 7813TIP3   OH244853   1.658   3.247  12.957 -0.3833 -0.2492 -0.6741
 7813TIP3    H144854   1.567   3.265  12.932 -1.0481 -2.9411 -0.4109
 7813TIP3    H244855   1.655   3.158  12.991  1.7916  0.8119  2.4177
 7814TIP3   OH244856   6.246   3.829  11.908  0.2096 -0.0395 -0.2687
 7814TIP3    H144857   6.238   3.895  11.977  0.1295 -0.2570 -0.0714
 7814TIP3    H244858   6.326   3.853  11.862  0.0107  0.3844 -0.3957
 7815TIP3   OH244859   3.702   5.958  11.789 -0.2181  0.5274  0.1539
 7815TIP3    H144860   3.646   5.955  11.867  0.3702  1.1676  0.6042
 7815TIP3    H244861   3.673   5.883  11.736 -0.1502 -0.3347  1.3046
 7816TIP3   OH244862   5.880   2.561  13.455  0.1772  0.4314  0.1283
 7816TIP3    H144863   5.949   2.601  13.401  2.2610 -0.5442  1.9748
 7816TIP3    H244864   5.916   2.476  13.480 -1.7699 -0.1321  1.0657
 7817TIP3   OH244865   3.521   5.096  14.741  0.0975 -0.2759  0.1604
 7817TIP3    H144866   3.464   5.095  14.817 -1.2291  0.2753 -0.8062
 7817TIP3    H244867   3.541   5.003  14.725 -1.1313 -0.5249  0.0636
 7818TIP3   OH244868   3.938   5.236  11.713  0.0566 -0.2301 -0.4369
 7818TIP3    H144869   4.033   5.230  11.708  0.2320  0.1933  1.9643
 7818TIP3    H244870   3.922   5.320  11.757 -1.4182 -0.3930 -0.6454
 7819TIP3   OH244871   4.297   4.859  16.495 -0.4089  0.0174 -0.1438
 7819TIP3    H144872   4.276   4.808  16.417  1.4835 -1.0414 -0.0081
 7819TIP3    H244873   4.393   4.867  16.493 -0.2718 -0.5367  2.3665
 7820TIP3   OH244874   3.627   0.580  11.679 -0.6998  0.2718  0.2621
 7820TIP3    H144875   3.687   0.577  11.605 -0.3091 -0.3866  0.6120
 7820TIP3    H244876   3.670   0.637  11.742 -0.9089  0.6132  0.1007
 7821TIP3   OH244877   4.588   1.985  14.689 -0.0282  0.6099 -0.6714
 7821TIP3    H144878   4.655   1.956  14.627  0.2149  0.9778 -0.5825
 7821TIP3    H244879   4.638   2.012  14.766 -0.1216  2.8396 -1.3553
 7822TIP3   OH244880   3.822   2.543  16.171  0.1932 -0.5008 -0.1648
 7822TIP3    H144881   3.745   2.495  16.142  0.3825  0.0220 -1.5982
 7822TIP3    H244882   3.852   2.497  16.249 -1.8081 -0.4640  0.6480
 7823TIP3   OH244883   5.501   6.256  12.509 -0.2642  0.0147  0.6686
 7823TIP3    H144884   5.435   6.276  12.576 -2.7486  2.2021 -2.3127
 7823TIP3    H244885   5.454   6.205  12.443  2.0037 -1.6412  0.2697
 7824TIP3   OH244886   2.270   2.507  13.109  0.0994  0.6331  0.3722
 7824TIP3    H144887   2.272   2.576  13.175  1.1379 -0.0500  1.0718
 7824TIP3    H244888   2.358   2.508  13.071 -0.4058  0.8240 -0.7944
 7825TIP3   OH244889   2.197   3.024  17.155 -0.4055 -0.1240  0.2474
 7825TIP3    H144890   2.142   3.102  17.156 -1.0483 -0.5639 -0.3736
 7825TIP3    H244891   2.146   2.957  17.202  0.5640  0.0966  1.6682
 7826TIP3   OH244892   0.491   6.366  13.639 -0.4269 -0.4574  0.0941
 7826TIP3    H144893   0.413   6.311  13.633 -0.3626 -0.4699 -0.6837
 7826TIP3    H244894   0.564   6.305  13.638 -0.4313 -0.5441  2.3258
 7827TIP3   OH244895   1.104   6.417  16.184 -0.3917 -0.2715  0.1742
 7827TIP3    H144896   1.106   6.363  16.262 -1.5500 -2.1120 -1.0434
 7827TIP3    H244897   1.135   6.360  16.114 -0.1079  1.1206 -0.8673
 7828TIP3   OH244898   3.721   5.249  16.653 -0.3944  0.3010 -0.2522
 7828TIP3    H144899   3.766   5.168  16.677  2.0480  1.9151  0.9052
 7828TIP3    H244900   3.728   5.303  16.731 -0.8684  2.0958 -1.4328
 7829TIP3   OH244901   4.359   6.293   2.598 -0.1664 -0.5323  0.0931
 7829TIP3    H144902   4.264   6.292   2.585 -0.1001  0.2821 -0.4853
 7829TIP3    H244903   4.395   6.273   2.512  0.1677 -2.7163  0.7196
 7830TIP3   OH244904   1.915   4.659   3.074  0.2827  0.0056  0.2031
 7830TIP3    H144905   2.002   4.686   3.103  1.2691 -0.2845 -2.3350
 7830TIP3    H244906   1.891   4.724   3.008 -0.1418 -1.5721 -1.2418
 7831TIP3   OH244907   0.275   3.160  15.502 -0.0202  0.0698  0.6518
 7831TIP3    H144908   0.181   3.142  15.504 -0.2368  0.9963 -0.6175
 7831TIP3    H244909   0.301   3.147  15.411  1.0495 -0.0271  0.9614
 7832TIP3   OH244910   4.154   6.776  16.188  0.2641  0.4116 -0.0611
 7832TIP3    H144911   4.197   6.861  16.175  1.5006 -0.6409 -3.5149
 7832TIP3    H244912   4.210   6.714  16.143 -2.1868 -1.8070 -0.1721
 7833TIP3   OH244913   1.672   5.108  15.324 -0.0543 -0.2461 -0.0529
 7833TIP3    H144914   1.650   5.171  15.393  0.9531  1.3829 -1.1730
 7833TIP3    H244915   1.592   5.056  15.314  0.3925 -1.7755  3.5908
 7834TIP3   OH244916   3.973   6.185  17.088  0.0252 -0.0436 -0.3187
 7834TIP3    H144917   3.947   6.267  17.046  0.5160  0.4659  0.3602
 7834TIP3    H244918   3.906   6.169  17.154  0.0999 -0.0237 -0.2382
 7835TIP3   OH244919   4.157   0.197   3.986  0.7791 -0.7621  0.3474
 7835TIP3    H144920   4.084   0.162   4.037  1.2672 -0.3460  1.3284
 7835TIP3    H244921   4.181   0.279   4.030 -0.0529  0.5954 -1.6549
 7836TIP3   OH244922   0.939   2.407  12.673 -0.4338  0.0034 -0.4180
 7836TIP3    H144923   0.897   2.478  12.625 -0.7300 -0.8152 -1.3741
 7836TIP3    H244924   0.886   2.330  12.654 -0.1589 -0.4667  0.6762
 7837TIP3   OH244925   3.366   3.517  15.908 -0.0450  0.6072  0.4820
 7837TIP3    H144926   3.323   3.595  15.942  0.5291  0.8220  0.7194
 7837TIP3    H244927   3.458   3.528  15.931 -0.1865 -0.8139  1.7711
 7838TIP3   OH244928   4.947   3.130  11.463 -0.1849  0.0065  0.2927
 7838TIP3    H144929   5.020   3.092  11.414 -0.2698  1.7934 -1.2884
 7838TIP3    H244930   4.874   3.070  11.448  0.0791 -0.0311 -0.8917
 7839TIP3   OH244931   6.625   2.554  12.957 -0.5532 -0.2697 -0.0582
 7839TIP3    H144932   6.623   2.479  13.016 -1.5067 -1.1555 -1.1897
 7839TIP3    H244933   6.533   2.578  12.945 -0.1880  2.0385  1.4652
 7840TIP3   OH244934   0.793   3.985  17.020 -0.2699  0.6588  0.3759
 7840TIP3    H144935   0.759   4.070  17.045 -2.6086 -0.0678 -0.1925
 7840TIP3    H244936   0.803   3.937  17.103 -1.4886  0.5814  0.4776
 7841TIP3   OH244937   4.486   1.905   3.401 -0.1986  0.1782  0.1885
 7841TIP3    H144938   4.539   1.847   3.457 -0.2560  1.4538  1.6209
 7841TIP3    H244939   4.397   1.895   3.435 -0.6524 -0.9017 -1.3044
 7842TIP3   OH244940   4.411   2.977   0.186  0.2583 -0.6887  0.1381
 7842TIP3    H144941   4.361   3.005   0.263 -0.3933 -1.2272 -0.0767
 7842TIP3    H244942   4.492   3.026   0.191 -0.2217  0.0766  0.5986
 7843TIP3   OH244943   0.718   0.918   2.565  0.0559  0.2149  0.3154
 7843TIP3    H144944   0.659   0.965   2.506 -0.5248 -0.3134  0.4654
 7843TIP3    H244945   0.771   0.863   2.508  1.4963  1.8366  0.0348
 7844TIP3   OH244946   2.950   0.906   6.385  0.2586 -0.7531 -0.8683
 7844TIP3    H144947   2.886   0.969   6.419 -0.1138 -1.7303  0.2567
 7844TIP3    H244948   2.909   0.871   6.305 -0.1427 -0.6028 -0.7267
 7845TIP3   OH244949   2.206   4.930   0.510  0.1648  0.5861  0.0215
 7845TIP3    H144950   2.262   4.927   0.432  0.6144  0.4704  0.3411
 7845TIP3    H244951   2.120   4.955   0.478  0.1447 -0.2963 -0.6344
 7846TIP3   OH244952   3.111   5.869   3.250  0.4695 -0.4282  0.2133
 7846TIP3    H144953   3.076   5.817   3.322  0.2262 -0.6923 -0.0901
 7846TIP3    H244954   3.118   5.958   3.284 -0.5893 -0.3580  0.2493
 7847TIP3   OH244955   2.702   5.063   1.827 -0.1049 -0.2448 -0.4079
 7847TIP3    H144956   2.732   5.154   1.821  2.8104 -1.2594 -2.4230
 7847TIP3    H244957   2.652   5.048   1.747 -1.8377 -0.0382  0.6038
 7848TIP3   OH244958   6.317   6.583   2.170 -0.3045  0.2000  0.1507
 7848TIP3    H144959   6.347   6.512   2.113 -1.3370 -0.4109  0.3675
 7848TIP3    H244960   6.397   6.614   2.214 -0.2470 -2.6506  2.1314
 7849TIP3   OH244961   2.124   6.025   4.189 -0.5476 -0.1052 -0.6729
 7849TIP3    H144962   2.115   5.980   4.105  1.8649  0.3417 -1.2253
 7849TIP3    H244963   2.060   5.983   4.246 -0.4372 -2.2008 -2.0213
 7850TIP3   OH244964   0.320   4.441  16.308 -0.3108  0.4478 -0.4852
 7850TIP3    H144965   0.283   4.524  16.278 -2.4463 -0.3147 -0.1048
 7850TIP3    H244966   0.376   4.465  16.382 -2.8469  1.3510  1.2196
 7851TIP3   OH244967   1.788   3.857  15.153 -0.0242 -0.3416  0.5195
 7851TIP3    H144968   1.780   3.762  15.160  1.4095 -0.3189  3.3275
 7851TIP3    H244969   1.709   3.891  15.195 -0.4968 -0.2758 -0.4092
 7852TIP3   OH244970   2.525   2.193  15.838  0.2060  0.6565  0.0116
 7852TIP3    H144971   2.543   2.163  15.927 -2.3408 -2.8867 -0.5557
 7852TIP3    H244972   2.606   2.179  15.790  0.7764  0.0514  1.1425
 7853TIP3   OH244973   4.189   5.425  10.584  0.3179  0.5192 -0.2458
 7853TIP3    H144974   4.227   5.387  10.504  3.3735  1.1896  0.8094
 7853TIP3    H244975   4.128   5.358  10.615  0.0280 -0.2866 -2.4627
 7854TIP3   OH244976   1.063   0.164  16.867  0.4421 -0.8607 -0.3584
 7854TIP3    H144977   1.005   0.193  16.937  0.5315  1.2541 -1.1123
 7854TIP3    H244978   1.031   0.077  16.843  0.1642 -1.4431  2.0107
 7855TIP3   OH244979   0.375   3.393   3.305 -0.1321  0.6315  0.0787
 7855TIP3    H144980   0.293   3.387   3.257 -0.7875 -1.0261  1.3499
 7855TIP3    H244981   0.443   3.394   3.237 -1.1552  1.3129 -0.9511
 7856TIP3   OH244982   3.563   2.594   3.210 -0.0976 -0.0927  0.6377
 7856TIP3    H144983   3.632   2.660   3.214 -0.1112 -0.0751  0.5790
 7856TIP3    H244984   3.562   2.555   3.297  0.1512 -0.2662  0.5613
 7857TIP3   OH244985   6.577   1.329   5.961  0.1831  0.4160  0.0742
 7857TIP3    H144986   6.618   1.322   5.875  1.0815 -0.2950  0.5485
 7857TIP3    H244987   6.649   1.314   6.023 -0.5658  0.3540  0.9416
 7858TIP3   OH244988   4.229   4.532   3.608 -0.3213  0.2337 -0.1518
 7858TIP3    H144989   4.200   4.622   3.591 -0.5126  0.3437  0.7110
 7858TIP3    H244990   4.151   4.487   3.639 -0.1480 -0.1337 -0.2518
 7859TIP3   OH244991   6.655   6.561   1.557  0.3453 -0.2839  0.2801
 7859TIP3    H144992   6.666   6.472   1.589  0.0369 -0.8187 -1.0922
 7859TIP3    H244993   6.562   6.568   1.536  0.4651  0.1935 -0.1040
 7860TIP3   OH244994   0.858   4.144  10.929 -0.1144 -0.0588  0.1928
 7860TIP3    H144995   0.890   4.134  11.019 -1.2007  0.0843  0.6002
 7860TIP3    H244996   0.763   4.148  10.938 -0.2698 -0.8515 -1.0425
 7861TIP3   OH244997   5.752   5.811   5.312 -0.6359  0.3617  0.1033
 7861TIP3    H144998   5.802   5.863   5.375 -1.9041  0.9025  0.6911
 7861TIP3    H244999   5.725   5.733   5.361  1.1081 -0.8008 -0.7236
 7862TIP3   OH245000   6.384   0.663  14.371  0.9167  0.2358 -0.1543
 7862TIP3    H145001   6.373   0.634  14.281 -3.4351  0.7760  0.1324
 7862TIP3    H245002   6.372   0.584  14.423  0.0167  0.5202  0.0843
 7863TIP3   OH245003   5.796   5.938   2.267 -0.4582  0.1743 -0.2145
 7863TIP3    H145004   5.763   5.958   2.180 -0.5423  1.2338  0.0540
 7863TIP3    H245005   5.853   5.863   2.254 -1.7905 -0.7310 -0.9159
 7864TIP3   OH245006   2.912   1.788  15.270 -0.6245 -0.1518 -0.1739
 7864TIP3    H145007   2.935   1.820  15.357 -0.7598 -0.7532  0.0896
 7864TIP3    H245008   2.901   1.694  15.281  0.9281 -0.4734 -1.1725
 7865TIP3   OH245009   6.683   3.278   1.334  0.0168  0.4154  0.1201
 7865TIP3    H145010   6.716   3.368   1.326  1.3240 -0.1153 -0.5388
 7865TIP3    H245011   6.713   3.235   1.254  0.6807 -1.0092  1.1257
 7866TIP3   OH245012   4.991   3.864  15.904  0.1797 -0.0187 -0.2705
 7866TIP3    H145013   5.009   3.953  15.873 -1.7354  0.7748  0.7913
 7866TIP3    H245014   4.896   3.857  15.902  0.3006 -1.9924 -0.1392
 7867TIP3   OH245015   5.673   5.726  12.332  0.4334 -0.1545 -0.2274
 7867TIP3    H145016   5.599   5.674  12.361 -0.0135 -0.6105 -2.1814
 7867TIP3    H245017   5.699   5.776  12.411 -0.7972 -1.3045  0.9257
 7868TIP3   OH245018   1.980   1.933   2.964  0.4531  0.0608  0.0202
 7868TIP3    H145019   2.029   2.015   2.953  1.3962 -0.6939 -1.6180
 7868TIP3    H245020   2.036   1.866   2.925 -0.8313 -1.1947  0.2814
 7869TIP3   OH245021   6.753   3.137   1.081 -0.3089 -0.6809  0.1856
 7869TIP3    H145022   6.798   3.058   1.053  1.8831  1.1204 -1.5455
 7869TIP3    H245023   6.685   3.151   1.016 -0.4690 -0.9461  0.2959
 7870TIP3   OH245024   3.303   0.851   3.885  0.0087 -0.5814  0.1411
 7870TIP3    H145025   3.263   0.765   3.871  0.3261 -0.8184  0.6790
 7870TIP3    H245026   3.321   0.855   3.979  0.7787 -0.2797 -0.0094
 7871TIP3   OH245027   2.604   0.418   2.031  0.0864  0.2349 -0.6650
 7871TIP3    H145028   2.619   0.324   2.031  1.6844  0.4772 -0.9602
 7871TIP3    H245029   2.611   0.444   1.939 -1.3701  0.4978 -0.7199
 7872TIP3   OH245030   0.681   5.830  11.171 -0.1643  0.0472 -0.0954
 7872TIP3    H145031   0.697   5.906  11.227  0.7712  1.5505 -2.3135
 7872TIP3    H245032   0.640   5.867  11.092  0.3054 -1.7326 -1.2037
 7873TIP3   OH245033   2.978   4.108   3.494 -0.2997 -0.0008 -0.2640
 7873TIP3    H145034   3.061   4.075   3.460  0.2363  1.1490 -0.0984
 7873TIP3    H245035   2.998   4.196   3.526 -1.3710 -0.0769  0.6559
 7874TIP3   OH245036   1.360   6.377  14.939  0.0360  0.1841 -0.0610
 7874TIP3    H145037   1.323   6.455  14.979 -1.0090 -0.8688  1.0947
 7874TIP3    H245038   1.391   6.325  15.013  0.8453 -0.4299 -0.8248
 7875TIP3   OH245039   0.885   2.595  11.005  0.4488 -0.0037 -0.0439
 7875TIP3    H145040   0.918   2.573  10.918 -0.1052  0.6019 -0.4071
 7875TIP3    H245041   0.791   2.610  10.992  0.8708  2.9677  0.1213
 7876TIP3   OH245042   6.342   0.265  16.734 -0.6179 -0.5138 -0.2107
 7876TIP3    H145043   6.299   0.195  16.686  0.3081 -1.0642 -0.2618
 7876TIP3    H245044   6.344   0.339  16.673 -0.3522 -0.8858 -0.6579
 7877TIP3   OH245045   6.556   2.518   4.203 -0.1521  0.6949 -0.0540
 7877TIP3    H145046   6.500   2.442   4.188 -1.0732  1.1344  1.0482
 7877TIP3    H245047   6.518   2.561   4.280  2.4071  0.3552  1.4734
 7878TIP3   OH245048   4.877   5.158   4.117 -0.0232  0.0221  0.5992
 7878TIP3    H145049   4.812   5.145   4.047 -0.7324  3.8475  0.3817
 7878TIP3    H245050   4.838   5.117   4.194 -2.4762  1.6501  0.3029
 7879TIP3   OH245051   4.531   3.141  12.550 -0.1338 -0.2592 -0.2999
 7879TIP3    H145052   4.561   3.231  12.560 -1.5413  0.2983 -1.0269
 7879TIP3    H245053   4.436   3.145  12.561 -0.3674 -1.4367 -1.6847
 7880TIP3   OH245054   3.359   0.158  11.237 -0.4421  0.3743  0.3033
 7880TIP3    H145055   3.269   0.131  11.218 -0.2367 -1.2634  1.5854
 7880TIP3    H245056   3.351   0.213  11.315 -0.1195 -1.5413  1.7217
 7881TIP3   OH245057   0.760   2.679   5.662 -0.0918 -0.0492  0.2594
 7881TIP3    H145058   0.706   2.638   5.594 -0.5215  0.1638  0.4673
 7881TIP3    H245059   0.698   2.702   5.731  0.0664  1.3591 -0.0461
 7882TIP3   OH245060   2.586   6.652  12.986  0.2290 -0.0242  0.2721
 7882TIP3    H145061   2.615   6.671  12.897  0.2486  1.8367  0.6585
 7882TIP3    H245062   2.605   6.559  12.998  2.0584  0.1720 -0.9616
 7883TIP3   OH245063   0.114   3.324  17.088 -0.0925  0.0571 -0.3629
 7883TIP3    H145064   0.074   3.397  17.040 -1.2324  0.2282  0.8270
 7883TIP3    H245065   0.203   3.355  17.109 -0.4446  0.9646 -0.1796
 7884TIP3   OH245066   2.906   3.911   0.564  0.1061 -0.1100  0.3496
 7884TIP3    H145067   2.816   3.922   0.534  0.9073  0.5947 -1.8972
 7884TIP3    H245068   2.899   3.902   0.659 -2.6398 -3.3265 -0.0350
 7885TIP3   OH245069   5.797   2.420   3.019 -0.3589  0.4314  0.0773
 7885TIP3    H145070   5.828   2.330   3.013  2.3655  1.3965 -1.5294
 7885TIP3    H245071   5.726   2.417   3.083 -1.0979 -3.0265 -0.7879
 7886TIP3   OH245072   3.889   5.399   5.752 -0.0555 -0.0276 -0.1542
 7886TIP3    H145073   3.799   5.430   5.756  0.8311  2.5135  2.1153
 7886TIP3    H245074   3.897   5.338   5.825  0.0348 -0.2902 -0.3842
 7887TIP3   OH245075   6.285   4.112  12.602 -0.0069 -0.2392 -0.3153
 7887TIP3    H145076   6.342   4.138  12.529  1.1591 -1.2915  0.1905
 7887TIP3    H245077   6.345   4.104  12.677 -1.3575  1.9240  1.0425
 7888TIP3   OH245078   2.691   1.593  13.683 -0.0000 -0.0704  0.3615
 7888TIP3    H145079   2.615   1.612  13.628  0.8261  1.9779 -0.0746
 7888TIP3    H245080   2.657   1.531  13.748 -1.2015 -1.8127 -1.8528
 7889TIP3   OH245081   3.414   1.391   5.076 -0.6366  0.4391  0.2712
 7889TIP3    H145082   3.455   1.310   5.105 -0.9035  0.1497 -0.1675
 7889TIP3    H245083   3.385   1.373   4.987 -2.3026  0.4350  0.8099
 7890TIP3   OH245084   0.660   3.836   3.602 -0.5567  0.3205 -0.6643
 7890TIP3    H145085   0.629   3.779   3.531 -2.3550 -1.5461  1.5366
 7890TIP3    H245086   0.580   3.875   3.637  0.3361  1.4279  0.1431
 7891TIP3   OH245087   5.602   6.712   2.636 -0.2323 -0.3903  0.4819
 7891TIP3    H145088   5.628   6.634   2.684  1.5433  0.1324  0.4092
 7891TIP3    H245089   5.661   6.781   2.668 -0.8890  0.6028 -0.4051
 7892TIP3   OH245090   3.897   1.093   4.078  0.3749  0.1798  0.0064
 7892TIP3    H145091   3.949   1.038   4.136  1.6344  0.2259 -1.0411
 7892TIP3    H245092   3.841   1.031   4.030 -0.8441  0.1663  1.4168
 7893TIP3   OH245093   6.517   1.716   4.738  0.0332 -0.1681  0.2908
 7893TIP3    H145094   6.505   1.653   4.667  1.1823 -0.1288  0.0521
 7893TIP3    H245095   6.598   1.763   4.715 -0.2526  0.6868  0.9909
 7894TIP3   OH245096   4.124   3.889   5.326  0.3408  0.3536  0.1351
 7894TIP3    H145097   4.138   3.832   5.250 -0.0192  2.1340 -1.3088
 7894TIP3    H245098   4.208   3.888   5.372  0.4068 -1.1473  0.0019
 7895TIP3   OH245099   5.620   2.234  11.410 -0.2661  0.0883 -0.1634
 7895TIP3    H145100   5.660   2.159  11.366 -1.8083 -0.6483 -0.3216
 7895TIP3    H245101   5.546   2.259  11.354 -0.6905  0.7562  0.6842
 7896TIP3   OH245102   1.308   0.963   0.559  0.5574  0.1081  0.6716
 7896TIP3    H145103   1.317   1.048   0.601  0.0151  0.1655  0.6758
 7896TIP3    H245104   1.217   0.960   0.530  0.8689 -0.0268 -0.2923
 7897TIP3   OH245105   6.615   2.145   0.795 -0.0109 -0.4692 -0.3154
 7897TIP3    H145106   6.605   2.189   0.710  0.4916  0.4282  0.0758
 7897TIP3    H245107   6.573   2.205   0.857 -0.8338 -1.3716 -0.0018
 7898TIP3   OH245108   0.796   0.991   1.642 -0.1954  0.4112  0.3573
 7898TIP3    H145109   0.740   1.049   1.694  0.7128  0.9456  0.7489
 7898TIP3    H245110   0.819   1.042   1.564 -0.1921  0.2221  0.2336
 7899TIP3   OH245111   6.366   0.932  15.684 -0.2807 -0.4772  0.5671
 7899TIP3    H145112   6.456   0.921  15.713  0.0501  0.9537  0.1281
 7899TIP3    H245113   6.366   1.015  15.637 -1.5026 -1.2013 -0.7510
 7900TIP3   OH245114   5.108   1.249  12.650  0.2203  0.4076 -0.3552
 7900TIP3    H145115   5.147   1.171  12.611 -1.8603  0.2959 -2.3081
 7900TIP3    H245116   5.024   1.220  12.684 -0.9005  1.9226 -1.7595
 7901TIP3   OH245117   2.860   4.145  16.954 -0.3090  0.2520 -0.1918
 7901TIP3    H145118   2.955   4.149  16.949 -0.2948 -0.4430 -0.4838
 7901TIP3    H245119   2.841   4.095  17.033 -0.4120 -0.7876 -0.8570
 7902TIP3   OH245120   3.919   2.634  17.176 -0.1203 -0.8634 -0.6640
 7902TIP3    H145121   3.956   2.569  17.236  1.1112  0.3468 -0.0858
 7902TIP3    H245122   3.830   2.604  17.160 -0.2044 -1.6456  1.1465
 7903TIP3   OH245123   6.719   0.466   3.868  0.0669 -0.4100  0.1964
 7903TIP3    H145124   6.765   0.384   3.849  0.0668 -0.7700  1.7022
 7903TIP3    H245125   6.754   0.529   3.805  0.6315 -1.3777 -0.4535
 7904TIP3   OH245126   4.445   3.027   5.827  0.3336  0.2814 -0.2692
 7904TIP3    H145127   4.361   2.981   5.831 -1.4185  3.4135  0.4480
 7904TIP3    H245128   4.484   3.011   5.913  0.5413 -1.2947 -0.6477
 7905TIP3   OH245129   4.517   2.697  12.562 -0.4508 -0.4948 -0.2276
 7905TIP3    H145130   4.604   2.662  12.582 -0.6776 -1.3826 -0.7448
 7905TIP3    H245131   4.479   2.718  12.648  0.3043 -0.0092 -0.0054
 7906TIP3   OH245132   0.002   0.267   0.665  0.3421  0.5617 -0.3397
 7906TIP3    H145133  -0.033   0.220   0.590  0.6900  0.1566 -0.2463
 7906TIP3    H245134   0.026   0.199   0.728  1.6835  0.8166 -0.5615
 7907TIP3   OH245135   1.793   6.559   0.310  0.1981  0.1630  0.2993
 7907TIP3    H145136   1.788   6.627   0.378  0.8788  0.1697  0.3410
 7907TIP3    H245137   1.883   6.563   0.278  0.7034 -1.7220  1.3552
 7908TIP3   OH245138   1.498   1.936  11.418  0.1207 -0.4959  0.0020
 7908TIP3    H145139   1.426   1.945  11.480  0.1716 -0.1360  0.0106
 7908TIP3    H245140   1.575   1.966  11.466  0.3554 -1.3213  0.1448
 7909TIP3   OH245141   5.405   2.570   1.050  0.3589 -0.2891 -0.3413
 7909TIP3    H145142   5.439   2.550   0.963  0.8859  1.2422 -0.4993
 7909TIP3    H245143   5.436   2.659   1.068  1.7775 -1.2270  2.1352
 7910TIP3   OH245144   0.719   2.919  16.374  0.2044 -0.0042  0.2282
 7910TIP3    H145145   0.673   2.859  16.315 -1.8549  1.1944  0.5647
 7910TIP3    H245146   0.701   2.884  16.462 -0.9625  1.0354  0.4230
 7911TIP3   OH245147   5.531   6.266  13.590  0.0492 -1.1429 -0.1732
 7911TIP3    H145148   5.478   6.298  13.663 -0.9912 -1.9639 -0.5478
 7911TIP3    H245149   5.586   6.197  13.629  1.0934 -0.0620  0.2826
 7912TIP3   OH245150   4.581   2.982   6.057 -0.1456 -0.1113 -1.0380
 7912TIP3    H145151   4.647   2.913   6.070 -0.5669 -0.5286 -1.1146
 7912TIP3    H245152   4.602   3.047   6.124  1.4671  0.6259 -2.2153
 7913TIP3   OH245153   3.368   5.661   4.991  0.0023 -0.2656 -0.4754
 7913TIP3    H145154   3.418   5.646   4.910  0.0740 -2.7030 -0.0362
 7913TIP3    H245155   3.281   5.624   4.972  0.6790 -2.8295  1.2638
 7914TIP3   OH245156   1.682   0.552   5.787  0.6190  0.5360 -0.0938
 7914TIP3    H145157   1.714   0.471   5.826  1.6468  0.2747 -1.4332
 7914TIP3    H245158   1.754   0.582   5.732 -0.2780  1.6167 -0.7025
 7915TIP3   OH245159   4.334   1.624  16.655  0.8382  0.3664 -0.3259
 7915TIP3    H145160   4.245   1.608  16.623  0.3534  0.9393  0.7087
 7915TIP3    H245161   4.357   1.708  16.617 -0.1879  1.6127  1.7356
 7916TIP3   OH245162   2.740   6.411  13.531 -0.0222  0.3188  0.3447
 7916TIP3    H145163   2.769   6.407  13.440 -0.0868  0.1435  0.3338
 7916TIP3    H245164   2.683   6.335  13.542 -1.8614  1.5881 -0.1242
 7917TIP3   OH245165   1.153   4.660  13.458  0.2882 -0.1457 -0.1359
 7917TIP3    H145166   1.245   4.672  13.481  0.3386  0.4070 -0.5883
 7917TIP3    H245167   1.105   4.704  13.528  0.3048 -1.9698  1.0415
 7918TIP3   OH245168   4.792   2.922   4.137 -0.2224 -0.9832  0.3701
 7918TIP3    H145169   4.773   2.842   4.186 -0.7665 -0.2703  1.3603
 7918TIP3    H245170   4.849   2.973   4.196  0.5790 -0.8870 -0.4823
 7919TIP3   OH245171   5.362   4.776  16.361  0.7258 -0.3466 -0.3666
 7919TIP3    H145172   5.378   4.783  16.267  1.1849  1.8865 -0.1467
 7919TIP3    H245173   5.425   4.836  16.401 -0.3446 -0.2757  1.2642
 7920TIP3   OH245174   4.806   5.048   1.711  0.1342 -0.3195  0.0259
 7920TIP3    H145175   4.857   4.991   1.653 -1.1549  0.1158 -1.5593
 7920TIP3    H245176   4.725   5.064   1.664  0.5166  2.9278  0.3837
 7921TIP3   OH245177   6.353   6.398   0.080 -0.4461 -0.1400  0.1609
 7921TIP3    H145178   6.404   6.332   0.034  1.3087 -0.9681  3.1436
 7921TIP3    H245179   6.370   6.479   0.033 -2.0237 -1.5899 -3.0925
 7922TIP3   OH245180   5.960   5.885   3.241  0.0378 -0.1795  0.1347
 7922TIP3    H145181   5.949   5.791   3.251 -0.5131 -0.0753  0.5325
 7922TIP3    H245182   5.956   5.901   3.147  1.0068 -0.6574  0.0048
 7923TIP3   OH245183   0.365   0.317   6.162 -0.2502 -0.6251 -0.2156
 7923TIP3    H145184   0.322   0.237   6.192 -0.2707 -0.7203 -0.4958
 7923TIP3    H245185   0.456   0.306   6.189 -0.2367 -0.7781 -0.3218
 7924TIP3   OH245186   3.317   4.730  15.788 -0.5917 -0.0509  0.1726
 7924TIP3    H145187   3.380   4.739  15.717  1.6331 -0.7903  1.9804
 7924TIP3    H245188   3.280   4.642  15.777  1.4101 -1.0515  1.2002
 7925TIP3   OH245189   4.734   5.829  12.745 -0.3403  0.4316 -0.4629
 7925TIP3    H145190   4.661   5.888  12.763  0.0368  0.6853  0.2703
 7925TIP3    H245191   4.807   5.887  12.724  0.2337  0.2543  1.0234
 7926TIP3   OH245192   6.375   1.436   1.617  0.3727  0.5766 -0.0440
 7926TIP3    H145193   6.339   1.525   1.610 -1.7441 -0.1995  0.8815
 7926TIP3    H245194   6.402   1.428   1.708 -2.5283 -0.8610  0.7442
 7927TIP3   OH245195   3.653   6.596  13.043 -0.2154  0.0285  0.1343
 7927TIP3    H145196   3.680   6.505  13.027  0.7702  0.3202  0.1137
 7927TIP3    H245197   3.702   6.647  12.978 -1.1908  0.5131 -0.2182
 7928TIP3   OH245198   3.013   0.023  13.855  0.5024 -0.4242 -0.6390
 7928TIP3    H145199   3.065   0.079  13.797  1.1388 -2.2543 -1.9139
 7928TIP3    H245200   2.923   0.052  13.842  0.8098  0.2191 -1.3924
 7929TIP3   OH245201   1.713   6.567   3.963  0.4299  0.4605 -0.0102
 7929TIP3    H145202   1.798   6.574   3.918  0.8559  0.3770  0.7703
 7929TIP3    H245203   1.658   6.633   3.921  1.4883  1.8921  0.8093
 7930TIP3   OH245204   4.409   4.347   3.745  0.4676  0.0708 -0.2556
 7930TIP3    H145205   4.498   4.333   3.779 -0.5871  0.1924  2.6875
 7930TIP3    H245206   4.417   4.424   3.689  2.6372 -1.2003 -1.7992
 7931TIP3   OH245207   4.259   6.139  14.534  0.3341 -0.0700 -0.5155
 7931TIP3    H145208   4.299   6.120  14.618 -1.5761  1.2949  0.7489
 7931TIP3    H245209   4.257   6.054  14.488  1.4139 -0.8106  0.7871
 7932TIP3   OH245210   6.300   3.870  16.236  0.2448 -0.5449  0.3861
 7932TIP3    H145211   6.321   3.963  16.228  0.2962 -0.6109 -0.2821
 7932TIP3    H245212   6.385   3.827  16.245  0.2551 -0.5816  0.1103
 7933TIP3   OH245213   1.826   6.370  13.742 -0.5479  0.0221 -0.1235
 7933TIP3    H145214   1.878   6.450  13.733 -0.5680  0.1143  0.6171
 7933TIP3    H245215   1.888   6.304  13.772 -0.9724  0.2648  1.2935
 7934TIP3   OH245216   0.358   1.501   3.917 -0.0694  0.3150 -0.3201
 7934TIP3    H145217   0.362   1.481   3.823  1.1811  0.7233 -0.3683
 7934TIP3    H245218   0.283   1.452   3.949 -0.5541  0.2343 -1.5579
 7935TIP3   OH245219   2.740   2.311   3.343 -0.2718 -0.0820  0.5009
 7935TIP3    H145220   2.760   2.220   3.364  0.4070  0.1027  0.6379
 7935TIP3    H245221   2.666   2.332   3.399 -0.9064 -0.7760 -0.0555
 7936TIP3   OH245222   3.912   2.486  16.623  0.1121  0.3167 -0.5547
 7936TIP3    H145223   3.996   2.530  16.618  0.1554  0.4822  1.2619
 7936TIP3    H245224   3.906   2.455  16.714 -1.6151 -0.0197 -0.7541
 7937TIP3   OH245225   0.525   5.595   6.715 -0.1722  0.0695  0.0986
 7937TIP3    H145226   0.520   5.540   6.636 -0.6079  1.6150 -0.9656
 7937TIP3    H245227   0.608   5.642   6.706  0.5867 -0.9648  1.4040
 7938TIP3   OH245228   5.159   6.326   2.398 -0.0717 -0.1645 -0.6844
 7938TIP3    H145229   5.252   6.308   2.384  0.1530  0.7159 -0.3371
 7938TIP3    H245230   5.138   6.280   2.479  0.6517  1.6025  0.5312
 7939TIP3   OH245231   4.364   1.085   1.590 -0.3426 -0.1711 -0.2610
 7939TIP3    H145232   4.396   1.062   1.677 -1.0345  1.7531  0.5293
 7939TIP3    H245233   4.288   1.029   1.576  0.8661 -1.7982 -0.4167
 7940TIP3   OH245234   1.131   4.263  10.861 -0.0396  0.3048 -0.6239
 7940TIP3    H145235   1.208   4.224  10.821  0.2838 -0.6442  0.8910
 7940TIP3    H245236   1.151   4.267  10.954 -1.9399 -0.3019 -0.1549
 7941TIP3   OH245237   4.560   3.661   1.860 -0.1743  0.2665 -0.4567
 7941TIP3    H145238   4.561   3.703   1.946  0.5871 -0.0104 -0.3271
 7941TIP3    H245239   4.649   3.626   1.850 -0.3040  0.1847 -1.2954
 7942TIP3   OH245240   5.546   1.939  14.485 -0.0190 -0.5185  0.2138
 7942TIP3    H145241   5.595   1.967  14.563  1.2338 -0.9836 -0.3838
 7942TIP3    H245242   5.553   1.843  14.485  0.1274 -0.5155 -0.5454
 7943TIP3   OH245243   1.389   3.940  11.576  0.5086 -0.4963  0.6604
 7943TIP3    H145244   1.298   3.918  11.554 -0.5092  3.0944  0.8857
 7943TIP3    H245245   1.436   3.936  11.492 -0.2632 -0.6099  0.2276
 7944TIP3   OH245246   4.530   5.727  13.004 -0.3728 -0.2093 -0.1589
 7944TIP3    H145247   4.538   5.652  12.946  1.2678  1.3905 -2.1166
 7944TIP3    H245248   4.508   5.800  12.945 -0.4797  1.1128  1.4867
 7945TIP3   OH245249   2.347   5.715  16.603 -0.4867 -0.2808  0.0527
 7945TIP3    H145250   2.411   5.785  16.589 -2.3217  1.6200  0.8652
 7945TIP3    H245251   2.279   5.730  16.538 -1.4249 -0.6425  0.9259
 7946TIP3   OH245252   6.163   2.765  13.499 -0.1224  0.1376  0.2771
 7946TIP3    H145253   6.242   2.781  13.550  1.3271 -1.4119 -1.3694
 7946TIP3    H245254   6.196   2.741  13.412 -2.3368 -2.2314  0.0334
 7947TIP3   OH245255   3.224   6.732   4.876  0.0520  0.0403  0.0552
 7947TIP3    H145256   3.182   6.648   4.856 -0.3956  0.3819 -0.4049
 7947TIP3    H245257   3.161   6.798   4.850  1.0966  0.5686 -1.1639
 7948TIP3   OH245258   2.763   3.016  13.360  0.1439  0.0112  0.1346
 7948TIP3    H145259   2.792   2.925  13.360  1.9201  0.5564  0.2786
 7948TIP3    H245260   2.682   3.016  13.412 -1.1665 -1.8594 -1.8430
 7949TIP3   OH245261   1.876   5.232  12.969 -0.0892 -0.6041 -0.0696
 7949TIP3    H145262   1.945   5.255  13.031  0.0064  0.1140 -0.4357
 7949TIP3    H245263   1.799   5.214  13.024  0.2830 -1.0518  0.3140
 7950TIP3   OH245264   0.448   0.712  11.151 -0.0986 -0.3732 -0.6997
 7950TIP3    H145265   0.386   0.777  11.185  2.5943  0.9196  2.0090
 7950TIP3    H245266   0.418   0.629  11.186 -1.2084  0.0025 -0.7423
 7951TIP3   OH245267   0.102   1.455   2.762 -0.3774  0.1966 -0.5414
 7951TIP3    H145268   0.163   1.387   2.791 -1.1973 -0.6033 -0.6535
 7951TIP3    H245269   0.017   1.428   2.799 -0.4886  1.8026  0.4353
 7952TIP3   OH245270   5.492   3.580   5.594  0.7612  0.0587  0.8532
 7952TIP3    H145271   5.446   3.542   5.669  1.0451 -2.9869 -0.4155
 7952TIP3    H245272   5.422   3.618   5.540  0.3648  0.6538  1.7793
 7953TIP3   OH245273   3.261   5.229   3.277  0.1596 -0.9115 -0.2566
 7953TIP3    H145274   3.356   5.240   3.286  0.0455  0.0565 -0.2266
 7953TIP3    H245275   3.242   5.254   3.186 -0.6771  3.3876  0.9824
 7954TIP3   OH245276   5.508   3.225   2.913  0.1418 -0.3759 -0.4781
 7954TIP3    H145277   5.425   3.181   2.934  0.4581 -1.4709 -1.4325
 7954TIP3    H245278   5.546   3.248   2.997 -0.1746 -1.6958  0.0338
 7955TIP3   OH245279   5.898   5.253   5.706 -0.4386  0.3943  0.2843
 7955TIP3    H145280   5.893   5.217   5.794 -2.4316  1.8274  0.7883
 7955TIP3    H245281   5.897   5.348   5.718  0.0905  0.6182 -1.2476
 7956TIP3   OH245282   1.981   5.100   1.489  0.2404  0.1287  0.5020
 7956TIP3    H145283   2.014   5.088   1.578 -1.1773 -1.0108  0.9007
 7956TIP3    H245284   1.949   5.190   1.488  0.4460  0.2146  1.0979
 7957TIP3   OH245285   4.450   0.199  16.415  0.1920  0.8399  0.1014
 7957TIP3    H145286   4.452   0.103  16.416 -1.9588  0.7517 -0.3990
 7957TIP3    H245287   4.403   0.221  16.335  0.2084  2.3080  0.4799
 7958TIP3   OH245288   2.235   2.815   6.320 -0.2668 -0.0830  0.3614
 7958TIP3    H145289   2.208   2.882   6.384  0.2831  0.4485  0.0416
 7958TIP3    H245290   2.267   2.743   6.374 -0.3320  0.1367  0.7035
 7959TIP3   OH245291   0.779   2.661   0.070 -0.2699  0.4124 -1.0935
 7959TIP3    H145292   0.779   2.566   0.078  1.3457  0.4948  0.0768
 7959TIP3    H245293   0.686   2.686   0.074 -0.5727 -0.9474  0.5690
 7960TIP3   OH245294   4.302   4.576   5.786 -0.4872 -0.6594  0.3153
 7960TIP3    H145295   4.297   4.564   5.881  1.3391  0.9192  0.6573
 7960TIP3    H245296   4.267   4.664   5.771  1.1820 -0.0729 -0.2187
 7961TIP3   OH245297   6.760   5.729  14.969 -0.2214 -0.1280 -0.1779
 7961TIP3    H145298   6.774   5.762  14.881  0.7234 -0.0068  0.0101
 7961TIP3    H245299   6.699   5.656  14.959 -1.0690  0.6535 -0.7809
 7962TIP3   OH245300   0.554   4.196  13.647  0.0798  0.4026 -0.7091
 7962TIP3    H145301   0.532   4.284  13.616  1.1034  0.4843 -1.2318
 7962TIP3    H245302   0.629   4.170  13.594  0.5007 -0.3330  0.2274
 7963TIP3   OH245303   2.643   0.954  12.908 -0.1250  0.9129  0.0889
 7963TIP3    H145304   2.691   0.897  12.968  1.9294  0.6981 -1.6945
 7963TIP3    H245305   2.668   1.043  12.935 -0.6988  0.8908  0.7253
 7964TIP3   OH245306   2.469   2.650  12.955 -0.4434 -0.4017 -0.0419
 7964TIP3    H145307   2.492   2.623  12.866 -1.3696 -0.9818 -0.1121
 7964TIP3    H245308   2.435   2.738  12.946  0.3989 -0.0775 -0.1226
 7965TIP3   OH245309   1.514   3.631  12.444 -0.2275  0.1003  0.4417
 7965TIP3    H145310   1.429   3.605  12.408  0.1956  2.1035 -2.1358
 7965TIP3    H245311   1.571   3.555  12.428 -1.1353 -0.6881  0.8759
 7966TIP3   OH245312   3.895   5.441  10.796 -0.6338  0.0997 -0.7095
 7966TIP3    H145313   3.915   5.355  10.760 -0.5667 -1.0112  1.9259
 7966TIP3    H245314   3.800   5.449  10.788 -0.7245 -0.5367 -0.2625
 7967TIP3   OH245315   4.291   5.569   4.205 -0.1604  0.2085 -0.0592
 7967TIP3    H145316   4.314   5.637   4.268  1.3568  1.6898 -2.1531
 7967TIP3    H245317   4.290   5.614   4.121  2.3800 -2.6632 -1.7038
 7968TIP3   OH245318   6.358   5.907   4.483 -0.0086  0.0426 -0.2456
 7968TIP3    H145319   6.333   5.978   4.542 -0.0426  0.4867 -0.7917
 7968TIP3    H245320   6.335   5.938   4.396  0.3424 -0.4785 -0.5304
 7969TIP3   OH245321   3.119   5.621   4.172 -0.0743 -0.2040  0.0368
 7969TIP3    H145322   3.190   5.575   4.127 -0.6822  1.4106 -2.7193
 7969TIP3    H245323   3.162   5.669   4.242  1.4846  0.1789 -1.1462
 7970TIP3   OH245324   5.081   0.603  12.003  0.3032 -0.0536 -0.0293
 7970TIP3    H145325   4.985   0.600  12.007  0.3395 -0.7761  0.2849
 7970TIP3    H245326   5.105   0.537  11.939  0.5835  0.2632 -0.2527
 7971TIP3   OH245327   0.084   5.347   2.791  0.5729 -0.5851 -0.0174
 7971TIP3    H145328   0.110   5.384   2.874  1.1520  0.1889 -0.5394
 7971TIP3    H245329   0.122   5.259   2.790  0.5673 -0.5903  0.5277
 7972TIP3   OH245330   4.676   3.528   0.403  0.1321  0.4562  0.1891
 7972TIP3    H145331   4.595   3.543   0.452 -0.0805 -0.2330  0.0615
 7972TIP3    H245332   4.711   3.616   0.386 -0.3085  0.7355  0.7075
 7973TIP3   OH245333   5.135   5.079  15.017  0.1206 -0.1682 -0.2556
 7973TIP3    H145334   5.155   5.142  15.087  1.4452 -0.1263 -0.6450
 7973TIP3    H245335   5.078   5.014  15.058  0.4471  0.1508  0.7156
 7974TIP3   OH245336   4.497   0.199  10.056  0.5351 -0.2033  0.1229
 7974TIP3    H145337   4.529   0.190   9.966  0.6163  1.4764 -0.0321
 7974TIP3    H245338   4.408   0.165  10.053  0.4760  0.0013 -0.6419
 7975TIP3   OH245339   4.507   5.741   5.247  0.0776 -0.0341 -0.5213
 7975TIP3    H145340   4.447   5.678   5.206 -0.3307  0.1261 -0.1645
 7975TIP3    H245341   4.532   5.700   5.330 -1.3109  0.9162  0.3814
 7976TIP3   OH245342   6.001   5.379  12.839  0.0589  0.2378 -0.1432
 7976TIP3    H145343   6.061   5.448  12.809  0.6262 -0.0725  0.2743
 7976TIP3    H245344   6.050   5.298  12.828 -0.1193  0.0232  0.6299
 7977TIP3   OH245345   4.881   5.946  13.662 -0.1778 -0.7370  0.3945
 7977TIP3    H145346   4.849   5.857  13.677 -0.0374 -0.8008  0.3141
 7977TIP3    H245347   4.883   5.985  13.750  0.7757 -1.1636  0.5689
 7978TIP3   OH245348   4.760   2.255  12.981  0.0009  0.3253 -0.3195
 7978TIP3    H145349   4.727   2.334  12.940  1.9946  1.7983  0.8220
 7978TIP3    H245350   4.851   2.249  12.952  0.2105 -0.8841  0.5398
 7979TIP3   OH245351   6.570   2.287   6.331 -0.1120  0.1732  0.3647
 7979TIP3    H145352   6.643   2.273   6.271 -1.4091  0.2073 -1.2526
 7979TIP3    H245353   6.492   2.288   6.275 -1.3897 -0.1483  2.0821
 7980TIP3   OH245354   6.044   4.781  11.399  0.1496  0.0994  0.1066
 7980TIP3    H145355   5.978   4.714  11.416 -0.1966  0.3597 -0.2162
 7980TIP3    H245356   6.017   4.822  11.317  1.0264 -0.1870 -0.3377
 7981TIP3   OH245357   4.908   4.695   4.500  0.2669  0.4165 -0.0935
 7981TIP3    H145358   4.848   4.626   4.528  0.0112  0.4916 -0.4446
 7981TIP3    H245359   4.986   4.648   4.468 -1.2514  0.0859 -3.5908
 7982TIP3   OH245360   6.208   6.682  15.552  0.2117  0.5228 -0.3660
 7982TIP3    H145361   6.221   6.696  15.646  5.0172 -3.3080 -0.2772
 7982TIP3    H245362   6.159   6.601  15.546  0.0001  0.7017 -1.1995
 7983TIP3   OH245363   5.917   5.373   0.039  0.2010 -0.6547  0.2119
 7983TIP3    H145364   5.860   5.359  -0.037  0.2666 -1.0180  0.2294
 7983TIP3    H245365   5.982   5.436   0.009  1.4901 -2.3809 -0.6918
 7984TIP3   OH245366   3.516   4.379   6.455 -1.0823  0.0351  0.3439
 7984TIP3    H145367   3.550   4.293   6.480 -1.8680 -1.0236 -2.0287
 7984TIP3    H245368   3.426   4.379   6.487 -2.7035 -2.0639 -3.8127
 7985TIP3   OH245369   3.078   2.282   2.935 -0.5101  0.3505 -0.0809
 7985TIP3    H145370   3.114   2.353   2.881 -0.1867  0.4505  0.2637
 7985TIP3    H245371   3.124   2.204   2.906  0.9557  0.6975  1.2866
 7986TIP3   OH245372   4.483   2.235   2.348 -0.3772  0.0023  0.1538
 7986TIP3    H145373   4.577   2.237   2.328 -0.4272  1.1530 -0.0022
 7986TIP3    H245374   4.469   2.311   2.404 -0.7817 -1.5203  2.1712
 7987TIP3   OH245375   1.519   5.572  15.955  0.4331 -0.2736 -0.3878
 7987TIP3    H145376   1.520   5.485  15.995  2.6894 -0.0706  0.0671
 7987TIP3    H245377   1.599   5.614  15.987  0.2672  1.3289 -1.9931
 7988TIP3   OH245378   4.248   3.744   1.853  0.2655  0.4909 -0.5248
 7988TIP3    H145379   4.211   3.708   1.934 -0.6440 -1.8585 -1.9217
 7988TIP3    H245380   4.172   3.776   1.804  0.3985 -1.1745 -1.8852
 7989TIP3   OH245381   2.132   6.383   2.044 -0.0575 -0.5091 -0.0246
 7989TIP3    H145382   2.222   6.388   2.012 -0.2847 -1.9727 -0.9223
 7989TIP3    H245383   2.140   6.391   2.139  0.7973  1.8322 -0.2381
 7990TIP3   OH245384   6.427   6.477   4.043 -0.2790 -0.1750  0.7045
 7990TIP3    H145385   6.420   6.546   4.109 -2.4377  0.4773 -0.1464
 7990TIP3    H245386   6.518   6.448   4.047  0.7048  2.8078  1.0098
 7991TIP3   OH245387   2.038   3.571   0.685  0.0172  0.2459 -0.5281
 7991TIP3    H145388   1.972   3.556   0.752 -0.0265 -0.5249 -0.7422
 7991TIP3    H245389   2.019   3.506   0.617  1.2409 -0.2664 -0.3948
 7992TIP3   OH245390   3.727   5.147  13.217 -0.3079 -0.0719  0.0703
 7992TIP3    H145391   3.702   5.081  13.281 -1.7235  0.2053 -0.1775
 7992TIP3    H245392   3.783   5.208  13.265 -1.1861  0.0181  0.9956
 7993TIP3   OH245393   5.040   0.084   3.955  0.4074  0.0888 -0.0724
 7993TIP3    H145394   5.117   0.027   3.950  1.0225  0.9378 -0.4168
 7993TIP3    H245395   4.968   0.030   3.923  1.1332 -0.2401 -1.1695
 7994TIP3   OH245396   5.086   3.963   2.779  0.4781 -0.8417 -0.1235
 7994TIP3    H145397   5.080   3.966   2.874  0.8478 -0.0292 -0.1254
 7994TIP3    H245398   5.036   4.039   2.748  1.7250 -0.1586 -0.5054
 7995TIP3   OH245399   2.970   3.362  15.400 -0.4993 -0.7942 -0.1660
 7995TIP3    H145400   2.899   3.356  15.336 -0.1536 -0.2204 -0.6098
 7995TIP3    H245401   2.941   3.308  15.473  0.0479 -3.3225 -1.7207
 7996TIP3   OH245402   5.757   1.150  15.540 -0.0656 -0.2175 -0.3364
 7996TIP3    H145403   5.818   1.216  15.574 -0.6040  0.9373 -1.5675
 7996TIP3    H245404   5.812   1.089  15.492  0.4124 -0.5479  0.6227
 7997TIP3   OH245405   3.305   3.744   3.200 -0.4056 -0.3777 -0.2980
 7997TIP3    H145406   3.368   3.696   3.146 -1.2419  0.3373 -1.9488
 7997TIP3    H245407   3.237   3.772   3.138  0.3413  3.4223  0.4597
 7998TIP3   OH245408   1.610   6.720  16.341 -0.2822 -0.7056 -0.1776
 7998TIP3    H145409   1.552   6.689  16.271 -0.7453 -2.3964  0.9456
 7998TIP3    H245410   1.698   6.700  16.310 -0.4593 -0.9887 -0.4945
 7999TIP3   OH245411   0.384   2.573   4.680 -0.1410 -0.2078  0.2361
 7999TIP3    H145412   0.398   2.479   4.691  0.4660 -0.0243  1.0585
 7999TIP3    H245413   0.298   2.580   4.638 -0.6502 -1.0918  1.1071
 8000TIP3   OH245414   1.065   2.498   1.289  0.1190 -0.2063  0.1371
 8000TIP3    H145415   1.158   2.476   1.277 -0.1356 -0.1492 -2.1757
 8000TIP3    H245416   1.063   2.549   1.369  1.9980 -0.7994  0.6014
 8001TIP3   OH245417   0.056   3.294   2.012  0.5977 -0.4296  0.1502
 8001TIP3    H145418   0.074   3.333   1.927 -2.1862 -1.1947 -0.8371
 8001TIP3    H245419   0.056   3.367   2.073 -0.4819  0.5629 -1.0257
 8002TIP3   OH245420   6.624   0.900   2.966  0.7137  0.1514 -0.0459
 8002TIP3    H145421   6.591   0.868   2.882  0.9756  2.8568 -1.2261
 8002TIP3    H245422   6.676   0.978   2.944  1.4346  0.4573  2.5435
 8003TIP3   OH245423   2.003   6.211   2.580 -0.1633 -0.4154 -0.0146
 8003TIP3    H145424   2.009   6.254   2.495  0.9783 -0.7919 -0.1346
 8003TIP3    H245425   2.022   6.280   2.644 -0.5852 -0.2310 -0.0887
 8004TIP3   OH245426   0.592   4.141   1.129 -0.0601 -0.2125  0.0503
 8004TIP3    H145427   0.617   4.074   1.066  1.8970 -0.5489  1.1577
 8004TIP3    H245428   0.633   4.221   1.096 -1.2995  0.1793 -0.5608
 8005TIP3   OH245429   5.816   4.661  11.354  0.4772  0.4569 -0.0918
 8005TIP3    H145430   5.736   4.616  11.381  0.4266  0.3691 -0.3858
 8005TIP3    H245431   5.792   4.707  11.274  0.7198  0.4295 -0.1802
 8006TIP3   OH245432   6.672   4.621  14.038 -0.3108  0.1465 -0.1746
 8006TIP3    H145433   6.714   4.648  14.120  0.2402 -1.6393  0.1411
 8006TIP3    H245434   6.731   4.653  13.970  0.6135 -0.6891  0.2141
 8007TIP3   OH245435   5.443   5.730   6.042  0.3136  0.1053 -0.4774
 8007TIP3    H145436   5.434   5.637   6.061 -1.1553  0.3817  0.3060
 8007TIP3    H245437   5.354   5.758   6.018  0.4735  1.5647  0.5749
 8008TIP3   OH245438   2.310   5.337  16.741 -0.2464  0.6405  0.2579
 8008TIP3    H145439   2.307   5.397  16.816 -2.3052  0.2193  0.5592
 8008TIP3    H245440   2.255   5.263  16.768  0.1574 -0.1666 -1.1162
 8009TIP3   OH245441   3.891   3.583   5.604 -0.4709 -0.2159 -0.1351
 8009TIP3    H145442   3.962   3.632   5.563 -1.2032  1.0183  0.0694
 8009TIP3    H245443   3.909   3.491   5.581 -0.7175  0.3962 -3.0037
 8010TIP3   OH245444   4.890   1.674   1.811  0.1023  0.0121  0.3978
 8010TIP3    H145445   4.862   1.647   1.898  3.2646  0.4469  1.6196
 8010TIP3    H245446   4.857   1.764   1.802 -1.6701 -0.6198  0.4381
 8011TIP3   OH245447   4.689   6.529   2.600  0.0496 -0.6689 -0.0916
 8011TIP3    H145448   4.616   6.591   2.603 -0.3150 -1.1334  0.7777
 8011TIP3    H245449   4.742   6.559   2.526  0.5054  1.4199  1.0198
 8012TIP3   OH245450   4.859   5.191   1.057 -0.0606 -0.0583  0.0551
 8012TIP3    H145451   4.856   5.123   0.989  0.5344 -0.0977  0.0627
 8012TIP3    H245452   4.827   5.148   1.136 -1.9053  0.3140 -0.4643
 8013TIP3   OH245453   2.649   4.707  12.184 -0.0129 -0.1460  0.0768
 8013TIP3    H145454   2.692   4.748  12.259 -0.6132 -0.7299  0.7456
 8013TIP3    H245455   2.572   4.762  12.168 -0.2065 -0.3661  0.2595
 8014TIP3   OH245456   0.209   5.755   2.980  0.3843 -0.2563  0.3096
 8014TIP3    H145457   0.299   5.782   2.994  0.1928 -0.2199  1.5429
 8014TIP3    H245458   0.172   5.822   2.923  1.0832 -0.1826 -0.0618
 8015TIP3   OH245459   4.268   0.070  15.917 -1.0044  0.1503  0.3109
 8015TIP3    H145460   4.309   0.086  15.832  0.0834  0.3462  0.8690
 8015TIP3    H245461   4.174   0.081  15.900 -0.8608 -0.5319 -1.0208
 8016TIP3   OH245462   5.268   3.917  11.984 -0.4188  0.1361 -0.4450
 8016TIP3    H145463   5.324   3.855  12.031  0.0491  0.8377 -0.0808
 8016TIP3    H245464   5.196   3.862  11.950 -0.2844 -0.5241  0.3100
 8017TIP3   OH245465   1.849   5.068   6.067 -0.2424  0.0551  0.5914
 8017TIP3    H145466   1.815   4.979   6.068 -1.7365  0.5824 -0.4297
 8017TIP3    H245467   1.804   5.113   6.138 -0.2187  0.2334  0.4969
 8018TIP3   OH245468   0.620   0.699  16.086 -0.2186  0.2209 -0.7433
 8018TIP3    H145469   0.666   0.619  16.060  0.7401  0.4497  0.1664
 8018TIP3    H245470   0.574   0.675  16.167  0.3097  0.6606 -0.3072
 8019TIP3   OH245471   3.816   0.318   5.657  0.5663  0.0827  0.0290
 8019TIP3    H145472   3.766   0.310   5.576 -0.0252  0.4726  0.3507
 8019TIP3    H245473   3.814   0.230   5.696  0.6346 -0.0436 -0.2539
 8020TIP3   OH245474   0.595   6.725  12.731  0.3541  0.0754  0.0706
 8020TIP3    H145475   0.659   6.767  12.789 -0.1714  1.3998 -0.3122
 8020TIP3    H245476   0.636   6.728  12.645 -0.0692  0.5969 -0.1107
 8021TIP3   OH245477   3.715   4.259  14.781 -0.5661  0.3712  0.5512
 8021TIP3    H145478   3.759   4.344  14.770  0.3746 -0.0920  0.7079
 8021TIP3    H245479   3.635   4.280  14.829  0.0589  1.0607  1.3038
 8022TIP3   OH245480   4.882   2.483  11.893 -0.3105 -0.5557 -0.4357
 8022TIP3    H145481   4.816   2.447  11.835 -1.1057 -0.2712  0.2784
 8022TIP3    H245482   4.928   2.548  11.840  0.4802 -1.8850 -1.4256
 8023TIP3   OH245483   6.567   0.571  13.922 -0.3766 -0.0749 -0.1432
 8023TIP3    H145484   6.612   0.601  13.843 -1.3574 -0.3692 -0.8212
 8023TIP3    H245485   6.570   0.646  13.981  2.4605 -0.6017  0.4899
 8024TIP3   OH245486   3.648   2.461  12.858  0.3843  0.1007  0.4870
 8024TIP3    H145487   3.706   2.391  12.825  0.4067  0.3162  0.0702
 8024TIP3    H245488   3.689   2.542  12.827  0.3414  0.3013  0.9489
 8025TIP3   OH245489   6.660   5.911   0.895 -0.3949 -0.2810 -0.3674
 8025TIP3    H145490   6.582   5.965   0.909  0.6500  1.2447 -0.3581
 8025TIP3    H245491   6.723   5.970   0.854  0.9773 -1.3416  0.1775
 8026TIP3   OH245492   3.970   5.189  15.129 -0.1214  0.6911 -0.1065
 8026TIP3    H145493   3.954   5.172  15.036  0.1753  0.3326 -0.0933
 8026TIP3    H245494   4.062   5.216  15.133 -0.1910  0.9071  0.0587
 8027TIP3   OH245495   1.169   0.308   3.548  0.2999  0.7052 -0.0928
 8027TIP3    H145496   1.108   0.362   3.498  0.7029  0.1193 -1.2249
 8027TIP3    H245497   1.119   0.229   3.568  0.6597  0.2531 -0.9647
 8028TIP3   OH245498   2.039   5.696   6.414  0.0648 -0.6845  0.6412
 8028TIP3    H145499   1.957   5.651   6.392 -0.4230  0.9777 -1.1255
 8028TIP3    H245500   2.107   5.645   6.371 -0.3734 -0.4286 -0.3866
 8029TIP3   OH245501   1.833   0.820  16.580 -0.4939  0.2243  0.4781
 8029TIP3    H145502   1.871   0.821  16.668 -1.7603  0.0030  1.0489
 8029TIP3    H245503   1.819   0.913  16.559  1.2182  0.3579 -0.1320
 8030TIP3   OH245504   3.969   0.774  15.124 -0.5792 -0.0442  0.1023
 8030TIP3    H145505   3.880   0.810  15.117 -0.2628  0.8099  0.3843
 8030TIP3    H245506   3.992   0.748  15.035 -1.3841 -0.9259  0.1480
 8031TIP3   OH245507   1.689   1.791   0.874  0.5022 -0.2746 -0.0085
 8031TIP3    H145508   1.745   1.753   0.807 -0.4918 -0.0449 -0.9875
 8031TIP3    H245509   1.718   1.882   0.880  1.9356 -0.8021  1.3263
 8032TIP3   OH245510   5.206   6.057   5.389  0.0974  0.7167  0.3409
 8032TIP3    H145511   5.273   6.062   5.457  0.3216  0.7478  0.1171
 8032TIP3    H245512   5.248   6.009   5.318  0.0430  1.1665  0.0090
 8033TIP3   OH245513   6.064   1.092   4.733  0.1149  0.3902 -0.1739
 8033TIP3    H145514   6.154   1.061   4.721  0.3398  0.0176  2.2334
 8033TIP3    H245515   6.013   1.013   4.749 -0.6806  0.5849 -1.7221
 8034TIP3   OH245516   4.965   2.205  12.559  0.4827 -0.0400  0.4327
 8034TIP3    H145517   4.996   2.215  12.470 -0.0662 -0.6744  0.1633
 8034TIP3    H245518   4.871   2.187  12.550  0.5980 -1.0458  1.0806
 8035TIP3   OH245519   0.124   5.758   1.571 -0.8841  0.0594  0.2387
 8035TIP3    H145520   0.210   5.743   1.610 -0.5865 -0.3921 -0.5960
 8035TIP3    H245521   0.067   5.693   1.612 -0.4629 -0.7375 -0.4377
 8036TIP3   OH245522   2.877   4.208  13.775 -0.4697 -0.0915 -0.3172
 8036TIP3    H145523   2.915   4.295  13.765  0.7917 -0.7081 -1.0245
 8036TIP3    H245524   2.826   4.213  13.856 -0.2212  1.2304 -0.2306
 8037TIP3   OH245525   0.639   4.945  15.914 -0.0057  0.3662 -0.2173
 8037TIP3    H145526   0.703   4.937  15.842 -0.4328  1.9595 -0.8131
 8037TIP3    H245527   0.554   4.942  15.870 -0.2879  0.1843  0.3493
 8038TIP3   OH245528   3.164   1.744  15.174  0.3743  0.0380 -0.4426
 8038TIP3    H145529   3.072   1.758  15.196  0.0623 -1.3605 -0.7813
 8038TIP3    H245530   3.205   1.830  15.185 -0.3320  0.0223  2.7420
 8039TIP3   OH245531   6.265   4.073   1.200  0.1470 -0.0950  0.5443
 8039TIP3    H145532   6.333   4.030   1.148 -0.4116 -1.0492  0.5792
 8039TIP3    H245533   6.183   4.037   1.166 -0.3101  0.6350  0.8687
 8040TIP3   OH245534   4.515   1.489   1.954  0.2031  0.5117  0.0826
 8040TIP3    H145535   4.535   1.474   1.861 -0.9967  0.1943 -0.1350
 8040TIP3    H245536   4.518   1.402   1.993 -1.9149  0.2642 -0.2065
 8041TIP3   OH245537   1.478   5.396   1.051  0.0695 -0.2782 -0.4210
 8041TIP3    H145538   1.570   5.420   1.055 -0.5124  2.0086  0.0809
 8041TIP3    H245539   1.477   5.300   1.052  2.4430 -0.3163 -0.9333
 8042TIP3   OH245540   1.577   0.647   0.869 -0.5723  0.4449  0.3189
 8042TIP3    H145541   1.666   0.672   0.893  0.1129  0.1484 -1.8675
 8042TIP3    H245542   1.555   0.704   0.796 -2.2892  0.7023  1.0218
 8043TIP3   OH245543   3.229   6.446   1.647 -1.1989  0.1381  0.5429
 8043TIP3    H145544   3.207   6.451   1.741 -2.5965 -0.5063  0.2721
 8043TIP3    H245545   3.292   6.516   1.633 -2.4938  1.5534  1.5736
 8044TIP3   OH245546   2.442   5.471   6.752 -0.0526  0.0854 -0.7218
 8044TIP3    H145547   2.458   5.405   6.684  0.4040 -0.4238 -0.1219
 8044TIP3    H245548   2.465   5.554   6.710  1.4688 -0.3573 -0.7819
 8045TIP3   OH245549   6.776   0.472  16.971  0.3464  0.0324  0.3569
 8045TIP3    H145550   6.770   0.567  16.972 -0.9595 -0.0609  1.7260
 8045TIP3    H245551   6.820   0.452  16.888  0.8122  1.8220  0.1559
 8046TIP3   OH245552   2.699   1.484   4.475  0.0394 -0.1524  0.2040
 8046TIP3    H145553   2.738   1.542   4.540 -0.2355 -0.1898  0.4024
 8046TIP3    H245554   2.756   1.492   4.398 -0.0304  0.4202  0.2140
 8047TIP3   OH245555   0.819   4.818   4.438 -0.9065 -0.5430 -0.3422
 8047TIP3    H145556   0.821   4.863   4.354  0.8704  0.7193  0.3449
 8047TIP3    H245557   0.901   4.768   4.441 -0.9577 -0.5868  0.6259
 8048TIP3   OH245558   0.655   3.212   0.041 -0.4342 -0.6833 -0.0361
 8048TIP3    H145559   0.588   3.150   0.071 -0.6046 -0.2637  0.4641
 8048TIP3    H245560   0.687   3.175  -0.041 -1.6142 -0.6571 -0.5275
 8049TIP3   OH245561   0.727   4.418  14.972 -0.1000  0.2519  0.2828
 8049TIP3    H145562   0.711   4.415  15.067  1.5827 -1.0015  0.5461
 8049TIP3    H245563   0.819   4.441  14.964  0.1988 -1.3289 -1.0084
 8050TIP3   OH245564   5.384   4.276   3.919  0.3104 -0.1818  0.7082
 8050TIP3    H145565   5.452   4.338   3.895  1.9021 -1.2374  2.4008
 8050TIP3    H245566   5.351   4.308   4.003 -1.3489  0.3527 -0.1250
 8051TIP3   OH245567   6.721   3.504  16.981 -0.4485 -0.0620  0.3134
 8051TIP3    H145568   6.694   3.574  17.041  1.5250 -0.2256  1.4233
 8051TIP3    H245569   6.740   3.548  16.899  0.0318  0.6041  0.7798
 8052TIP3   OH245570   0.051   3.953  12.774 -0.0073  0.3492 -0.1165
 8052TIP3    H145571  -0.044   3.961  12.786 -0.1267 -1.4639  0.3979
 8052TIP3    H245572   0.063   3.940  12.680 -0.4968 -1.8906  0.1106
 8053TIP3   OH245573   4.346   6.110   1.516  0.0422 -0.3155 -0.2731
 8053TIP3    H145574   4.295   6.178   1.472  1.1403 -0.1508 -1.3107
 8053TIP3    H245575   4.298   6.093   1.597 -0.6060  1.2343 -0.3159
 8054TIP3   OH245576   6.625   5.496  14.891 -0.1220 -0.1769 -0.0074
 8054TIP3    H145577   6.598   5.466  14.804 -0.3311  0.0164 -0.0077
 8054TIP3    H245578   6.547   5.489  14.945 -0.7980  2.5545 -0.5666
 8055TIP3   OH245579   2.553   3.834   6.600 -0.1013 -0.2568 -0.5442
 8055TIP3    H145580   2.505   3.907   6.560 -1.3795 -0.8609 -0.1668
 8055TIP3    H245581   2.549   3.851   6.694  0.3033 -0.3866 -0.5021
 8056TIP3   OH245582   5.855   3.262  15.090  0.0654 -0.3342 -0.4507
 8056TIP3    H145583   5.804   3.286  15.012 -1.8456 -0.1212  0.8438
 8056TIP3    H245584   5.921   3.331  15.097  0.4166 -0.4884 -2.0214
 8057TIP3   OH245585   5.642   0.037  13.901  0.6041  0.1368  0.2180
 8057TIP3    H145586   5.559   0.066  13.938 -0.2147  0.3942 -1.7317
 8057TIP3    H245587   5.699   0.113  13.906  0.2322  0.4188  0.1919
 8058TIP3   OH245588   5.574   2.964   5.974 -0.6669  0.3443  0.2046
 8058TIP3    H145589   5.607   3.009   5.897  0.1328 -0.3790  0.1114
 8058TIP3    H245590   5.491   2.926   5.947 -2.2374  3.2322  0.7988
 8059TIP3   OH245591   0.626   1.638   1.207 -0.3610 -0.2428 -0.4179
 8059TIP3    H145592   0.654   1.546   1.203  0.3919 -0.0593  0.4445
 8059TIP3    H245593   0.657   1.676   1.125  2.2051  0.0093  0.5955
 8060TIP3   OH245594   0.096   4.985   2.278 -0.0534  0.2212  0.0882
 8060TIP3    H145595   0.166   5.008   2.340  0.4026  1.1979 -0.7730
 8060TIP3    H245596   0.016   5.017   2.319 -0.0116 -0.9321  1.1007
 8061TIP3   OH245597   1.914   6.457  10.471  0.3515 -0.6178  0.2684
 8061TIP3    H145598   1.943   6.506  10.394  0.7807 -0.3450  0.6005
 8061TIP3    H245599   1.847   6.512  10.510  1.3763  0.0709  1.0689
 8062TIP3   OH245600   5.292   2.094   6.484  0.0425 -0.2469  0.1824
 8062TIP3    H145601   5.311   2.186   6.498  2.3336 -0.4676 -1.1669
 8062TIP3    H245602   5.222   2.093   6.419  1.6371  0.5587 -1.5991
 8063TIP3   OH245603   6.164   5.019   5.792 -0.3229  0.2298  0.1533
 8063TIP3    H145604   6.100   5.002   5.861  0.2814 -1.7557  0.2589
 8063TIP3    H245605   6.164   5.114   5.782 -0.8974  0.5016  2.4391
 8064TIP3   OH245606   2.383   3.731  16.965 -0.7369  0.2025  0.1183
 8064TIP3    H145607   2.429   3.743  16.882 -0.7722 -0.2759  0.0258
 8064TIP3    H245608   2.311   3.793  16.961 -1.7521 -1.0125 -0.9568
 8065TIP3   OH245609   4.216   5.047   0.701 -0.4609 -0.0353 -0.0714
 8065TIP3    H145610   4.196   5.109   0.632 -1.3396  1.0675  1.1563
 8065TIP3    H245611   4.134   5.036   0.749  0.5036  0.3917  1.7227
 8066TIP3   OH245612   3.458   4.950   1.286 -0.0893  0.4265  0.4451
 8066TIP3    H145613   3.364   4.949   1.299 -0.3323  0.7011 -1.2301
 8066TIP3    H245614   3.470   4.951   1.191  1.5856  0.9798  0.6333
 8067TIP3   OH245615   3.208   4.568   2.348  0.3647 -0.1797 -0.1745
 8067TIP3    H145616   3.298   4.546   2.326  0.7479  1.2761 -0.1475
 8067TIP3    H245617   3.155   4.500   2.306  1.3169  0.4121 -2.3944
 8068TIP3   OH245618   0.816   0.416  16.816  0.9326 -0.0171  0.4242
 8068TIP3    H145619   0.751   0.388  16.751 -1.0030  0.3504  2.1160
 8068TIP3    H245620   0.832   0.338  16.869  1.1903  0.1270  0.5628
 8069TIP3   OH245621   3.113   3.604  10.985  0.1624 -0.1509 -0.2036
 8069TIP3    H145622   3.092   3.669  10.918 -0.2817 -0.0269  0.0592
 8069TIP3    H245623   3.043   3.539  10.978  1.2207 -1.2138 -1.2517
 8070TIP3   OH245624   1.986   1.588  16.544 -0.4168 -0.5386 -0.0796
 8070TIP3    H145625   2.001   1.670  16.497 -0.6755  0.1017  0.9315
 8070TIP3    H245626   1.995   1.612  16.636 -4.2190 -0.8275  0.4329
 8071TIP3   OH245627   4.507   0.303  13.117 -0.1661 -0.0086 -0.4247
 8071TIP3    H145628   4.490   0.384  13.069  1.6493  2.0931  2.3729
 8071TIP3    H245629   4.575   0.259  13.066  0.0378  1.0421 -1.0721
 8072TIP3   OH245630   1.677   5.028   0.765 -0.1421 -0.2005  0.3374
 8072TIP3    H145631   1.599   5.029   0.820  0.2088  0.5646  0.8256
 8072TIP3    H245632   1.720   5.112   0.782 -0.7701  0.6648 -2.1678
 8073TIP3   OH245633   4.774   6.039  13.386  0.4051 -0.1077  0.0009
 8073TIP3    H145634   4.704   6.071  13.442  0.6599  0.1193  0.1864
 8073TIP3    H245635   4.730   5.975  13.328 -0.1118  0.6123 -0.4148
 8074TIP3   OH245636   6.617   2.821   0.173  0.1724 -0.4540 -0.1893
 8074TIP3    H145637   6.539   2.857   0.214  0.8699  1.3346 -0.3749
 8074TIP3    H245638   6.587   2.790   0.087 -0.7562 -1.8088  0.6070
 8075TIP3   OH245639   6.145   6.387  12.168  0.2286 -0.1851  0.2836
 8075TIP3    H145640   6.148   6.312  12.109 -1.1586  0.1764 -0.2655
 8075TIP3    H245641   6.069   6.438  12.139  1.0225  1.3206  0.7873
 8076TIP3   OH245642   0.075   4.082  14.192  0.8401  0.2821  0.1268
 8076TIP3    H145643   0.075   4.158  14.250  1.2514  1.0723 -0.8909
 8076TIP3    H245644   0.055   4.007  14.249 -2.9978  1.5603  0.6141
 8077TIP3   OH245645   3.615   5.935   5.415 -0.1275  0.1836 -0.1721
 8077TIP3    H145646   3.522   5.913   5.422  0.2097 -1.0232  0.7248
 8077TIP3    H245647   3.648   5.873   5.350  0.5735 -1.1568  1.4322
 8078TIP3   OH245648   1.017   1.043   2.525 -0.1933  0.2595 -0.5083
 8078TIP3    H145649   1.095   1.047   2.580  0.8121 -0.0116 -1.8990
 8078TIP3    H245650   1.000   0.949   2.515 -0.3481  0.3084 -0.6962
 8079TIP3   OH245651   5.738   4.418  15.153  0.0432  0.3512 -0.0174
 8079TIP3    H145652   5.823   4.409  15.110  0.1740 -0.0979  0.3383
 8079TIP3    H245653   5.675   4.394  15.085  0.1730  1.1086 -0.4129
 8080TIP3   OH245654   3.033   4.069  15.444  0.4892 -0.0520  0.0257
 8080TIP3    H145655   3.072   3.991  15.484  0.3857 -0.7396 -1.1944
 8080TIP3    H245656   3.094   4.093  15.374  0.9363  1.4559  0.9117
 8081TIP3   OH245657   2.699   2.917   1.477 -0.1403 -0.2498 -0.5476
 8081TIP3    H145658   2.606   2.907   1.495  0.0632  0.4070  0.9628
 8081TIP3    H245659   2.733   2.827   1.470 -0.7092 -0.4902 -0.1727
 8082TIP3   OH245660   5.108   4.449  12.902  0.0924 -0.0784 -0.1785
 8082TIP3    H145661   5.126   4.403  12.820  0.8802  0.4411 -0.3027
 8082TIP3    H245662   5.194   4.463  12.941 -0.2461  0.0648  0.5241
 8083TIP3   OH245663   0.235   6.200  16.668  0.1976  0.0223  0.3306
 8083TIP3    H145664   0.240   6.104  16.671  0.5636  0.0705  1.8075
 8083TIP3    H245665   0.303   6.226  16.607  1.9494 -0.5317  2.0097
 8084TIP3   OH245666   2.101   0.401   0.351  0.3924  0.2133  0.0605
 8084TIP3    H145667   2.176   0.343   0.339  0.0281 -0.4596  0.9406
 8084TIP3    H245668   2.119   0.476   0.295  1.3668 -0.2848 -0.3015
 8085TIP3   OH245669   1.651   4.208  13.030 -0.9205  0.3252  0.3472
 8085TIP3    H145670   1.705   4.132  13.055 -1.2458  0.4836  1.5763
 8085TIP3    H245671   1.688   4.237  12.947 -1.2970 -1.6739 -0.5414
 8086TIP3   OH245672   2.386   1.671  16.765  0.2296  0.1468 -0.3919
 8086TIP3    H145673   2.341   1.643  16.844  1.7185  0.0222  0.4393
 8086TIP3    H245674   2.386   1.594  16.708 -0.1442  0.0028 -0.1971
 8087TIP3   OH245675   3.198   5.961  16.060 -0.1283  0.2601  0.4023
 8087TIP3    H145676   3.211   6.022  15.988 -1.9689 -1.6715 -1.6327
 8087TIP3    H245677   3.103   5.963  16.076  0.1215 -0.1372  2.0475
 8088TIP3   OH245678   1.770   3.945   5.412  0.0851  0.0581  0.7158
 8088TIP3    H145679   1.789   3.863   5.367  0.9601 -0.5609  2.1650
 8088TIP3    H245680   1.832   4.008   5.374 -0.0016 -0.1579  0.2102
 8089TIP3   OH245681   5.364   0.141   0.897  0.0881 -0.2999  0.4184
 8089TIP3    H145682   5.358   0.171   0.988 -1.6633 -0.6347  0.4368
 8089TIP3    H245683   5.430   0.072   0.899  1.2184  0.7793  1.1309
 8090TIP3   OH245684   0.569   5.679  15.091  0.5704  0.0351  0.4631
 8090TIP3    H145685   0.620   5.662  15.011  1.7796  1.6240  0.8563
 8090TIP3    H245686   0.635   5.702  15.156 -0.5484  0.5111  1.4365
 8091TIP3   OH245687   1.141   2.062  10.730  0.4766  0.7728  0.2471
 8091TIP3    H145688   1.079   2.060  10.657 -0.6625  2.5230  1.1191
 8091TIP3    H245689   1.227   2.074  10.688  0.0005  0.3465 -0.8704
 8092TIP3   OH245690   3.717   1.667  16.679 -0.6499 -0.0746 -0.1601
 8092TIP3    H145691   3.780   1.739  16.682 -1.6910  0.8622 -0.3144
 8092TIP3    H245692   3.750   1.603  16.742  0.8723  0.0459 -0.8236
 8093TIP3   OH245693   5.410   3.847   0.454  0.1274  0.1431 -0.7477
 8093TIP3    H145694   5.392   3.756   0.478 -0.6913  0.7281  0.9511
 8093TIP3    H245695   5.490   3.869   0.501 -2.2726  1.7443  2.7953
 8094TIP3   OH245696   0.601   3.439   1.239 -0.3714  0.0969  0.4720
 8094TIP3    H145697   0.591   3.355   1.196 -0.7219  0.9969 -1.2439
 8094TIP3    H245698   0.676   3.427   1.298  0.4675 -0.9992 -0.7828
 8095TIP3   OH245699   1.495   3.034  14.465 -0.6117  0.4360  0.3727
 8095TIP3    H145700   1.414   2.996  14.497 -0.2455 -0.7241 -0.0488
 8095TIP3    H245701   1.564   2.976  14.497  0.1155  1.7659  1.2757
 8096TIP3   OH245702   5.056   1.653  16.230 -0.3914 -0.0696  0.2743
 8096TIP3    H145703   5.070   1.736  16.275  0.0815 -0.5234  0.9661
 8096TIP3    H245704   4.961   1.646  16.220 -0.6085 -0.6888  2.5794
 8097TIP3   OH245705   2.293   1.112   5.933  0.5483  0.4819  0.5437
 8097TIP3    H145706   2.201   1.120   5.908  0.4351  0.8772  1.0630
 8097TIP3    H245707   2.293   1.128   6.028  0.8059 -2.1778  1.0192
 8098TIP3   OH245708   2.687   6.641  10.980  0.0645  0.4286  0.2593
 8098TIP3    H145709   2.615   6.601  10.931  1.5212 -0.1483 -1.4657
 8098TIP3    H245710   2.659   6.731  10.995 -0.5185  0.5348 -1.4237
 8099TIP3   OH245711   5.292   0.753  10.935  0.0263 -0.2379 -0.2650
 8099TIP3    H145712   5.222   0.790  10.880 -0.9996 -0.2136  1.0132
 8099TIP3    H245713   5.279   0.658  10.930  0.4892 -0.2784 -0.7659
 8100TIP3   OH245714   2.751   2.264  11.741 -0.0218 -0.2820  0.3338
 8100TIP3    H145715   2.748   2.357  11.717 -0.7645  0.3492  2.7598
 8100TIP3    H245716   2.842   2.238  11.725  0.7349  1.4462  1.6133
 8101TIP3   OH245717   1.959   4.243  15.875 -0.1194 -0.1192 -0.3428
 8101TIP3    H145718   1.878   4.294  15.872  1.0294  1.7958  0.1678
 8101TIP3    H245719   1.960   4.193  15.794 -1.7188 -0.0311 -0.4293
 8102TIP3   OH245720   1.737   4.798   1.951 -1.2179  0.3092  0.1844
 8102TIP3    H145721   1.724   4.874   1.894  0.6715 -0.3381 -1.1223
 8102TIP3    H245722   1.805   4.826   2.013 -0.4092 -0.3701 -0.3957
 8103TIP3   OH245723   6.334   0.846   3.073 -0.2840 -0.2645  0.3416
 8103TIP3    H145724   6.265   0.858   3.007  0.6006 -1.2741 -0.7927
 8103TIP3    H245725   6.416   0.864   3.026  0.2280  1.1910  1.7386
 8104TIP3   OH245726   3.521   2.113   5.021  0.5530 -0.0526  0.3487
 8104TIP3    H145727   3.607   2.077   4.999  0.4577  0.1849 -0.4086
 8104TIP3    H245728   3.493   2.160   4.942 -0.1630  0.0800  0.6770
 8105TIP3   OH245729   3.921   2.692   6.472 -0.0207  0.6365  0.1323
 8105TIP3    H145730   3.916   2.634   6.395  2.0679  0.3178  0.2099
 8105TIP3    H245731   3.864   2.651   6.537  0.1298 -0.4397 -0.4033
 8106TIP3   OH245732   3.623   2.920  12.304 -0.0128 -0.1954 -0.1855
 8106TIP3    H145733   3.587   3.007  12.323  0.6230  0.0931 -0.3023
 8106TIP3    H245734   3.707   2.938  12.262  0.9528 -0.8780  1.4182
 8107TIP3   OH245735   6.198   2.487  13.388  0.0718  0.0103  0.4861
 8107TIP3    H145736   6.223   2.573  13.354 -1.2980 -0.1984 -1.1339
 8107TIP3    H245737   6.253   2.425  13.339  1.6111 -0.0148  2.2005
 8108TIP3   OH245738   3.977   5.828  11.861 -0.8027  0.0887  0.0430
 8108TIP3    H145739   3.978   5.916  11.824 -0.0626  0.0885  0.0614
 8108TIP3    H245740   4.055   5.786  11.824 -1.1587 -0.5608  0.0221
 8109TIP3   OH245741   3.218   5.225  13.156  0.1528 -0.0863 -0.2332
 8109TIP3    H145742   3.209   5.317  13.133 -0.0146  0.0491  0.3646
 8109TIP3    H245743   3.312   5.207  13.148  0.4192  0.5564  1.1694
 8110TIP3   OH245744   2.015   4.743   1.371  0.0730  0.3145  0.3070
 8110TIP3    H145745   2.011   4.701   1.285  0.8992  0.4072  0.2164
 8110TIP3    H245746   1.924   4.756   1.396 -0.1947 -1.1608  0.1528
 8111TIP3   OH245747   0.828   4.475   4.505  0.2786 -0.1680 -0.0630
 8111TIP3    H145748   0.758   4.518   4.553 -0.2295  0.4711 -1.3493
 8111TIP3    H245749   0.839   4.391   4.549 -0.0065  0.4880  1.3032
 8112TIP3   OH245750   4.037   5.520  13.482  0.1787 -0.0688 -0.3081
 8112TIP3    H145751   4.079   5.464  13.547 -2.8888 -3.0879 -0.8004
 8112TIP3    H245752   4.075   5.492  13.399 -0.4611 -0.5869 -0.4296
 8113TIP3   OH245753   5.598   1.674   3.285  0.1205 -0.9571 -0.0553
 8113TIP3    H145754   5.528   1.622   3.244  0.7701 -1.9388  0.0828
 8113TIP3    H245755   5.636   1.616   3.351  0.8697 -0.3159  0.0835
 8114TIP3   OH245756   3.400   0.323   1.379 -0.1416 -0.0870  0.7222
 8114TIP3    H145757   3.315   0.357   1.406  0.1530  0.0798  1.4591
 8114TIP3    H245758   3.439   0.289   1.460  0.5211 -0.1056  0.4003
 8115TIP3   OH245759   1.154   2.424  15.987  0.0281  0.4836  0.0826
 8115TIP3    H145760   1.193   2.410  16.074 -2.4775  0.9030  1.3399
 8115TIP3    H245761   1.124   2.515  15.989  1.1561  0.9095 -1.7452
 8116TIP3   OH245762   6.075   0.755  12.269  0.2237  0.8426 -0.3648
 8116TIP3    H145763   6.106   0.669  12.300 -1.2111  0.4749  0.1023
 8116TIP3    H245764   6.121   0.818  12.325  1.6107  0.4098 -0.9908
 8117TIP3   OH245765   6.494   4.107   3.758  0.4709 -0.1104  0.4891
 8117TIP3    H145766   6.477   4.197   3.787  0.3457  0.4938 -1.4366
 8117TIP3    H245767   6.566   4.114   3.696  0.2122 -1.2855  0.0330
 8118TIP3   OH245768   2.032   1.673   1.046 -0.1286  0.6232 -0.0887
 8118TIP3    H145769   1.970   1.720   1.102  2.1126  2.2598  1.1427
 8118TIP3    H245770   2.116   1.682   1.092  1.0111 -1.5929 -1.6551
 8119TIP3   OH245771   2.586   2.390   5.233 -0.0296  0.6131 -0.4194
 8119TIP3    H145772   2.571   2.473   5.278  0.4614 -0.7451  2.3340
 8119TIP3    H245773   2.681   2.377   5.238 -0.2304 -0.6543  0.1449
 8120TIP3   OH245774   1.694   2.993   5.743 -0.4659  0.4137  0.0363
 8120TIP3    H145775   1.724   2.987   5.834 -1.3139 -0.2845  0.2782
 8120TIP3    H245776   1.728   2.913   5.702 -1.7332 -0.2292  0.2339
 8121TIP3   OH245777   3.839   1.792   5.713 -0.5118  0.1801  0.1044
 8121TIP3    H145778   3.772   1.725   5.702  0.4572 -1.1584  1.9356
 8121TIP3    H245779   3.809   1.844   5.787  0.3069 -0.2388  0.7372
 8122TIP3   OH245780   4.715   0.247  12.943 -0.2079 -0.6515 -0.1903
 8122TIP3    H145781   4.748   0.333  12.915 -0.8495 -0.0635  0.8354
 8122TIP3    H245782   4.790   0.189  12.935  0.4644  0.1826 -0.0725
 8123TIP3   OH245783   3.716   1.507  14.043  0.3760 -0.2344 -0.0225
 8123TIP3    H145784   3.623   1.494  14.027  0.1428  0.4713  0.7100
 8123TIP3    H245785   3.734   1.455  14.121  0.5954 -0.3922 -0.1797
 8124TIP3   OH245786   1.729   3.519   0.341 -0.3616  0.3778 -0.4209
 8124TIP3    H145787   1.811   3.470   0.338 -2.4626 -3.3123 -0.9026
 8124TIP3    H245788   1.715   3.537   0.434 -0.3319 -1.3247 -0.0835
 8125TIP3   OH245789   4.808   1.596  10.926 -0.0756 -0.7957  0.6647
 8125TIP3    H145790   4.889   1.647  10.915  0.0348 -1.4090 -1.6510
 8125TIP3    H245791   4.839   1.507  10.943 -0.2469 -0.9635  0.1138
 8126TIP3   OH245792   3.407   2.395  11.357  0.4095 -0.4565  0.7185
 8126TIP3    H145793   3.355   2.468  11.392 -0.6201 -1.2764  0.9049
 8126TIP3    H245794   3.365   2.372  11.275 -0.4828 -2.1578  1.6331
 8127TIP3   OH245795   3.146   0.952  12.532 -1.0350  0.0131  0.0773
 8127TIP3    H145796   3.186   1.029  12.492  0.0947 -1.3617 -1.5172
 8127TIP3    H245797   3.202   0.932  12.607 -0.2822 -0.2983 -0.5586
 8128TIP3   OH245798   1.661   2.322   3.147 -0.1199 -0.0756 -0.2766
 8128TIP3    H145799   1.662   2.398   3.089 -2.2390 -0.8901 -1.4294
 8128TIP3    H245800   1.617   2.353   3.226 -2.1338 -0.3890 -1.2308
 8129TIP3   OH245801   6.348   3.764   3.049 -0.1718 -0.1129  0.0406
 8129TIP3    H145802   6.380   3.764   2.959  1.6048  1.4563  0.6251
 8129TIP3    H245803   6.264   3.719   3.045 -0.4134  0.4832 -2.5097
 8130TIP3   OH245804   4.939   2.461   0.835 -0.1736 -0.0358 -0.1001
 8130TIP3    H145805   4.976   2.424   0.755  0.6980 -0.1585  0.3619
 8130TIP3    H245806   5.006   2.448   0.902 -1.8701 -2.1811  1.2612
 8131TIP3   OH245807   1.333   0.792   5.955 -0.2758  0.0075 -0.1660
 8131TIP3    H145808   1.319   0.882   5.985  1.5538  0.0873  0.5105
 8131TIP3    H245809   1.426   0.788   5.932  0.2804 -2.4129  2.2731
 8132TIP3   OH245810   4.147   6.017   3.247 -0.4069 -0.3417  0.4996
 8132TIP3    H145811   4.225   5.966   3.225 -0.2488  0.8083 -1.7974
 8132TIP3    H245812   4.083   5.952   3.276  0.3724 -1.6587 -0.6542
 8133TIP3   OH245813   3.049   0.100   6.237  0.9112 -0.2173 -0.5344
 8133TIP3    H145814   3.070   0.007   6.248  1.7597 -0.0345 -0.5762
 8133TIP3    H245815   2.976   0.102   6.175 -0.7896 -1.0086  1.3825
 8134TIP3   OH245816   6.232   3.804   5.931  0.0673  0.2695 -0.2084
 8134TIP3    H145817   6.249   3.806   6.025  0.5764 -1.2192 -0.2571
 8134TIP3    H245818   6.145   3.764   5.924  1.2404 -2.3072 -0.4944
 8135TIP3   OH245819   5.654   6.772   1.495 -0.5035  0.3792  0.1032
 8135TIP3    H145820   5.703   6.698   1.458 -0.6575 -0.1933  1.0161
 8135TIP3    H245821   5.568   6.767   1.454 -1.4408 -1.6378  2.2027
 8136TIP3   OH245822   2.162   0.512   0.720  0.0450  0.6075  0.3506
 8136TIP3    H145823   2.153   0.564   0.799 -1.7803 -0.5340  0.9141
 8136TIP3    H245824   2.072   0.492   0.693  0.6755 -1.0497 -0.6428
 8137TIP3   OH245825   2.801   2.884   4.196 -0.5080  0.6669 -0.4692
 8137TIP3    H145826   2.756   2.903   4.279 -0.3914  0.9683 -0.4748
 8137TIP3    H245827   2.747   2.927   4.129 -1.7866 -1.3618 -0.7946
 8138TIP3   OH245828   3.971   2.968   0.623  0.0728  0.0661 -0.6486
 8138TIP3    H145829   3.885   2.988   0.586 -0.7884  0.0224  1.2575
 8138TIP3    H245830   3.986   3.037   0.688  1.4557  0.0396 -0.9125
 8139TIP3   OH245831   3.961   5.715  10.769 -0.6398 -0.1939  0.8291
 8139TIP3    H145832   4.002   5.716  10.682  0.0228  1.2509  1.1305
 8139TIP3    H245833   3.923   5.628  10.777 -3.2488  0.5691 -2.0869
 8140TIP3   OH245834   5.201   0.717  16.117  0.0141 -0.1487  0.3868
 8140TIP3    H145835   5.259   0.737  16.191 -1.4698  0.5114  1.4020
 8140TIP3    H245836   5.113   0.723  16.154 -0.6845 -2.6385 -0.7490
 8141TIP3   OH245837   3.474   4.717  12.082 -0.3989  0.3072 -0.8461
 8141TIP3    H145838   3.509   4.698  11.995 -0.3266  0.6642 -0.8973
 8141TIP3    H245839   3.391   4.761  12.065 -0.8017 -0.3986 -0.7271
 8142TIP3   OH245840   4.046   3.636  15.642  0.3748  0.1022  0.4777
 8142TIP3    H145841   4.013   3.722  15.616  1.2065  0.5993  1.0417
 8142TIP3    H245842   4.119   3.655  15.702  1.7363 -0.9783 -0.8096
 8143TIP3   OH245843   1.419   4.816   5.579 -0.4063  0.0575  0.0547
 8143TIP3    H145844   1.486   4.870   5.538 -0.5912  0.0755 -0.2225
 8143TIP3    H245845   1.456   4.793   5.664  0.1223 -0.2812 -0.2694
 8144TIP3   OH245846   0.652   5.743  15.868 -0.2271 -0.4169 -0.3907
 8144TIP3    H145847   0.730   5.725  15.921 -0.0094 -2.3621 -1.3118
 8144TIP3    H245848   0.594   5.791  15.927 -0.3960 -3.3851  1.9665
 8145TIP3   OH245849   2.773   1.797  12.118 -0.3510 -0.4516  0.0702
 8145TIP3    H145850   2.742   1.861  12.181  1.4899  1.2414 -0.6764
 8145TIP3    H245851   2.713   1.805  12.044 -0.1660  0.4059  0.0027
 8146TIP3   OH245852   5.339   5.557   0.670 -0.2358  0.3756  0.4647
 8146TIP3    H145853   5.362   5.600   0.753  3.7330  1.6494 -1.2113
 8146TIP3    H245854   5.320   5.630   0.610 -0.4322 -0.4479 -0.4754
 8147TIP3   OH245855   3.429   5.072  13.639  0.0562 -0.1465 -0.1934
 8147TIP3    H145856   3.503   5.084  13.698  0.4076 -0.7821 -0.4841
 8147TIP3    H245857   3.387   5.158  13.633 -1.5246 -0.6600  2.9646
 8148TIP3   OH245858   1.085   5.885  11.246  0.0377 -0.4462  0.0388
 8148TIP3    H145859   1.042   5.904  11.329 -0.2095 -0.3823 -0.1041
 8148TIP3    H245860   1.153   5.821  11.269 -1.8443 -2.5718 -0.1663
 8149TIP3   OH245861   3.216   0.766  10.980 -0.4840  0.2054  0.1636
 8149TIP3    H145862   3.308   0.787  10.994 -0.7069  1.3660 -0.0915
 8149TIP3    H245863   3.197   0.699  11.046  0.4688  0.1622  0.4018
 8150TIP3   OH245864   5.897   2.082  14.211  0.1824  0.1384 -0.4815
 8150TIP3    H145865   5.878   2.091  14.304 -2.0360  0.1525 -0.9181
 8150TIP3    H245866   5.866   1.994  14.189  0.2422  0.3240 -1.3263
 8151TIP3   OH245867   5.139   4.141   4.910 -0.7885 -0.1013 -0.1944
 8151TIP3    H145868   5.071   4.095   4.861  0.1854 -1.2231 -0.5044
 8151TIP3    H245869   5.218   4.090   4.897  0.4213  1.8620 -0.8377
 8152TIP3   OH245870   2.385   4.950   2.713 -0.5204 -0.1198  0.0157
 8152TIP3    H145871   2.348   4.862   2.704 -1.1066  0.2522 -1.3489
 8152TIP3    H245872   2.338   4.987   2.788 -1.4311 -0.4086 -0.3970
 8153TIP3   OH245873   0.123   6.586  14.141  0.2416 -0.2316 -0.7031
 8153TIP3    H145874   0.059   6.518  14.160 -1.7606  0.8089 -3.4636
 8153TIP3    H245875   0.093   6.625  14.059  3.4448  1.4691 -1.1271
 8154TIP3   OH245876   6.407   2.911   1.579 -0.6154  0.2538  0.2132
 8154TIP3    H145877   6.426   2.992   1.627  1.3546 -1.5451  2.5780
 8154TIP3    H245878   6.343   2.866   1.633  1.2807 -1.5897  0.9633
 8155TIP3   OH245879   2.025   4.069  14.531 -0.4617 -0.2488 -0.1818
 8155TIP3    H145880   2.104   4.122  14.545 -0.5312  0.3505 -1.9043
 8155TIP3    H245881   1.952   4.129  14.549 -0.5324 -0.3214 -0.2272
 8156TIP3   OH245882   2.123   0.170  12.675 -0.1148  0.0644  0.5314
 8156TIP3    H145883   2.187   0.165  12.604 -1.8351  0.2332 -1.0652
 8156TIP3    H245884   2.176   0.163  12.755  2.0438  1.6688 -0.6949
 8157TIP3   OH245885   4.633   6.714   4.552 -0.3638  0.5617 -0.0632
 8157TIP3    H145886   4.671   6.627   4.565 -1.7570 -0.2644 -1.3256
 8157TIP3    H245887   4.683   6.750   4.478  0.5425  1.0508  0.7723
 8158TIP3   OH245888   4.069   6.280   0.235 -0.4213  0.5477 -0.8526
 8158TIP3    H145889   4.029   6.307   0.318 -0.0275  2.0392 -1.1306
 8158TIP3    H245890   4.078   6.185   0.243 -1.4605  0.5311  0.3364
 8159TIP3   OH245891   2.828   4.185  13.504 -0.0704 -0.5967  0.3143
 8159TIP3    H145892   2.732   4.189  13.510 -0.3268 -5.4779  1.3348
 8159TIP3    H245893   2.857   4.202  13.594  0.1388  1.5280 -0.1175
 8160TIP3   OH245894   4.967   6.212  13.212  0.2108 -0.0364 -0.0290
 8160TIP3    H145895   5.011   6.140  13.256 -1.7040 -0.2474  1.5808
 8160TIP3    H245896   5.029   6.285  13.217 -0.0083 -0.0157  3.1357
 8161TIP3   OH245897   2.949   3.169  14.403  0.0589  0.4367 -0.0395
 8161TIP3    H145898   3.021   3.114  14.373  1.4580  2.1097  0.1872
 8161TIP3    H245899   2.986   3.219  14.476 -0.9947  2.1389 -0.6458
 8162TIP3   OH245900   0.660   6.748   3.382 -0.4376  0.2346  0.1075
 8162TIP3    H145901   0.607   6.707   3.313  1.5972  1.8427 -2.4991
 8162TIP3    H245902   0.721   6.680   3.409  0.9814  0.5836 -2.1131
 8163TIP3   OH245903   0.238   3.729   6.569 -0.1010 -0.0004  0.0546
 8163TIP3    H145904   0.216   3.815   6.533 -0.9159  0.4710  1.5941
 8163TIP3    H245905   0.324   3.709   6.533  0.0365  1.3993 -0.4396
 8164TIP3   OH245906   3.646   0.024  13.209 -0.1891  0.0556 -0.1413
 8164TIP3    H145907   3.659  -0.067  13.184  1.2926  0.3217 -0.4117
 8164TIP3    H245908   3.650   0.072  13.126  0.3003  0.4799  0.1225
 8165TIP3   OH245909   1.393   0.899   0.211  0.2130 -0.0339  0.3973
 8165TIP3    H145910   1.392   0.989   0.178  1.2366  0.5843  2.0060
 8165TIP3    H245911   1.357   0.906   0.300  1.1806 -1.0687  0.8816
 8166TIP3   OH245912   5.727   6.435  11.457  0.2703 -0.6518 -0.8201
 8166TIP3    H145913   5.698   6.376  11.527  0.3289 -0.1107 -0.3351
 8166TIP3    H245914   5.822   6.435  11.463  0.2073  2.1834  1.4699
 8167TIP3   OH245915   4.589   2.893   3.856 -0.0331 -0.2719  0.3539
 8167TIP3    H145916   4.555   2.882   3.767  0.9119  0.5896 -0.1438
 8167TIP3    H245917   4.684   2.905   3.843  0.1683 -0.6084  1.5141
 8168TIP3   OH245918   0.575   2.084   0.019 -0.5537  0.1415  0.3709
 8168TIP3    H145919   0.537   2.167   0.047 -0.7132  0.0548  0.4085
 8168TIP3    H245920   0.533   2.019   0.075  0.1776  0.1259  0.9268
 8169TIP3   OH245921   6.729   0.380  15.315  0.1759  0.3659 -0.1983
 8169TIP3    H145922   6.694   0.296  15.344  1.3667  0.2529  0.9690
 8169TIP3    H245923   6.800   0.399  15.376  1.9888  0.7026 -2.3221
 8170TIP3   OH245924   5.162   0.198   1.775 -0.3306  0.1406  0.1498
 8170TIP3    H145925   5.184   0.175   1.865  0.0851 -2.1428 -0.5123
 8170TIP3    H245926   5.068   0.214   1.777 -0.2487  0.5544  1.0678
 8171TIP3   OH245927   2.806   5.642   2.852  0.2510  0.4043 -0.0511
 8171TIP3    H145928   2.736   5.705   2.840 -0.6693 -0.2032  2.0101
 8171TIP3    H245929   2.877   5.691   2.893 -0.0949  0.3193  0.6433
 8172TIP3   OH245930   4.767   4.405   0.407  0.1784  0.2058  0.7489
 8172TIP3    H145931   4.737   4.479   0.460 -0.0723  0.6228  0.0287
 8172TIP3    H245932   4.820   4.444   0.338 -0.2502 -0.2500  0.1552
 8173TIP3   OH245933   5.086   5.348  17.226  0.1399 -0.5164  0.4611
 8173TIP3    H145934   5.083   5.398  17.144  0.0791 -1.5829 -0.1996
 8173TIP3    H245935   4.997   5.315  17.237  0.1137 -0.2632  1.0419
 8174TIP3   OH245936   3.041   3.826   4.776 -0.1187 -0.1615  0.4180
 8174TIP3    H145937   3.094   3.805   4.852  0.8382 -1.6656 -0.6355
 8174TIP3    H245938   3.101   3.821   4.702 -1.4177 -0.5243 -0.6476
 8175TIP3   OH245939   2.449   5.131   0.396 -0.6179  0.3865  0.5251
 8175TIP3    H145940   2.483   5.044   0.419 -1.0299  0.1960  0.4309
 8175TIP3    H245941   2.408   5.117   0.310 -2.7626  0.1338  1.5668
 8176TIP3   OH245942   4.900   0.575  11.080  0.6604 -0.8469 -0.2534
 8176TIP3    H145943   4.862   0.647  11.029  0.1715 -1.7715 -1.2108
 8176TIP3    H245944   4.824   0.523  11.106  0.8872 -0.3349  1.5343
 8177TIP3   OH245945   2.307   4.598   3.272  0.0311 -0.2069  0.2293
 8177TIP3    H145946   2.368   4.601   3.345 -0.0965  0.5071  0.3138
 8177TIP3    H245947   2.273   4.509   3.272 -0.1213 -0.1515  1.1687
 8178TIP3   OH245948   4.408   2.877  12.377 -0.2493  0.2604  0.3382
 8178TIP3    H145949   4.437   2.823  12.451 -1.4666 -1.8253 -0.6668
 8178TIP3    H245950   4.489   2.900  12.331  0.3213 -0.3267  1.0355
 8179TIP3   OH245951   5.263   1.005  15.119  0.5446  0.2969  0.4335
 8179TIP3    H145952   5.320   1.047  15.055  0.8310 -1.2889 -0.3913
 8179TIP3    H245953   5.174   1.028  15.092  0.7143  0.7117  0.2345
 8180TIP3   OH245954   0.411   4.332   5.609 -0.3594 -0.4933 -0.0684
 8180TIP3    H145955   0.407   4.240   5.581 -1.7108 -0.7433  0.8854
 8180TIP3    H245956   0.320   4.355   5.628  0.2996  0.1879  2.4704
 8181TIP3   OH245957   1.563   0.793   5.811  0.1116 -0.3159 -0.0849
 8181TIP3    H145958   1.614   0.845   5.750  0.4489 -0.1318  0.3494
 8181TIP3    H245959   1.591   0.703   5.795 -0.8219 -0.4351 -1.1695
 8182TIP3   OH245960   5.604   1.684  14.700  0.1150 -0.2717 -0.2648
 8182TIP3    H145961   5.596   1.599  14.742 -2.1486  1.0826  2.1970
 8182TIP3    H245962   5.643   1.741  14.767 -0.7958  1.2316 -0.9762
 8183TIP3   OH245963   0.538   4.316   6.703 -0.3667 -0.1656 -0.3197
 8183TIP3    H145964   0.490   4.271   6.634  0.1560 -0.2175 -0.6496
 8183TIP3    H245965   0.470   4.362   6.753 -0.6908  0.2962 -1.1772
 8184TIP3   OH245966   1.146   0.201   3.827  0.7070  0.1085  0.0441
 8184TIP3    H145967   1.157   0.232   3.917 -0.8179  0.6487  0.0518
 8184TIP3    H245968   1.141   0.280   3.774  3.9907 -0.1999 -0.8664
 8185TIP3   OH245969   1.619   0.660  10.188 -0.1870 -0.4490  0.4586
 8185TIP3    H145970   1.607   0.573  10.151 -0.8615 -0.1166 -0.1279
 8185TIP3    H245971   1.681   0.648  10.260 -1.5041 -1.6736  1.4178
 8186TIP3   OH245972   1.585   3.894  16.403  0.5956  0.2982 -0.0615
 8186TIP3    H145973   1.663   3.914  16.350  0.7417 -1.9924 -0.7478
 8186TIP3    H245974   1.530   3.972  16.395  2.8426  1.9762  0.4917
 8187TIP3   OH245975   0.279   4.977   4.653 -0.3088 -0.3336 -0.4255
 8187TIP3    H145976   0.190   4.957   4.684 -0.6124 -2.2661 -2.4379
 8187TIP3    H245977   0.269   5.057   4.601 -0.7962 -0.2918 -0.2696
 8188TIP3   OH245978   5.307   1.322  15.564  0.2497 -0.0219  0.1330
 8188TIP3    H145979   5.317   1.414  15.587  0.5930  0.1560 -0.7080
 8188TIP3    H245980   5.237   1.290  15.621  0.2637  0.7077  0.5606
 8189TIP3   OH245981   0.873   5.975   1.840  0.0323 -0.5740  0.5174
 8189TIP3    H145982   0.781   5.989   1.818 -0.0365  0.1634  1.2351
 8189TIP3    H245983   0.876   5.981   1.936  1.3521  2.8200  0.3448
 8190TIP3   OH245984   0.795   6.056   3.553 -0.0811  0.2476 -0.1012
 8190TIP3    H145985   0.794   5.984   3.490  1.6244 -1.4469  1.7641
 8190TIP3    H245986   0.888   6.076   3.565 -0.3551  0.0240  2.4824
 8191TIP3   OH245987   0.378   4.010   0.380 -0.3280  0.1632  0.2030
 8191TIP3    H145988   0.344   4.079   0.323 -0.5229  0.2726  0.4514
 8191TIP3    H245989   0.320   4.011   0.456 -0.3075 -0.2463  0.2255
 8192TIP3   OH245990   0.860   4.346  14.732  0.8912  0.2611  0.0029
 8192TIP3    H145991   0.879   4.255  14.709  0.0293 -0.8391  3.3622
 8192TIP3    H245992   0.796   4.340  14.803 -0.0734  3.5323 -0.5371
 8193TIP3   OH245993   3.901   1.801   3.747  0.2908  0.4506 -0.1057
 8193TIP3    H145994   3.868   1.869   3.689 -1.3709  0.5877  0.9743
 8193TIP3    H245995   3.963   1.847   3.804  1.0123  0.5566 -0.9677
 8194TIP3   OH245996   6.444   0.623  11.786 -0.9304  0.3603 -0.3015
 8194TIP3    H145997   6.534   0.624  11.754 -1.1349 -2.0124 -1.0435
 8194TIP3    H245998   6.403   0.550  11.741 -3.7460  2.4338 -1.2599
 8195TIP3   OH245999   5.100   3.021   5.652 -0.5071  0.7370  0.3493
 8195TIP3    H146000   5.064   2.946   5.604  0.0123  1.1767 -0.7550
 8195TIP3    H246001   5.066   3.012   5.741 -0.1931 -0.9679  0.2972
 8196TIP3   OH246002   4.834   1.920  16.025 -0.2291  0.4967  0.4433
 8196TIP3    H146003   4.806   1.829  16.036 -1.3992  0.8513  0.4323
 8196TIP3    H246004   4.895   1.917  15.952 -0.5561 -0.2221  0.1958
 8197TIP3   OH246005   5.518   6.222  16.100 -0.1315 -0.0147 -0.2084
 8197TIP3    H146006   5.568   6.304  16.096 -2.2092  1.2385 -1.1895
 8197TIP3    H246007   5.437   6.245  16.144  0.2979 -2.1375  1.7929
 8198TIP3   OH246008   1.392   3.191   4.798 -0.1734 -0.0062 -0.3467
 8198TIP3    H146009   1.342   3.227   4.871 -1.1468 -2.4509  0.2527
 8198TIP3    H246010   1.469   3.152   4.838  1.3169  2.1401 -1.0781
 8199TIP3   OH246011   1.737   6.197  14.382  0.2997 -0.3683 -0.2579
 8199TIP3    H146012   1.787   6.253  14.442  1.1465 -0.2350 -1.0773
 8199TIP3    H246013   1.804   6.141  14.341  0.2099  1.8900 -3.6638
 8200TIP3   OH246014   2.798   0.598   2.499 -0.1285  0.4343  0.4729
 8200TIP3    H146015   2.709   0.607   2.533  0.0356  1.2475  0.6876
 8200TIP3    H246016   2.823   0.508   2.520 -1.8124 -0.5911 -1.7460
 8201TIP3   OH246017   3.784   1.112   4.895  0.8294  0.6395 -0.0000
 8201TIP3    H146018   3.785   1.200   4.932 -1.0375  0.0700  1.4992
 8201TIP3    H246019   3.755   1.056   4.967  2.3774 -1.2800 -0.8024
 8202TIP3   OH246020   1.372   0.900  15.286 -0.4314 -0.5389 -0.1226
 8202TIP3    H146021   1.321   0.851  15.350  0.6356 -1.9260 -0.3232
 8202TIP3    H246022   1.340   0.990  15.295  0.1721 -0.5654  2.8479
 8203TIP3   OH246023   4.813   6.292   5.553  0.2344  0.0249 -0.2008
 8203TIP3    H146024   4.728   6.248   5.556 -0.4751  1.4549  1.2827
 8203TIP3    H246025   4.794   6.381   5.525  1.2974  0.2240 -0.3146
 8204TIP3   OH246026   1.607   0.962  13.727 -0.1205  0.1263 -0.3179
 8204TIP3    H146027   1.699   0.941  13.714 -0.1468 -0.3332  0.2144
 8204TIP3    H246028   1.608   1.035  13.789 -0.1134  0.0937 -0.2784
 8205TIP3   OH246029   0.615   5.570   3.150 -0.3984  0.1392 -0.1250
 8205TIP3    H146030   0.578   5.638   3.094  0.3139 -0.1008 -0.8995
 8205TIP3    H246031   0.682   5.529   3.096  0.7577  0.3466  1.1262
 8206TIP3   OH246032   4.294   1.232  16.695 -0.3695  0.3473 -0.5785
 8206TIP3    H146033   4.353   1.202  16.626 -0.9536 -0.4709 -0.7343
 8206TIP3    H246034   4.208   1.196  16.671 -0.9833  1.6658 -0.4575
 8207TIP3   OH246035   3.385   2.619   5.498  0.4892  0.0963 -0.0121
 8207TIP3    H146036   3.473   2.656   5.498  1.0633 -1.2340  0.3497
 8207TIP3    H246037   3.353   2.631   5.408  1.1623  0.3035 -0.2210
 8208TIP3   OH246038   4.854   3.639   1.542 -0.0371 -0.4010  0.4129
 8208TIP3    H146039   4.767   3.676   1.526 -0.0000 -0.7633 -0.6884
 8208TIP3    H246040   4.877   3.595   1.460  0.9446 -0.7971  0.8862
 8209TIP3   OH246041   2.950   3.499  12.889 -0.2369  0.1263 -0.1918
 8209TIP3    H146042   3.009   3.430  12.920  0.8441  0.6302 -1.0809
 8209TIP3    H246043   2.889   3.454  12.830  0.7185 -0.0289 -1.0898
 8210TIP3   OH246044   4.668   4.838   6.515  0.2614 -0.7285 -0.2464
 8210TIP3    H146045   4.716   4.767   6.474 -0.8678 -2.0146  0.6141
 8210TIP3    H246046   4.581   4.803   6.531  0.0724  0.3903  1.4100
 8211TIP3   OH246047   3.342   3.323  11.237 -0.1446 -0.5168 -0.0687
 8211TIP3    H146048   3.380   3.313  11.325 -0.7238  2.7528  0.6345
 8211TIP3    H246049   3.373   3.247  11.188  0.0543 -2.5112  3.0121
 8212TIP3   OH246050   6.269   3.900  11.354 -0.3882 -0.2415 -0.3817
 8212TIP3    H146051   6.199   3.936  11.408 -1.2672 -2.0781 -0.2757
 8212TIP3    H246052   6.277   3.963  11.282 -0.1395  1.4948  1.1399
 8213TIP3   OH246053   6.573   5.635  13.000  0.4312 -0.1808 -0.6500
 8213TIP3    H146054   6.561   5.560  12.942 -1.2503 -0.6126  0.1954
 8213TIP3    H246055   6.595   5.708  12.942  2.4847 -1.4101 -1.4361
 8214TIP3   OH246056   0.844   3.851  15.288  0.3811  0.4553  0.2676
 8214TIP3    H146057   0.759   3.844  15.332  0.4479 -0.0082  0.3252
 8214TIP3    H246058   0.907   3.863  15.359  0.3079  1.3169  0.1945
 8215TIP3   OH246059   5.139   5.268  16.923  0.3435 -0.3193 -0.1460
 8215TIP3    H146060   5.052   5.237  16.951 -0.1591  0.3747 -0.9324
 8215TIP3    H246061   5.133   5.363  16.926  1.6807 -0.2634  1.5977
 8216TIP3   OH246062   1.709   0.751   4.989 -0.2278  0.1850 -0.4521
 8216TIP3    H146063   1.798   0.759   4.955 -0.3747 -0.6352 -1.0771
 8216TIP3    H246064   1.673   0.675   4.943 -0.7525 -0.4021  0.8835
 8217TIP3   OH246065   2.490   2.383  13.263 -0.0520 -0.3307 -0.3174
 8217TIP3    H146066   2.575   2.375  13.220 -0.0757 -0.8641 -0.2764
 8217TIP3    H246067   2.439   2.310  13.227 -1.0439  0.9959 -1.6108
 8218TIP3   OH246068   1.707   3.703   6.392 -0.3893 -0.0737  0.2426
 8218TIP3    H146069   1.691   3.723   6.300  1.1613 -1.8187 -0.4488
 8218TIP3    H246070   1.752   3.780   6.426  0.4956 -0.0692 -0.8961
 8219TIP3   OH246071   5.208   1.205   0.464 -0.2889 -0.5136  0.7592
 8219TIP3    H146072   5.189   1.291   0.503  0.6115 -1.2215  2.8275
 8219TIP3    H246073   5.282   1.221   0.405 -2.8712  0.9447 -2.2390
 8220TIP3   OH246074   5.380   0.996   2.142  0.3004 -0.0690 -0.1223
 8220TIP3    H146075   5.378   0.908   2.103  1.7587 -0.6067  0.9636
 8220TIP3    H246076   5.338   1.052   2.077 -2.5035 -1.8923  0.0467
 8221TIP3   OH246077   4.560   3.495  14.685 -0.4110  0.4535  0.0524
 8221TIP3    H146078   4.611   3.448  14.618 -0.4295 -0.8599  0.9452
 8221TIP3    H246079   4.587   3.455  14.768 -0.7897  1.7072  0.7896
 8222TIP3   OH246080   6.299   0.243  17.233 -0.1055 -0.3880 -0.1323
 8222TIP3    H146081   6.310   0.288  17.149 -2.1390 -0.0468 -0.2352
 8222TIP3    H246082   6.371   0.180  17.236  1.2889  1.1162 -1.1306
 8223TIP3   OH246083   5.369   6.087   3.773 -0.1572  0.1991  0.0781
 8223TIP3    H146084   5.392   6.171   3.735 -1.8442  0.5193 -0.2653
 8223TIP3    H246085   5.446   6.032   3.759 -0.1336  0.8026 -2.3148
 8224TIP3   OH246086   3.367   5.659   4.698  0.5811 -0.2552 -0.7900
 8224TIP3    H146087   3.342   5.606   4.623 -0.2552 -2.5917  1.0717
 8224TIP3    H246088   3.295   5.721   4.709  0.4504 -0.2674 -1.5520
 8225TIP3   OH246089   1.527   0.981   5.596 -0.0821  0.0860 -0.4099
 8225TIP3    H146090   1.474   1.059   5.579  1.5267  1.7103  1.7304
 8225TIP3    H246091   1.616   1.006   5.571  0.9867  0.0035  3.0095
 8226TIP3   OH246092   0.707   6.592  13.146 -0.0722 -0.4693  0.0979
 8226TIP3    H146093   0.667   6.542  13.074 -0.2745  0.4912 -0.4680
 8226TIP3    H246094   0.694   6.537  13.223 -1.3831 -0.7412 -0.3033
 8227TIP3   OH246095   2.625   5.607   1.850  0.3018  0.0157 -0.0877
 8227TIP3    H146096   2.603   5.523   1.892 -0.8923  0.6500  0.5827
 8227TIP3    H246097   2.711   5.629   1.885  0.8692 -1.1915 -0.6840
 8228TIP3   OH246098   2.377   1.841   5.949  0.8677 -0.0912 -0.2447
 8228TIP3    H146099   2.461   1.806   5.979  0.8022  1.0668  1.4055
 8228TIP3    H246100   2.312   1.786   5.992  0.7827  0.6252  0.5631
 8229TIP3   OH246101   3.173   2.660   6.018 -0.4571  0.1907 -0.3072
 8229TIP3    H146102   3.262   2.690   6.033 -0.5141  1.5281 -2.3786
 8229TIP3    H246103   3.123   2.694   6.092  0.5070  0.5382  0.1878
 8230TIP3   OH246104   3.631   1.306   0.634  0.3908 -0.2077 -0.2756
 8230TIP3    H146105   3.699   1.334   0.695 -0.7672  2.2984 -0.0783
 8230TIP3    H246106   3.549   1.337   0.673 -0.6339 -0.9349 -1.7728
 8231TIP3   OH246107   4.701   1.123  10.504  0.0349  0.2121  0.1674
 8231TIP3    H146108   4.700   1.191  10.437 -0.7846  0.7943  0.7674
 8231TIP3    H246109   4.644   1.054  10.470  0.3868  0.0789 -0.1624
 8232TIP3   OH246110   5.151   3.703   2.966 -0.4025  0.1255  0.3523
 8232TIP3    H146111   5.230   3.756   2.956 -0.2170  0.0971  1.5488
 8232TIP3    H246112   5.126   3.715   3.058 -0.9479 -1.0351  0.3596
 8233TIP3   OH246113   6.060   4.930   6.912 -0.6564  0.0453  0.0835
 8233TIP3    H146114   5.984   4.962   6.961 -1.2093 -2.6015  1.0423
 8233TIP3    H246115   6.027   4.915   6.824 -0.7665  0.6832  0.0146
 8234TIP3   OH246116   5.904   1.748   0.134 -0.1808 -0.3251  0.0449
 8234TIP3    H146117   5.907   1.654   0.117 -1.3636 -0.1935 -1.0213
 8234TIP3    H246118   5.937   1.757   0.224  2.0866 -1.5031 -0.6369
 8235TIP3   OH246119   3.496   6.619  10.383 -0.2540  0.7123  0.3928
 8235TIP3    H146120   3.418   6.585  10.427  0.3911 -0.9448  0.2725
 8235TIP3    H246121   3.554   6.544  10.374  0.3165  1.3742 -1.8374
 8236TIP3   OH246122   6.076   6.291   6.556  0.0954 -0.1025 -0.2288
 8236TIP3    H146123   6.058   6.380   6.527  0.2755 -0.1678 -0.5444
 8236TIP3    H246124   6.153   6.264   6.505 -0.4521 -0.7344 -0.7374
 8237TIP3   OH246125   3.506   6.233   1.001 -0.1020  0.2567  0.1545
 8237TIP3    H146126   3.599   6.213   1.011 -0.0619  1.1838  1.8777
 8237TIP3    H246127   3.468   6.153   0.964  0.9054 -1.1751  2.1045
 8238TIP3   OH246128   4.285   5.582   1.196 -0.4969  0.2869  0.2419
 8238TIP3    H146129   4.233   5.639   1.140 -0.5722 -0.9480 -0.9883
 8238TIP3    H246130   4.228   5.508   1.215 -0.5834  0.8384  2.2409
 8239TIP3   OH246131   0.506   0.960   5.544  0.1808 -0.0133 -0.4384
 8239TIP3    H146132   0.445   1.022   5.585  1.3756  1.1676 -0.4100
 8239TIP3    H246133   0.471   0.946   5.456 -0.9557 -0.5374  0.0729
 8240TIP3   OH246134   4.431   3.013  16.642  0.2691  0.2741 -0.1432
 8240TIP3    H146135   4.350   3.061  16.658 -0.5754 -1.0590 -0.3410
 8240TIP3    H246136   4.492   3.080  16.611 -0.4361  1.4678  0.9937
 8241TIP3   OH246137   3.726   5.913  13.552  0.4387  0.2266  0.1123
 8241TIP3    H146138   3.676   5.834  13.533 -1.4750  1.1554  1.0433
 8241TIP3    H246139   3.814   5.883  13.571 -0.1924 -1.6432  0.1401
 8242TIP3   OH246140   5.961   1.383   0.913 -0.2850  0.3506  0.8108
 8242TIP3    H146141   5.881   1.372   0.862  0.5671  1.0543 -0.7149
 8242TIP3    H246142   5.994   1.293   0.925  0.0094  0.2415 -0.7181
 8243TIP3   OH246143   2.795   1.019  13.656  0.2418 -1.0379 -0.3855
 8243TIP3    H146144   2.817   0.937  13.701 -0.6416  0.4549  2.9051
 8243TIP3    H246145   2.811   1.087  13.721 -2.4800  1.0904 -1.8646
 8244TIP3   OH246146   4.712   1.452   0.121  0.0323  0.1013  0.7694
 8244TIP3    H146147   4.775   1.524   0.121  1.3882 -1.0349 -1.8783
 8244TIP3    H246148   4.630   1.492   0.094  0.2692  1.0427  1.4096
 8245TIP3   OH246149   1.814   1.461  15.689  0.5554 -0.1940 -0.5765
 8245TIP3    H146150   1.741   1.471  15.750  1.4838  0.2540  0.4949
 8245TIP3    H246151   1.824   1.366  15.678 -1.1968 -0.2383 -2.0069
 8246TIP3   OH246152   2.785   5.145  12.953  0.4347  0.0557  0.4049
 8246TIP3    H146153   2.775   5.146  13.048  0.3363 -0.1112  0.3952
 8246TIP3    H246154   2.879   5.141  12.938  0.3675 -3.6364  0.5123
 8247TIP3   OH246155   5.889   1.022  11.822  0.4394 -0.5345  0.1440
 8247TIP3    H146156   5.962   0.978  11.865  0.9813  0.1437 -0.0536
 8247TIP3    H246157   5.859   1.087  11.885  0.8213  0.0287 -0.2427
 8248TIP3   OH246158   1.763   3.826   0.569 -0.0736 -0.1290 -0.0697
 8248TIP3    H146159   1.716   3.892   0.517 -1.2949  0.7670  2.1212
 8248TIP3    H246160   1.696   3.789   0.626  1.3551 -0.7243  1.2392
 8249TIP3   OH246161   1.532   0.883   0.722  0.1863 -0.0473  0.0560
 8249TIP3    H146162   1.485   0.884   0.639  0.7618 -0.9893 -0.2873
 8249TIP3    H246163   1.478   0.937   0.781 -1.1400 -0.8247 -0.4289
 8250TIP3   OH246164   3.236   2.138   5.996 -0.2813 -0.4068  0.8457
 8250TIP3    H146165   3.311   2.176   6.042  1.8173 -1.1412 -1.8789
 8250TIP3    H246166   3.223   2.053   6.037 -1.5367  0.8731  3.2666
 8251TIP3   OH246167   4.590   3.379  15.293  0.1972  0.0484  0.2657
 8251TIP3    H146168   4.617   3.343  15.378 -0.2574  1.0897  0.8700
 8251TIP3    H246169   4.559   3.467  15.314 -0.6450  0.0294 -0.8730
 8252TIP3   OH246170   6.091   1.957   2.196 -0.3780 -0.0351 -0.0500
 8252TIP3    H146171   6.138   1.921   2.272  0.6260  0.3752 -0.4770
 8252TIP3    H246172   6.148   1.939   2.122 -0.2332  1.7090 -0.3829
 8253TIP3   OH246173   0.585   0.110   4.098 -0.2849 -0.2007 -0.2081
 8253TIP3    H146174   0.646   0.069   4.037  0.5102  0.3261  0.2299
 8253TIP3    H246175   0.542   0.179   4.047 -1.4495 -1.3951 -0.8785
 8254TIP3   OH246176   1.776   2.252   1.603 -0.0149  0.5155  0.1622
 8254TIP3    H146177   1.844   2.317   1.622 -0.4582  1.5068 -1.5517
 8254TIP3    H246178   1.780   2.191   1.677  0.1039  2.7263  2.0369
 8255TIP3   OH246179   5.095   0.722  13.034 -0.2542  0.3014  0.1549
 8255TIP3    H146180   5.070   0.630  13.040 -3.2187  1.0080 -0.6199
 8255TIP3    H246181   5.131   0.742  13.120 -2.0079 -0.9277  1.2189
 8256TIP3   OH246182   0.976   2.634  16.994  0.3931  0.2322  0.0282
 8256TIP3    H146183   0.926   2.708  17.028  0.1913  0.2194 -0.2453
 8256TIP3    H246184   0.918   2.559  17.003  0.7806  0.0108  0.7749
 8257TIP3   OH246185   1.961   2.387   4.456 -0.1707 -0.4103 -0.2780
 8257TIP3    H146186   1.973   2.344   4.541 -0.1798  0.2985  0.0897
 8257TIP3    H246187   2.047   2.381   4.414 -0.5248 -2.0059 -0.8235
 8258TIP3   OH246188   0.056   1.210   4.450  0.1753 -0.4119 -0.0789
 8258TIP3    H146189   0.137   1.167   4.420  1.1234  0.9217  0.5450
 8258TIP3    H246190   0.004   1.221   4.371  0.5480 -1.3964 -0.4670
 8259TIP3   OH246191   1.725   6.590  11.395  0.0387  0.2092  0.4559
 8259TIP3    H146192   1.632   6.613  11.392 -0.3221 -1.1941  0.6787
 8259TIP3    H246193   1.740   6.562  11.485  1.2113  2.5157  1.0278
 8260TIP3   OH246194   4.611   2.765   2.401  0.6022 -0.3578  0.2343
 8260TIP3    H146195   4.657   2.847   2.387 -1.0931  0.4911 -0.4706
 8260TIP3    H246196   4.548   2.759   2.329 -2.0428 -0.3100  2.4426
 8261TIP3   OH246197   6.162   5.644   1.516  0.3195 -0.3811  0.4124
 8261TIP3    H146198   6.237   5.611   1.467 -0.5928 -1.2241 -0.4474
 8261TIP3    H246199   6.169   5.739   1.510  0.6168 -0.4649 -0.7540
 8262TIP3   OH246200   0.719   4.792  11.478 -0.3278 -0.1604  0.2757
 8262TIP3    H146201   0.674   4.800  11.394  0.1005  0.0917  0.0648
 8262TIP3    H246202   0.797   4.846  11.468 -1.1300  1.2279  1.4382
 8263TIP3   OH246203   4.927   5.501   4.873 -0.5647  0.7714 -0.1166
 8263TIP3    H146204   5.002   5.560   4.871 -0.1978  0.3225  0.1480
 8263TIP3    H246205   4.934   5.456   4.958 -0.2909 -0.3464 -0.7206
 8264TIP3   OH246206   2.188   5.023   1.334 -0.0587  0.1850  0.7598
 8264TIP3    H146207   2.142   5.065   1.407 -0.2336 -1.0706  1.3846
 8264TIP3    H246208   2.131   5.038   1.258 -1.8945 -1.9366  1.6440
 8265TIP3   OH246209   4.531   0.149  17.228 -0.4664 -0.0378 -0.5189
 8265TIP3    H146210   4.604   0.102  17.268 -0.6543  1.0962  1.1834
 8265TIP3    H246211   4.455   0.093  17.241 -0.4444  0.1315  0.3229
 8266TIP3   OH246212   4.595   4.599  13.768 -0.4980  0.0610 -0.0986
 8266TIP3    H146213   4.532   4.529  13.750  0.1844 -1.0428  1.6775
 8266TIP3    H246214   4.633   4.576  13.853 -1.0019  3.1247  1.0345
 8267TIP3   OH246215   6.712   4.316   4.790  0.0244 -0.3742  0.2857
 8267TIP3    H146216   6.693   4.228   4.757 -0.0089 -0.0582 -0.5596
 8267TIP3    H246217   6.768   4.356   4.723  1.8194 -0.4857  1.6801
 8268TIP3   OH246218   4.340   4.642   0.630 -0.4303 -0.2494  0.6044
 8268TIP3    H146219   4.378   4.694   0.559  3.1192 -0.3819  2.2811
 8268TIP3    H246220   4.326   4.705   0.701 -3.7166 -0.1653 -0.0489
 8269TIP3   OH246221   3.884   4.601   2.564  0.0930  0.5112 -0.7758
 8269TIP3    H146222   3.804   4.566   2.525 -0.4570  4.3352 -3.2759
 8269TIP3    H246223   3.867   4.599   2.659 -3.0828  1.4893 -1.2637
 8270TIP3   OH246224   4.338   1.416   5.415  0.0007  0.1057 -0.1927
 8270TIP3    H146225   4.422   1.419   5.461 -0.5851 -0.7406  0.9694
 8270TIP3    H246226   4.311   1.507   5.409  1.1099  0.4033 -0.7782
 8271TIP3   OH246227   3.945   1.332  12.143 -0.2211  0.7116  0.1887
 8271TIP3    H146228   3.998   1.322  12.064  0.6009  0.9589  0.6981
 8271TIP3    H246229   3.949   1.426  12.163  0.4008  0.5149  1.0656
 8272TIP3   OH246230   4.867   4.616  11.553 -0.2452  0.2667  0.4879
 8272TIP3    H146231   4.793   4.577  11.600  0.4711  0.1878  1.5565
 8272TIP3    H246232   4.928   4.544  11.539  0.8403  0.8672  1.9904
 8273TIP3   OH246233   5.145   4.261  12.679  0.1019  0.4319 -0.0500
 8273TIP3    H146234   5.205   4.302  12.618  0.7007 -0.2678  0.0613
 8273TIP3    H246235   5.201   4.209  12.737 -0.5417  0.3406  0.4967
 8274TIP3   OH246236   5.210   1.647  11.294 -0.0879  0.0733  0.2040
 8274TIP3    H146237   5.161   1.715  11.248 -0.8561 -0.2296  0.5639
 8274TIP3    H246238   5.172   1.564  11.263  1.3040 -0.2344 -0.7608
 8275TIP3   OH246239   1.348   5.671  14.067 -0.6065  0.1729 -0.4627
 8275TIP3    H146240   1.416   5.737  14.057 -0.2406 -0.1746 -0.3280
 8275TIP3    H246241   1.386   5.608  14.129 -1.5238  0.6028  0.5593
 8276TIP3   OH246242   6.216   3.927   2.626  0.3995 -0.1651  0.5324
 8276TIP3    H146243   6.266   3.896   2.551 -0.7142 -0.0169 -0.2658
 8276TIP3    H246244   6.234   4.021   2.630 -0.1830 -0.0349 -0.0205
 8277TIP3   OH246245   1.637   1.353  13.021  0.1527  0.0983  1.2288
 8277TIP3    H146246   1.703   1.389  12.962 -0.8776 -2.2150 -1.4665
 8277TIP3    H246247   1.677   1.273  13.055 -1.5110 -1.8562 -1.1982
 8278TIP3   OH246248   0.423   0.605  12.293 -0.6395 -0.6574 -0.2091
 8278TIP3    H146249   0.411   0.699  12.295  0.4629 -0.5300  1.1683
 8278TIP3    H246250   0.478   0.589  12.217  1.1495  0.0757  0.8940
 8279TIP3   OH246251   2.928   6.225   5.538 -0.1756  0.2498 -0.5810
 8279TIP3    H146252   2.936   6.317   5.564 -1.4312  0.5033 -1.0617
 8279TIP3    H246253   3.018   6.196   5.526  0.2234  1.5137 -0.7386
 8280TIP3   OH246254   2.044   5.035   5.301  0.6720 -1.1243  0.2981
 8280TIP3    H146255   1.999   4.951   5.292 -1.3604  0.1888 -2.8873
 8280TIP3    H246256   1.976   5.094   5.333  1.0307  0.1038 -1.1562
 8281TIP3   OH246257   6.463   1.531  13.190  0.2785  0.1934 -0.4733
 8281TIP3    H146258   6.424   1.552  13.105 -0.6140  0.7875  0.0788
 8281TIP3    H246259   6.556   1.518  13.170 -0.1046 -0.7537 -1.7145
 8282TIP3   OH246260   1.878   2.403  14.947  0.3031 -0.3738  0.2168
 8282TIP3    H146261   1.888   2.368  14.858 -1.5883  0.2582 -0.2810
 8282TIP3    H246262   1.857   2.327  15.000  0.3747 -0.6038 -0.0823
 8283TIP3   OH246263   3.030   3.230   3.132  0.2406  0.2622 -0.2391
 8283TIP3    H146264   2.985   3.254   3.051  0.0935  0.1306 -0.1978
 8283TIP3    H246265   3.062   3.141   3.116  3.0901  1.4486 -1.3679
 8284TIP3   OH246266   4.045   2.586  15.838  0.3346  0.4604  0.1605
 8284TIP3    H146267   4.119   2.527  15.826  0.5660  0.9007 -0.6404
 8284TIP3    H246268   4.042   2.602  15.933  0.7090 -0.2665  0.2966
 8285TIP3   OH246269   2.820   5.872   1.817  0.0596 -0.2457 -0.7560
 8285TIP3    H146270   2.863   5.803   1.868 -0.7716 -2.6926 -3.2311
 8285TIP3    H246271   2.735   5.883   1.858  0.6839  0.2113  0.4220
 8286TIP3   OH246272   2.700   1.548   4.050  0.2822  0.1377 -0.2112
 8286TIP3    H146273   2.673   1.466   4.091 -0.0476 -1.0901 -2.7884
 8286TIP3    H246274   2.696   1.613   4.121  1.9346 -2.3035  2.2187
 8287TIP3   OH246275   4.496   6.759   2.591  0.4483 -0.3635 -0.1579
 8287TIP3    H146276   4.417   6.726   2.549  0.2942  0.7791 -0.7817
 8287TIP3    H246277   4.483   6.854   2.597  1.6271 -0.2005  0.0217
 8288TIP3   OH246278   5.904   6.150  11.920 -0.6969 -0.3430  0.3268
 8288TIP3    H146279   5.935   6.104  11.998  0.7221 -0.0589 -0.0626
 8288TIP3    H246280   5.850   6.085  11.873 -0.9756 -0.7259  1.1766
 8289TIP3   OH246281   0.202   1.899  13.204 -0.3015 -0.3932 -0.2465
 8289TIP3    H146282   0.243   1.888  13.118 -0.6869  1.7738 -0.7204
 8289TIP3    H246283   0.217   1.815  13.248 -0.7935 -1.8269 -2.7085
 8290TIP3   OH246284   0.007   0.596   3.403 -0.1321  0.0474  0.1755
 8290TIP3    H146285  -0.057   0.631   3.341  0.4431  0.5179 -0.1560
 8290TIP3    H246286   0.074   0.555   3.348  1.4422  2.2710  0.3895
 8291TIP3   OH246287   5.084   3.694   3.240  0.3186  0.5359  0.3865
 8291TIP3    H146288   5.088   3.781   3.280 -1.0536 -0.3701  2.6025
 8291TIP3    H246289   5.122   3.636   3.306  1.1506 -0.5736 -1.0376
 8292TIP3   OH246290   3.889   3.415   6.291  0.2109  0.0095  0.0070
 8292TIP3    H146291   3.964   3.466   6.261 -0.2629 -0.3625 -1.8979
 8292TIP3    H246292   3.819   3.480   6.303 -0.0314 -0.0284 -1.1875
 8293TIP3   OH246293   1.574   2.714  16.162 -0.4620  0.4182 -0.1860
 8293TIP3    H146294   1.656   2.683  16.126 -0.6359  0.6775 -0.8150
 8293TIP3    H246295   1.531   2.636  16.197  0.2788  0.3621  0.5953
 8294TIP3   OH246296   5.683   6.219   3.955  0.0900 -0.1249  0.0023
 8294TIP3    H146297   5.778   6.208   3.962  0.2931  0.5240 -1.6576
 8294TIP3    H246298   5.671   6.311   3.930 -0.9895 -0.1367  0.4383
 8295TIP3   OH246299   3.587   6.551  13.818  0.0603 -0.0624  0.4152
 8295TIP3    H146300   3.643   6.526  13.744 -1.6004 -0.5166 -0.7139
 8295TIP3    H246301   3.506   6.501  13.804 -1.2925  1.9165  1.0482
 8296TIP3   OH246302   1.998   1.988  11.871  0.5166 -0.9848  0.3744
 8296TIP3    H146303   2.072   1.974  11.930  1.8721  1.3456 -0.6980
 8296TIP3    H246304   2.037   2.030  11.794 -1.5276 -2.1119 -1.3218
 8297TIP3   OH246305   3.483   1.394  16.044 -0.1488 -0.2125  0.0138
 8297TIP3    H146306   3.483   1.435  15.957 -0.7728 -0.4812 -0.1152
 8297TIP3    H246307   3.479   1.468  16.105 -1.2632 -0.0731 -0.2178
 8298TIP3   OH246308   2.854   2.424   4.765 -0.0652  0.0557 -0.3801
 8298TIP3    H146309   2.819   2.510   4.789 -1.0703  0.1737 -2.2143
 8298TIP3    H246310   2.906   2.398   4.841 -3.3098  0.3106  2.0569
 8299TIP3   OH246311   5.554   4.004  12.143  0.1865 -0.4278 -0.3407
 8299TIP3    H146312   5.462   4.004  12.170  0.0246  1.4229 -0.8055
 8299TIP3    H246313   5.587   3.918  12.169 -1.0803 -0.2694  1.8803
 8300TIP3   OH246314   1.768   2.184  17.166  0.0117 -0.4543  0.5323
 8300TIP3    H146315   1.726   2.163  17.083 -2.7315 -0.2935  1.8236
 8300TIP3    H246316   1.860   2.200  17.144 -0.7132 -0.2666 -2.4526
 8301TIP3   OH246317   1.762   2.485   0.075  0.1896 -0.0118 -0.0978
 8301TIP3    H146318   1.785   2.449  -0.011  1.6210  0.2610  0.1528
 8301TIP3    H246319   1.674   2.451   0.093 -0.3208  0.3284 -1.8844
 8302TIP3   OH246320   0.562   3.131  16.457  0.1411 -0.1986  0.3136
 8302TIP3    H146321   0.515   3.170  16.382 -0.7004 -0.7008  0.5742
 8302TIP3    H246322   0.606   3.055  16.420 -3.1378 -2.5218  0.9951
 8303TIP3   OH246323   4.273   3.330  12.880 -0.0826 -0.8495  0.8464
 8303TIP3    H146324   4.331   3.384  12.933 -0.2568 -0.3755  0.5525
 8303TIP3    H246325   4.290   3.241  12.910  2.0080 -0.9051 -0.3709
 8304TIP3   OH246326   2.489   3.390  11.994 -0.1194 -0.5647  0.2058
 8304TIP3    H146327   2.498   3.484  11.982  1.2069 -0.5374  1.3916
 8304TIP3    H246328   2.567   3.353  11.952  0.5456 -0.9793  1.8016
 8305TIP3   OH246329   0.807   1.456  15.723 -0.8750 -0.2818 -0.0530
 8305TIP3    H146330   0.736   1.520  15.731 -1.3590 -0.8768  0.4090
 8305TIP3    H246331   0.871   1.499  15.666 -0.6692  1.0890  1.1820
 8306TIP3   OH246332   1.332   0.624  14.821  0.1253 -0.0517  0.5008
 8306TIP3    H146333   1.362   0.641  14.910  2.0296 -1.3710  0.1420
 8306TIP3    H246334   1.409   0.641  14.766 -1.3103  1.7651 -1.0140
 8307TIP3   OH246335   4.274   2.791   0.985  0.4901 -0.5471  0.1404
 8307TIP3    H146336   4.292   2.735   0.909 -0.6171 -0.5621 -0.1192
 8307TIP3    H246337   4.195   2.755   1.023 -1.1832  1.7991 -0.9889
 8308TIP3   OH246338   2.847   6.211   2.322 -0.2137  0.1115 -0.3332
 8308TIP3    H146339   2.766   6.208   2.270 -0.8135  2.2759  0.4392
 8308TIP3    H246340   2.827   6.271   2.394  2.6424  2.0879 -1.1249
 8309TIP3   OH246341   4.958   0.401  16.676 -0.0989 -0.3145 -0.0862
 8309TIP3    H146342   4.971   0.312  16.644  0.5487 -1.1168  2.2820
 8309TIP3    H246343   5.042   0.445  16.661 -0.7177  0.1886 -2.1184
 8310TIP3   OH246344   0.731   1.791   4.933 -0.2666 -0.3699 -0.3325
 8310TIP3    H146345   0.741   1.758   5.022  0.9717  0.4804 -0.1463
 8310TIP3    H246346   0.651   1.750   4.902 -0.9963 -0.2972  1.3517
 8311TIP3   OH246347   4.224   4.374  10.738 -0.2806  0.1900 -0.4190
 8311TIP3    H146348   4.256   4.315  10.806  2.1179  1.7494 -0.1809
 8311TIP3    H246349   4.297   4.382  10.676 -0.6683  2.6687 -0.6031
 8312TIP3   OH246350   0.640   4.694   4.076  0.1292  0.0483 -0.4909
 8312TIP3    H146351   0.654   4.773   4.023  0.9185  0.3309  0.1303
 8312TIP3    H246352   0.724   4.681   4.121 -0.8991  0.4915  1.5956
 8313TIP3   OH246353   6.314   6.237  13.349 -0.2870 -0.0227  0.5338
 8313TIP3    H146354   6.354   6.224  13.263 -0.1459 -0.5741  0.6837
 8313TIP3    H246355   6.248   6.306  13.335 -1.4654 -1.3201 -0.3948
 8314TIP3   OH246356   3.539   3.611  11.264  0.3132 -0.2929 -0.2041
 8314TIP3    H146357   3.509   3.522  11.245  0.3217 -0.1613 -0.8431
 8314TIP3    H246358   3.488   3.666  11.205  0.1862  0.1416  0.3142
 8315TIP3   OH246359   2.006   2.540  13.608 -0.1066 -0.3621  0.4333
 8315TIP3    H146360   2.061   2.573  13.537 -0.1187  1.4933  1.2641
 8315TIP3    H246361   1.916   2.554  13.577 -0.1124  1.1321  1.1220
 8316TIP3   OH246362   5.211   6.569  14.598  0.0554 -0.2691  0.5089
 8316TIP3    H146363   5.297   6.556  14.637  0.5293  0.8407 -0.1736
 8316TIP3    H246364   5.171   6.639  14.650 -0.6785 -1.1641  1.1898
 8317TIP3   OH246365   4.525   2.983   4.171 -0.1705 -0.3866 -0.1982
 8317TIP3    H146366   4.614   2.992   4.138 -0.2063  0.0855 -0.1620
 8317TIP3    H246367   4.532   2.920   4.243  0.6508  1.9718  1.8439
 8318TIP3   OH246368   1.989   4.521   1.678  0.5728  0.0486 -0.0380
 8318TIP3    H146369   2.018   4.510   1.769  0.7147  1.2928  0.0776
 8318TIP3    H246370   1.903   4.561   1.685 -1.5447 -4.2065 -0.3736
 8319TIP3   OH246371   6.393   0.494   4.533  0.0471 -0.3099 -0.0749
 8319TIP3    H146372   6.391   0.552   4.609 -1.9004  0.2925 -0.5630
 8319TIP3    H246373   6.343   0.540   4.466  0.2033 -1.6544 -1.1425
 8320TIP3   OH246374   0.635   6.226   1.916 -0.1516  0.2043  0.8913
 8320TIP3    H146375   0.708   6.274   1.877 -0.4668  0.4498  0.6024
 8320TIP3    H246376   0.619   6.153   1.857  2.6902 -2.3849  3.1670
 8321TIP3   OH246377   3.655   3.104   5.991  0.2039  0.4811  0.1309
 8321TIP3    H146378   3.569   3.146   6.001  0.1336 -0.0224  1.8738
 8321TIP3    H246379   3.702   3.127   6.071  1.1501 -0.5057 -0.1315
 8322TIP3   OH246380   0.077   3.728  11.760  0.5546  0.1789  0.1215
 8322TIP3    H146381   0.006   3.744  11.697 -0.7885  1.7015  1.9876
 8322TIP3    H246382   0.032   3.705  11.841  2.2633 -0.7331  0.8266
 8323TIP3   OH246383   3.482   2.587  14.340  0.6069 -0.1641  0.0025
 8323TIP3    H146384   3.439   2.509  14.304 -0.9920  0.3417  0.7479
 8323TIP3    H246385   3.463   2.656  14.277  0.3962  0.0366  0.2812
 8324TIP3   OH246386   5.049   3.412  15.541  0.1980 -0.4886 -0.8351
 8324TIP3    H146387   5.071   3.457  15.459  2.9600  1.3722  0.8719
 8324TIP3    H246388   5.077   3.322  15.527  0.5573 -0.2100 -1.9661
 8325TIP3   OH246389   6.141   1.967   5.599 -0.4858  0.3296 -0.6897
 8325TIP3    H146390   6.084   2.029   5.643  0.8203  0.8507  0.2833
 8325TIP3    H246391   6.217   2.018   5.572 -0.1277 -0.5138 -1.3192
 8326TIP3   OH246392   1.748   4.621  13.609 -0.0721 -0.4636  0.1078
 8326TIP3    H146393   1.783   4.606  13.522  0.4625 -0.6744  0.3530
 8326TIP3    H246394   1.710   4.537  13.635 -1.4231 -0.0376 -0.4471
 8327TIP3   OH246395   4.555   2.638  15.077  0.4037 -0.3351  0.0086
 8327TIP3    H146396   4.621   2.664  15.013  1.4686 -0.9338  0.8574
 8327TIP3    H246397   4.601   2.581  15.138 -0.7962 -0.4104  0.8650
 8328TIP3   OH246398   5.898   1.543   5.487 -0.2997  0.4202  0.3976
 8328TIP3    H146399   5.826   1.534   5.548 -0.8836 -0.7284 -0.4397
 8328TIP3    H246400   5.862   1.514   5.403  0.3506  2.3996 -0.5920
 8329TIP3   OH246401   0.981   2.671   1.092 -1.2823  0.5500 -0.2446
 8329TIP3    H146402   1.001   2.585   1.129 -1.2139  1.1124  1.0440
 8329TIP3    H246403   1.061   2.722   1.106 -1.4333  0.9199 -0.7279
 8330TIP3   OH246404   3.984   1.786   2.508 -0.1283  0.4770  0.1660
 8330TIP3    H146405   3.948   1.868   2.476 -0.7610  0.0464 -0.2339
 8330TIP3    H246406   4.045   1.758   2.440 -1.5668 -0.5010 -0.7311
 8331TIP3   OH246407   3.381   5.596   6.596  0.6673  0.5792 -0.3864
 8331TIP3    H146408   3.409   5.508   6.571 -0.7091 -0.0638  0.2345
 8331TIP3    H246409   3.356   5.637   6.514 -1.1166 -0.5287 -0.4428
 8332TIP3   OH246410   3.707   4.067   3.822  0.1266 -0.5484  0.2040
 8332TIP3    H146411   3.762   4.011   3.877  0.7493 -0.7273 -0.5931
 8332TIP3    H246412   3.687   4.014   3.745 -0.9341 -0.3817  0.3493
 8333TIP3   OH246413   6.231   6.576  16.427 -0.2307  0.4350 -0.3889
 8333TIP3    H146414   6.229   6.661  16.382  0.5648  0.8260  0.2894
 8333TIP3    H246415   6.161   6.526  16.386 -3.6385  2.9222  2.1016
 8334TIP3   OH246416   1.383   2.376  12.460 -0.3411 -0.3812  0.1347
 8334TIP3    H146417   1.338   2.460  12.449 -4.1574 -2.6048 -2.1951
 8334TIP3    H246418   1.335   2.332  12.530  0.8216 -1.1976  0.4401
 8335TIP3   OH246419   6.299   1.686  15.329 -0.4468  0.1471 -0.1322
 8335TIP3    H146420   6.283   1.730  15.412  0.2169  0.6805 -0.2811
 8335TIP3    H246421   6.212   1.673  15.292 -0.7696 -0.3592  0.7770
 8336TIP3   OH246422   5.313   1.837  12.255  0.1864 -0.1096  0.0366
 8336TIP3    H146423   5.243   1.884  12.300  0.0224 -2.3974  2.2679
 8336TIP3    H246424   5.393   1.872  12.292  0.0532 -1.9279  2.1492
 8337TIP3   OH246425   2.191   0.094   4.074 -0.3592  0.1858 -0.3483
 8337TIP3    H146426   2.207   0.001   4.058  0.8768  0.0681  1.3717
 8337TIP3    H246427   2.112   0.096   4.128 -1.0013  0.2051 -1.2836
 8338TIP3   OH246428   1.456   1.995  14.164  0.1507  0.7109 -0.3356
 8338TIP3    H146429   1.507   2.059  14.214 -0.5566  1.3253 -0.4028
 8338TIP3    H246430   1.505   1.913  14.174  1.5532  1.4435 -0.9810
 8339TIP3   OH246431   2.107   2.932   2.506 -0.2595 -0.4129  0.8064
 8339TIP3    H146432   2.166   2.895   2.441  1.5173  2.3317  0.7811
 8339TIP3    H246433   2.036   2.970   2.454 -0.2361 -0.6020  0.6345
 8340TIP3   OH246434   6.539   1.829  15.696 -0.3081 -0.1000  0.1626
 8340TIP3    H146435   6.564   1.741  15.724 -0.2011 -0.6210 -1.5228
 8340TIP3    H246436   6.466   1.853  15.752 -0.4807 -1.3510  0.4758
 8341TIP3   OH246437   5.421   2.337  11.243  0.4021 -0.0901 -0.2553
 8341TIP3    H146438   5.346   2.328  11.301  0.4499  1.0852  0.0075
 8341TIP3    H246439   5.382   2.343  11.155  0.1011  1.6069 -0.0248
 8342TIP3   OH246440   3.370   4.529  14.351 -0.4890 -0.2486  0.0654
 8342TIP3    H146441   3.284   4.505  14.388 -0.6663  1.6751  0.9712
 8342TIP3    H246442   3.350   4.567  14.266 -0.4594 -0.4714 -0.0433
 8343TIP3   OH246443   5.424   1.244   0.306  0.0789  0.5960  0.0066
 8343TIP3    H146444   5.493   1.182   0.330  2.2981  2.9786  0.0961
 8343TIP3    H246445   5.391   1.213   0.222  2.1716  0.0910 -0.6662
 8344TIP3   OH246446   4.724   4.863   0.404 -0.5515  0.2667 -0.1506
 8344TIP3    H146447   4.658   4.809   0.360 -0.8830 -0.1278  0.8003
 8344TIP3    H246448   4.806   4.843   0.359 -0.5707 -1.4564  0.5364
 8345TIP3   OH246449   6.625   4.078   2.673 -0.3857  0.2118  0.4309
 8345TIP3    H146450   6.671   4.081   2.588 -0.0793 -2.4544  0.4830
 8345TIP3    H246451   6.689   4.039   2.733 -0.8550  1.4583  1.7587
 8346TIP3   OH246452   1.778   4.487   0.438 -0.5295 -0.4709 -0.0558
 8346TIP3    H146453   1.843   4.558   0.436 -1.6296  0.6376  1.8597
 8346TIP3    H246454   1.710   4.516   0.378 -0.3255 -0.5634 -0.3333
 8347TIP3   OH246455   5.611   6.723  17.056 -0.2267  0.3037  0.2132
 8347TIP3    H146456   5.630   6.638  17.096 -0.4642  0.8713  1.5513
 8347TIP3    H246457   5.691   6.744  17.008  0.5937  0.2480  1.5279
 8348TIP3   OH246458   6.230   4.051   6.228  0.5422  0.3737  0.4067
 8348TIP3    H146459   6.212   4.066   6.135  2.4528 -0.3849 -0.1031
 8348TIP3    H246460   6.243   3.957   6.236 -0.7812  0.2713  1.6866
 8349TIP3   OH246461   1.200   0.296  10.350 -0.1685 -0.3228  0.2996
 8349TIP3    H146462   1.289   0.330  10.360  0.1272 -0.4478 -1.6753
 8349TIP3    H246463   1.156   0.318  10.433  1.9293 -1.0232  1.6461
 8350TIP3   OH246464   6.001   5.198   0.660 -0.2614 -0.2761 -0.3459
 8350TIP3    H146465   5.969   5.112   0.633 -1.8750 -0.4668  1.9292
 8350TIP3    H246466   5.942   5.260   0.617  1.4164 -0.2462 -2.6479
 8351TIP3   OH246467   4.860   2.487   6.125 -0.1657  0.4152  0.1084
 8351TIP3    H146468   4.908   2.437   6.059 -0.0398  1.9002 -0.9661
 8351TIP3    H246469   4.924   2.502   6.195  0.2509  0.3925 -0.2648
 8352TIP3   OH246470   0.442   5.626   6.968  0.7637  0.2972 -0.3061
 8352TIP3    H146471   0.465   5.617   6.875  1.3736  1.1879 -0.2509
 8352TIP3    H246472   0.348   5.610   6.971  0.9389 -0.9592 -0.8940
 8353TIP3   OH246473   3.033   0.522  15.970  0.1889 -0.3490  0.1197
 8353TIP3    H146474   2.971   0.536  16.041  0.2146 -0.3191  0.1363
 8353TIP3    H246475   3.076   0.607  15.959  1.4179 -0.8156  1.2344
 8354TIP3   OH246476   5.057   5.181   0.391 -0.2122  0.8133 -0.0137
 8354TIP3    H146477   5.058   5.254   0.453  1.7760  1.0338 -0.2999
 8354TIP3    H246478   5.030   5.106   0.444  1.7069  0.9462  1.2061
 8355TIP3   OH246479   2.855   0.713  15.727 -0.0999 -0.3928 -0.5339
 8355TIP3    H146480   2.798   0.712  15.804 -0.2851 -0.1053 -0.6656
 8355TIP3    H246481   2.795   0.711  15.652 -0.0947  3.3123 -0.7280
 8356TIP3   OH246482   3.787   5.988  16.780 -0.0823 -0.3068 -0.2525
 8356TIP3    H146483   3.880   6.010  16.777 -0.1518  0.0211 -0.0418
 8356TIP3    H246484   3.765   5.964  16.690 -0.0663  0.7513 -0.5482
 8357TIP3   OH246485   4.095   0.369  16.260 -0.4025  0.2187  0.1930
 8357TIP3    H146486   4.049   0.430  16.318 -2.5701 -0.7433 -0.4631
 8357TIP3    H246487   4.029   0.343  16.196  1.7506  0.7197 -2.3135
 8358TIP3   OH246488   4.075   2.937   1.592  0.8788 -1.1022  0.1720
 8358TIP3    H146489   4.045   2.872   1.528 -2.0199  1.0426 -0.7731
 8358TIP3    H246490   4.021   3.014   1.575  2.7226  0.8445  2.6936
 8359TIP3   OH246491   3.175   5.092  11.038  0.2999  0.4137  0.0040
 8359TIP3    H146492   3.248   5.030  11.048  0.1302  0.2434  0.1877
 8359TIP3    H246493   3.105   5.056  11.092 -0.2955  0.0127 -1.0164
 8360TIP3   OH246494   5.431   4.862  12.557  0.4067 -0.1928 -0.3632
 8360TIP3    H146495   5.522   4.862  12.527  0.3376  0.0074 -0.5696
 8360TIP3    H246496   5.393   4.941  12.519  0.7897  1.0065  1.6724
 8361TIP3   OH246497   5.139   3.904  15.004 -0.2396 -0.0856 -0.0904
 8361TIP3    H146498   5.087   3.984  15.004  0.5535  0.4362 -1.3100
 8361TIP3    H246499   5.108   3.855  14.928  0.5493 -0.0949 -0.4097
 8362TIP3   OH246500   5.017   4.846   0.389  0.0655 -0.2091  0.0722
 8362TIP3    H146501   5.103   4.857   0.348 -0.3289 -1.2107 -1.0760
 8362TIP3    H246502   5.028   4.881   0.477  1.4117  0.4646 -0.3397
 8363TIP3   OH246503   0.023   2.242   3.752  0.2203 -0.2587 -0.1835
 8363TIP3    H146504  -0.051   2.233   3.812 -0.0438 -0.6848 -0.5663
 8363TIP3    H246505   0.043   2.336   3.752 -1.8810  0.2430 -1.8997
 8364TIP3   OH246506   6.075   2.580   3.918 -0.3990  0.2421  0.1400
 8364TIP3    H146507   6.148   2.601   3.860 -0.1645 -0.0798  0.3158
 8364TIP3    H246508   6.084   2.642   3.991 -0.9842  0.9803 -0.4007
 8365TIP3   OH246509   2.937   6.671  11.845  0.1611  0.0052 -0.0162
 8365TIP3    H146510   2.871   6.607  11.871 -0.3637 -0.0469 -1.4280
 8365TIP3    H246511   2.951   6.724  11.924 -0.2503 -1.1049  0.8185
 8366TIP3   OH246512   4.132   5.203   0.479 -0.0097 -0.1162  0.6372
 8366TIP3    H146513   4.108   5.149   0.404  0.5396  0.9919 -0.3565
 8366TIP3    H246514   4.087   5.286   0.464  0.4194  0.2481  1.3245
 8367TIP3   OH246515   3.684   3.551  12.527 -1.0663  0.0195 -0.3286
 8367TIP3    H146516   3.683   3.473  12.583 -0.1040 -0.1651 -0.5487
 8367TIP3    H246517   3.670   3.624  12.588  2.4941  0.0379  0.5861
 8368TIP3   OH246518   5.407   5.047  15.478  0.0040 -0.6579  0.1407
 8368TIP3    H146519   5.497   5.014  15.473  0.6765  1.1977 -0.4110
 8368TIP3    H246520   5.354   4.970  15.500  1.8721 -1.5337  1.7160
 8369TIP3   OH246521   2.691   0.732  13.998  0.5226 -0.1297  0.3220
 8369TIP3    H146522   2.722   0.646  13.970  0.7421  0.4666 -1.2995
 8369TIP3    H246523   2.744   0.752  14.075  1.5436 -0.7794 -0.1919
 8370TIP3   OH246524   0.303   4.477  15.567  0.4592 -0.4956 -0.5496
 8370TIP3    H146525   0.308   4.410  15.498  2.5309 -0.5995 -0.3329
 8370TIP3    H246526   0.252   4.436  15.637 -1.8361 -0.3169 -2.0799
 8371TIP3   OH246527   2.185   0.595  14.214  0.4839 -0.1707 -0.4811
 8371TIP3    H146528   2.133   0.523  14.249  0.1139  1.1802  1.8383
 8371TIP3    H246529   2.125   0.640  14.153  1.0513 -2.3738 -2.7422
 8372TIP3   OH246530   1.325   5.794  14.406  0.3310  0.2457 -0.3457
 8372TIP3    H146531   1.323   5.706  14.368  0.8198  1.1372 -2.5435
 8372TIP3    H246532   1.393   5.789  14.473  0.7532 -0.9089 -0.8373
 8373TIP3   OH246533   4.972   3.367   2.607 -0.6177  0.1380 -0.2263
 8373TIP3    H146534   4.983   3.384   2.701 -0.0990 -1.3205 -0.0092
 8373TIP3    H246535   5.058   3.336   2.578  0.0956  3.3747 -1.8334
 8374TIP3   OH246536   4.396   2.403   5.281  0.5126 -0.2168 -0.2373
 8374TIP3    H146537   4.383   2.492   5.314  0.2624 -0.2420 -0.2649
 8374TIP3    H246538   4.382   2.346   5.357  1.4400 -0.1891 -0.0446
 8375TIP3   OH246539   0.688   0.364   4.932 -0.1483 -0.3591 -0.1433
 8375TIP3    H146540   0.740   0.300   4.882  2.2534 -0.5127  2.3971
 8375TIP3    H246541   0.748   0.438   4.945 -2.1891  1.5176 -1.1756
 8376TIP3   OH246542   2.239   4.576   1.517 -0.1912 -0.3256 -0.5981
 8376TIP3    H146543   2.151   4.579   1.555  0.0820 -1.5093  0.1726
 8376TIP3    H246544   2.248   4.485   1.488  0.3339  0.0957 -1.7409
 8377TIP3   OH246545   4.975   2.031  11.081  0.2092 -0.0505 -0.3982
 8377TIP3    H146546   5.056   2.080  11.096 -1.3254  1.9457  1.7452
 8377TIP3    H246547   4.932   2.077  11.009  0.4733 -0.4481 -0.8090
 8378TIP3   OH246548   4.193   5.188  14.195 -0.0728 -0.6628  0.1295
 8378TIP3    H146549   4.231   5.101  14.183  0.1875 -0.8655  2.2576
 8378TIP3    H246550   4.268   5.247  14.200 -0.2832  0.0058 -3.2355
 8379TIP3   OH246551   0.953   4.937  16.709 -0.5378 -0.2641  0.2287
 8379TIP3    H146552   1.016   4.865  16.703  1.4151  1.4665 -0.2624
 8379TIP3    H246553   0.889   4.907  16.774  1.8816 -1.1977  2.2354
 8380TIP3   OH246554   2.382   1.171   2.081  0.1352 -0.1923 -0.3402
 8380TIP3    H146555   2.477   1.179   2.080  0.3540 -2.3602 -0.3022
 8380TIP3    H246556   2.360   1.134   1.995 -0.2819 -2.9141  0.8628
 8381TIP3   OH246557   2.375   1.884   3.320 -0.5346 -0.0122  0.2021
 8381TIP3    H146558   2.385   1.789   3.317 -2.6253 -0.2364 -0.2841
 8381TIP3    H246559   2.383   1.907   3.413  0.2252 -0.6165  0.2882
 8382TIP3   OH246560   3.081   2.898   4.820  0.2681 -0.1021 -0.1812
 8382TIP3    H146561   3.133   2.970   4.858  1.2170 -1.2890  0.7951
 8382TIP3    H246562   3.098   2.903   4.726  0.6039  0.7258 -0.0814
 8383TIP3   OH246563   5.239   0.052   0.103  0.2646 -0.7303  0.4123
 8383TIP3    H146564   5.162   0.023   0.151  0.3091 -0.4943  0.6227
 8383TIP3    H246565   5.204   0.109   0.034  0.2188 -0.9164  0.2814
 8384TIP3   OH246566   3.839   2.669   3.303 -0.6110 -0.3425  0.0478
 8384TIP3    H146567   3.838   2.574   3.309 -3.4462 -0.2812  1.8623
 8384TIP3    H246568   3.899   2.697   3.372  0.5318 -0.8089 -0.7515
 8385TIP3   OH246569   5.451   2.664  10.948  0.0913  0.5569 -0.1114
 8385TIP3    H146570   5.364   2.674  10.910  0.9057  2.7462 -1.4885
 8385TIP3    H246571   5.508   2.647  10.873  1.0305  0.3711  0.6359
 8386TIP3   OH246572   0.662   1.499  17.169  0.4976  0.2420  0.1769
 8386TIP3    H146573   0.624   1.452  17.095  2.4203  1.3817 -1.5786
 8386TIP3    H246574   0.741   1.451  17.190  1.3961  1.4802 -0.3030
 8387TIP3   OH246575   4.936   3.473   1.302 -0.0918  0.4604  0.4522
 8387TIP3    H146576   4.842   3.454   1.299 -0.2376  1.0293  1.2971
 8387TIP3    H246577   4.972   3.405   1.359  0.1430 -0.2773 -0.5690
 8388TIP3   OH246578   2.775   0.353   5.008  0.0609 -0.2269 -0.0611
 8388TIP3    H146579   2.848   0.402   5.044 -0.9956  1.5944 -0.3173
 8388TIP3    H246580   2.712   0.347   5.080 -0.5125  0.2438 -0.5153
 8389TIP3   OH246581   3.206   5.871   4.315 -0.3021  0.3149 -0.3414
 8389TIP3    H146582   3.281   5.811   4.320  0.0915  0.4660 -3.4183
 8389TIP3    H246583   3.245   5.957   4.301 -0.9565  0.9349  1.5490
 8390TIP3   OH246584   0.606   6.578   4.796  0.0279 -0.0007 -0.4286
 8390TIP3    H146585   0.621   6.668   4.825 -0.1623 -0.0536 -0.1605
 8390TIP3    H246586   0.689   6.550   4.759 -0.2811  0.7226 -1.6844
 8391TIP3   OH246587   2.768   6.596  15.629  0.1418  0.2634 -0.2007
 8391TIP3    H146588   2.706   6.530  15.600 -0.0252  0.5632 -0.5336
 8391TIP3    H246589   2.757   6.601  15.724 -2.2299  2.2072 -0.5425
 8392TIP3   OH246590   5.949   5.406  16.182  1.0293 -0.0402 -0.2137
 8392TIP3    H146591   5.939   5.399  16.087  0.9351 -1.3694 -0.1099
 8392TIP3    H246592   6.038   5.377  16.198  0.6720 -0.8964  0.2183
 8393TIP3   OH246593   2.226   3.364   6.104 -0.3061  0.4224  0.2906
 8393TIP3    H146594   2.251   3.451   6.073 -0.4994  0.9757  1.6473
 8393TIP3    H246595   2.281   3.349   6.181 -0.2355 -0.6830  0.0293
 8394TIP3   OH246596   6.188   0.127  14.757 -0.1808  0.2354 -0.5544
 8394TIP3    H146597   6.094   0.147  14.758  0.0339  1.2162  0.8341
 8394TIP3    H246598   6.191   0.031  14.757 -1.1999  0.1779  1.2280
 8395TIP3   OH246599   5.341   3.924  15.457  0.4606 -0.2391 -0.7312
 8395TIP3    H146600   5.312   3.967  15.537  1.3658 -0.8488 -0.0518
 8395TIP3    H246601   5.309   3.979  15.386 -1.2221 -0.2319  0.0170
 8396TIP3   OH246602   2.776   3.383   3.669  0.2342  0.4820 -0.1727
 8396TIP3    H146603   2.723   3.445   3.619 -1.4566  0.1266  1.1328
 8396TIP3    H246604   2.746   3.392   3.759  2.9588  0.8151  0.7470
 8397TIP3   OH246605   5.459   2.112   0.020  0.3621  0.6057  0.4896
 8397TIP3    H146606   5.554   2.117   0.016  0.3773  1.9946  2.1345
 8397TIP3    H246607   5.429   2.141  -0.066  1.4554 -2.0766 -0.8581
 8398TIP3   OH246608   0.008   1.890  11.891  0.4412  0.3868 -0.2065
 8398TIP3    H146609  -0.054   1.952  11.851 -1.8635 -0.5847  1.7393
 8398TIP3    H246610   0.038   1.935  11.970  0.0287 -0.2793  0.3352
 8399TIP3   OH246611   1.178   2.303  11.673 -0.1088 -0.3449  0.8836
 8399TIP3    H146612   1.166   2.325  11.581 -0.4730 -0.2325  0.9599
 8399TIP3    H246613   1.251   2.359  11.702  1.1443 -1.6013  0.2229
 8400TIP3   OH246614   0.235   5.277   2.291  0.5655 -0.0151  0.1632
 8400TIP3    H146615   0.196   5.317   2.368 -1.3165 -1.4244 -0.0329
 8400TIP3    H246616   0.231   5.346   2.224  0.6564  0.6387  0.8181
 8401TIP3   OH246617   0.741   3.898   6.177  0.4602  0.3678  0.9985
 8401TIP3    H146618   0.681   3.824   6.187 -0.1234  0.8924  1.4190
 8401TIP3    H246619   0.827   3.860   6.194  0.0424  0.0502  2.5699
 8402TIP3   OH246620   5.048   6.273  11.974 -0.0934  0.2178  0.1562
 8402TIP3    H146621   5.044   6.184  11.939  1.1685 -0.0833  0.7450
 8402TIP3    H246622   4.969   6.281  12.028  0.5466 -1.0883  1.3302
 8403TIP3   OH246623   5.868   4.272  14.668 -0.5353  0.3313  0.3185
 8403TIP3    H146624   5.949   4.231  14.639 -1.0486 -0.1734 -0.4112
 8403TIP3    H246625   5.824   4.299  14.588 -1.3155  0.1720  0.6908
 8404TIP3   OH246626   0.518   4.968  13.346 -0.2811 -0.2205  0.1932
 8404TIP3    H146627   0.582   5.038  13.361 -1.7294  0.9273  1.2869
 8404TIP3    H246628   0.486   4.983  13.257  1.1826 -0.9964 -0.4772
 8405TIP3   OH246629   2.515   0.400   1.408 -0.0996 -0.1174 -0.2979
 8405TIP3    H146630   2.440   0.353   1.445  0.5175  0.5040  1.8647
 8405TIP3    H246631   2.591   0.365   1.456  0.4661  2.3870  0.7089
 8406TIP3   OH246632   1.990   6.314  14.280 -0.5046 -0.2259  0.4360
 8406TIP3    H146633   2.020   6.250  14.215  1.9669  2.0433 -0.7623
 8406TIP3    H246634   1.929   6.371  14.233  0.5017  0.8035  0.3543
 8407TIP3   OH246635   5.828   2.993  14.656  0.5813 -0.2435 -0.2783
 8407TIP3    H146636   5.816   2.928  14.725  0.3855  0.3912  0.2839
 8407TIP3    H246637   5.835   3.076  14.702  1.1926  0.0928 -0.9758
 8408TIP3   OH246638   0.533   0.924   3.267  0.6067  0.0729  0.3526
 8408TIP3    H146639   0.552   0.875   3.348 -1.1029 -0.5398  0.4103
 8408TIP3    H246640   0.613   0.915   3.215  1.3892 -0.3214  1.5819
 8409TIP3   OH246641   4.159   1.423  11.434 -0.0011 -0.0182 -0.0978
 8409TIP3    H146642   4.208   1.476  11.371 -0.2017 -1.7069 -1.7153
 8409TIP3    H246643   4.082   1.393  11.385  0.5131 -2.4558  0.5222
 8410TIP3   OH246644   1.553   0.139   2.082  0.5632  0.4828 -0.2573
 8410TIP3    H146645   1.472   0.130   2.031  0.5239  0.9712 -0.2907
 8410TIP3    H246646   1.570   0.234   2.082  1.7335  0.2828 -1.1953
 8411TIP3   OH246647   5.971   6.031  17.142  0.3340 -0.5058  0.0275
 8411TIP3    H146648   5.973   6.110  17.194 -1.6202 -0.0726 -0.5299
 8411TIP3    H246649   6.063   6.009  17.127  0.8742  0.9252  1.2624
 8412TIP3   OH246650   5.875   3.639   0.408 -0.0261  0.2032  0.4859
 8412TIP3    H146651   5.923   3.719   0.425 -0.2718  0.3313  0.5799
 8412TIP3    H246652   5.859   3.601   0.494 -0.8371  0.5987  0.5127
 8413TIP3   OH246653   5.119   1.017  16.523  0.3569  0.1009 -0.0036
 8413TIP3    H146654   5.161   1.028  16.608  1.0424  0.2217 -0.3551
 8413TIP3    H246655   5.075   0.932  16.530 -0.9895  0.8628  1.0443
 8414TIP3   OH246656   3.660   6.731  11.961 -0.0658 -0.8661  0.3754
 8414TIP3    H146657   3.753   6.748  11.942  0.3492 -2.7683  0.6759
 8414TIP3    H246658   3.639   6.794  12.030  0.0943  1.8011 -1.9153
 8415TIP3   OH246659   6.697   0.992  12.993 -0.3660  0.1807 -0.5333
 8415TIP3    H146660   6.695   1.050  13.070 -2.1626 -0.6782  0.0923
 8415TIP3    H246661   6.618   1.014  12.944  0.2845  0.0513 -1.6446
 8416TIP3   OH246662   4.415   2.612   1.126 -0.2228  0.3128 -0.4019
 8416TIP3    H146663   4.419   2.539   1.065 -0.7524  0.6069 -0.7876
 8416TIP3    H246664   4.357   2.675   1.085 -1.0985  0.2409  0.6988
 8417TIP3   OH246665   2.790   6.133  13.127  0.3001 -0.1586 -0.3021
 8417TIP3    H146666   2.871   6.147  13.079  1.7498 -0.7030  1.9064
 8417TIP3    H246667   2.756   6.050  13.093  0.8555 -0.0948 -1.0072
 8418TIP3   OH246668   0.240   0.061   6.274  0.4937 -0.3376  0.1235
 8418TIP3    H146669   0.152   0.024   6.275 -0.0768  1.0067  1.3154
 8418TIP3    H246670   0.272   0.053   6.364  1.4353 -0.4401 -0.2098
 8419TIP3   OH246671   0.770   1.412   4.565  0.9407 -0.4057  0.0906
 8419TIP3    H146672   0.847   1.457   4.530  0.2734  0.7357  0.1017
 8419TIP3    H246673   0.753   1.343   4.501 -0.4789  1.8659 -2.0631
 8420TIP3   OH246674   3.566   0.526   5.301  0.2638 -0.7409  0.5117
 8420TIP3    H146675   3.557   0.555   5.210 -0.1432 -0.7041  0.5612
 8420TIP3    H246676   3.594   0.604   5.349 -0.1262 -0.6079  0.5230
 8421TIP3   OH246677   3.942   4.002  13.224  0.1189 -0.1376 -0.5914
 8421TIP3    H146678   4.006   3.958  13.280  0.0183 -0.3936 -0.6799
 8421TIP3    H246679   3.962   3.972  13.136 -0.0863 -0.1717 -0.6265
 8422TIP3   OH246680   3.279   2.020  12.048  0.3978  0.1074  0.3332
 8422TIP3    H146681   3.307   2.010  11.957 -1.6100  0.3174 -0.3322
 8422TIP3    H246682   3.340   1.965  12.098  0.3533 -1.5259 -1.3596
 8423TIP3   OH246683   5.395   2.422  10.677  0.2844 -0.5034 -0.2587
 8423TIP3    H146684   5.310   2.451  10.646  0.4816 -1.3932 -1.6615
 8423TIP3    H246685   5.446   2.502  10.688 -0.4324 -0.0431 -0.2799
 8424TIP3   OH246686   4.809   3.407  12.317 -0.6980  0.4008  0.2238
 8424TIP3    H146687   4.858   3.395  12.235  0.5036  0.0877  0.9698
 8424TIP3    H246688   4.827   3.328  12.367 -0.2814  1.2089  1.3662
 8425TIP3   OH246689   3.498   2.699  16.272  0.6149  0.0420  0.1111
 8425TIP3    H146690   3.537   2.618  16.304 -0.4840 -0.8311 -0.6886
 8425TIP3    H246691   3.449   2.734  16.347 -0.4900 -1.0557 -0.0830
 8426TIP3   OH246692   0.184   5.676   3.978  0.1633 -0.1565  0.0275
 8426TIP3    H146693   0.136   5.594   3.990 -1.1152  0.3379 -1.4808
 8426TIP3    H246694   0.276   5.651   3.984 -0.2180 -1.6402 -0.0747
 8427TIP3   OH246695   3.118   2.761   2.712 -0.2033  0.4374  0.9358
 8427TIP3    H146696   3.067   2.839   2.735 -1.0123 -0.1878  1.2982
 8427TIP3    H246697   3.108   2.703   2.787  0.5747  0.0707  0.7555
 8428TIP3   OH246698   3.146   5.864   1.402 -0.6816  0.0429 -0.1353
 8428TIP3    H146699   3.170   5.843   1.492  1.5417  2.2328 -0.1609
 8428TIP3    H246700   3.176   5.789   1.351 -0.0151 -0.2543  0.6855
 8429TIP3   OH246701   0.762   3.609  12.112 -0.5057  0.4845  0.1438
 8429TIP3    H146702   0.773   3.638  12.022 -0.8870  0.8513  0.2139
 8429TIP3    H246703   0.846   3.628  12.154 -0.3459  0.3610 -0.1185
 8430TIP3   OH246704   1.003   0.879  13.265 -0.1420  0.6895  0.3648
 8430TIP3    H146705   1.076   0.922  13.309  0.4771 -2.0612  2.1755
 8430TIP3    H246706   0.939   0.862  13.334 -1.6416  1.2878 -0.8391
 8431TIP3   OH246707   3.024   4.369   3.548  0.1940  0.2320 -0.0625
 8431TIP3    H146708   3.005   4.394   3.458 -1.6323 -0.7867  0.0025
 8431TIP3    H246709   3.108   4.409   3.568 -0.0786  1.6677 -1.7397
 8432TIP3   OH246710   5.180   1.451   0.576 -0.3531  0.2959 -0.6994
 8432TIP3    H146711   5.173   1.487   0.487  1.0355  0.1416 -0.8913
 8432TIP3    H246712   5.124   1.507   0.629 -0.8262  0.6900 -1.6003
 8433TIP3   OH246713   4.667   4.673   2.901  0.0509 -0.3419  0.5949
 8433TIP3    H146714   4.597   4.645   2.841  0.5651 -1.4755  0.5096
 8433TIP3    H246715   4.736   4.607   2.890  1.2944  0.9690  0.4079
 8434TIP3   OH246716   4.049   2.293  15.508  0.2610 -0.8034 -0.0336
 8434TIP3    H146717   4.138   2.328  15.502 -0.3172  0.5198 -0.9753
 8434TIP3    H246718   3.993   2.370  15.516 -0.5750 -1.7201  3.7925
 8435TIP3   OH246719   0.782   4.366   1.345 -0.3539 -0.1715 -0.4494
 8435TIP3    H146720   0.867   4.343   1.382 -0.0116 -1.5875 -2.0698
 8435TIP3    H246721   0.719   4.319   1.400 -0.0243 -0.0263  0.0559
 8436TIP3   OH246722   4.296   1.071  13.608 -0.3712 -0.0290  0.4110
 8436TIP3    H146723   4.308   1.050  13.700  1.3543  0.5871  0.3354
 8436TIP3    H246724   4.210   1.114  13.604 -0.9531 -1.0581  1.5401
 8437TIP3   OH246725   5.814   2.881  13.334 -0.2593 -0.0435 -0.0355
 8437TIP3    H146726   5.721   2.860  13.329 -0.4185  1.1051 -2.1714
 8437TIP3    H246727   5.848   2.823  13.403 -2.3056 -1.2843 -0.0435
 8438TIP3   OH246728   6.146   0.038   2.635  0.4484  0.3267 -0.1691
 8438TIP3    H146729   6.158   0.020   2.542  0.8584 -0.3628  0.0152
 8438TIP3    H246730   6.076  -0.021   2.663  1.3420 -0.5421  0.2838
 8439TIP3   OH246731   4.388   3.107   2.427  0.0315 -0.5822  0.3657
 8439TIP3    H146732   4.448   3.170   2.386  0.5872 -2.3006 -1.5349
 8439TIP3    H246733   4.328   3.082   2.357 -1.6897 -0.3673  1.7507
 8440TIP3   OH246734   6.177   5.757   1.779  0.5122 -0.1256 -0.4906
 8440TIP3    H146735   6.266   5.765   1.745  0.3606  1.5689 -0.5147
 8440TIP3    H246736   6.161   5.839   1.826 -0.5976 -0.9181  0.5398
 8441TIP3   OH246737   2.426   1.235   4.934  0.1759 -0.1154 -0.1757
 8441TIP3    H146738   2.404   1.222   5.026  0.9683  0.5774  0.1198
 8441TIP3    H246739   2.455   1.327   4.929  0.9034 -0.3816 -0.9504
 8442TIP3   OH246740   3.515   2.352   1.908 -0.3903  0.4266 -0.2056
 8442TIP3    H146741   3.458   2.396   1.971 -0.3861  0.6106 -0.3300
 8442TIP3    H246742   3.532   2.266   1.947  0.3200  0.8579  0.4617
 8443TIP3   OH246743   3.594   2.620   4.598 -0.4625  0.1761  0.4994
 8443TIP3    H146744   3.551   2.590   4.518 -1.8234 -0.3617  1.4149
 8443TIP3    H246745   3.525   2.619   4.664  1.1568 -1.6898  2.2596
 8444TIP3   OH246746   0.197   0.946   2.944  0.3521  0.2389  0.3735
 8444TIP3    H146747   0.196   0.930   3.038 -1.1150  1.3303  0.5593
 8444TIP3    H246748   0.128   1.010   2.929 -0.9062 -1.5396 -1.7437
 8445TIP3   OH246749   4.887   3.210  12.543 -0.4116 -0.3390 -0.7804
 8445TIP3    H146750   4.824   3.271  12.580  0.1552 -0.0655 -0.2574
 8445TIP3    H246751   4.844   3.125  12.546 -0.2017 -0.3935  0.9189
 8446TIP3   OH246752   4.918   4.821   2.323  0.2325 -0.1860  0.3408
 8446TIP3    H146753   4.997   4.852   2.279  0.0832 -1.5176 -0.9079
 8446TIP3    H246754   4.894   4.741   2.276 -1.3587 -0.2790  1.2708
 8447TIP3   OH246755   3.471   3.044   0.187  0.8211 -0.2370  0.0007
 8447TIP3    H146756   3.487   2.993   0.108  0.4668  0.1383 -0.3188
 8447TIP3    H246757   3.549   3.099   0.196  0.5949  0.1614 -0.4375
 8448TIP3   OH246758   0.311   1.496  11.194 -0.1861  0.3292 -0.5573
 8448TIP3    H146759   0.238   1.478  11.254 -1.2063  0.3196 -1.7784
 8448TIP3    H246760   0.331   1.411  11.155  0.0982  0.4395 -0.6489
 8449TIP3   OH246761   0.593   1.161   1.295  0.1052  0.2411  0.6120
 8449TIP3    H146762   0.541   1.147   1.216 -0.2733 -2.0354  1.2131
 8449TIP3    H246763   0.529   1.164   1.366  0.5750  0.5099  1.0309
 8450TIP3   OH246764   1.882   5.182  11.907 -0.9860  0.2740 -0.6899
 8450TIP3    H146765   1.958   5.227  11.943 -0.3121 -0.4901 -1.1557
 8450TIP3    H246766   1.830   5.157  11.984 -0.3389  0.0321 -0.3324
 8451TIP3   OH246767   4.223   2.912   5.496  0.2213  0.4418 -0.3260
 8451TIP3    H146768   4.281   2.908   5.572 -2.7006  2.5311  2.1500
 8451TIP3    H246769   4.278   2.949   5.426  2.7659 -0.8475  0.9320
 8452TIP3   OH246770   5.712   3.601   1.788  0.5727 -0.1572 -0.0607
 8452TIP3    H146771   5.706   3.561   1.874  0.7277  0.3749  0.2041
 8452TIP3    H246772   5.771   3.676   1.800  0.7540 -0.1934 -0.6703
 8453TIP3   OH246773   6.696   3.821  15.707 -0.0221 -0.1599 -0.3357
 8453TIP3    H146774   6.724   3.864  15.626  0.1442  0.3831  0.0058
 8453TIP3    H246775   6.634   3.754  15.678  0.6146 -0.4826 -0.9820
 8454TIP3   OH246776   6.017   0.497  11.464 -0.2060 -0.1986 -0.5761
 8454TIP3    H146777   6.029   0.478  11.371  1.7861  1.0933 -0.6278
 8454TIP3    H246778   6.105   0.489  11.501 -0.8663  0.0021  1.0535
 8455TIP3   OH246779   2.701   4.504   3.053 -0.2657  0.0278  0.1877
 8455TIP3    H146780   2.693   4.482   3.145  0.0025 -0.5573  0.0706
 8455TIP3    H246781   2.795   4.513   3.038 -0.2179 -1.2417 -0.3467
 8456TIP3   OH246782   0.236   5.236  12.021 -0.2407  0.3830 -0.0477
 8456TIP3    H146783   0.329   5.254  12.002 -0.4171 -0.4854 -1.8485
 8456TIP3    H246784   0.207   5.182  11.948 -2.9509  3.0350 -1.0569
 8457TIP3   OH246785   4.644   6.489  12.162  0.6847 -0.4026 -0.2119
 8457TIP3    H146786   4.642   6.556  12.230 -0.0645 -0.3202 -0.3115
 8457TIP3    H246787   4.632   6.537  12.080  1.0525 -0.5601 -0.3583
 8458TIP3   OH246788   5.359   3.137  12.504 -0.6484 -0.1536  0.2768
 8458TIP3    H146789   5.381   3.120  12.413 -1.4053  0.0401  0.0576
 8458TIP3    H246790   5.439   3.117  12.552 -0.1796 -0.0303 -0.4550
 8459TIP3   OH246791   0.752   5.153  14.597  0.4124 -0.1134 -0.3198
 8459TIP3    H146792   0.831   5.135  14.647  0.6937 -3.0593 -1.7095
 8459TIP3    H246793   0.702   5.071  14.601 -1.4946  0.9623 -1.3810
 8460TIP3   OH246794   5.651   1.902  14.187 -0.4616 -0.0701 -0.2921
 8460TIP3    H146795   5.666   1.933  14.276  1.0375  0.4330 -0.7059
 8460TIP3    H246796   5.624   1.811  14.198 -0.9131  0.1785  0.7039
 8461TIP3   OH246797   4.541   0.517   1.586 -0.3022 -0.5925  0.3851
 8461TIP3    H146798   4.618   0.561   1.621  0.0003 -0.4955 -0.3717
 8461TIP3    H246799   4.468   0.548   1.640 -0.0842  0.7896 -0.0927
 8462TIP3   OH246800   6.142   3.354  12.571 -0.4237  0.0016 -0.0209
 8462TIP3    H146801   6.209   3.364  12.638  0.0496  1.1805 -0.6724
 8462TIP3    H246802   6.093   3.276  12.598 -0.4349  0.6381  1.8723
 8463TIP3   OH246803   2.699   5.327   1.164  0.0301 -0.3381 -0.1068
 8463TIP3    H146804   2.762   5.398   1.174  0.3163 -0.6014 -0.0439
 8463TIP3    H246805   2.680   5.299   1.254 -1.0025  0.4673 -0.0710
 8464TIP3   OH246806   5.782   0.854   4.459  0.0781  0.5632  0.0544
 8464TIP3    H146807   5.809   0.792   4.391 -0.1199  1.9341 -1.2806
 8464TIP3    H246808   5.686   0.857   4.452  0.0917  1.0601  0.0841
 8465TIP3   OH246809   3.055   0.751   0.964 -0.5543  0.0198 -0.3386
 8465TIP3    H146810   3.059   0.658   0.983 -1.9873  0.4425  2.2715
 8465TIP3    H246811   3.122   0.790   1.021  0.7568  0.4978 -2.1682
 8466TIP3   OH246812   4.676   2.876  15.487 -0.3183  0.0105  0.2070
 8466TIP3    H146813   4.706   2.947  15.430 -0.6689  1.4724  1.8301
 8466TIP3    H246814   4.745   2.809  15.479  0.5824  1.0013 -0.4591
 8467TIP3   OH246815   4.091   0.440   3.499  0.5306  0.3894  0.0772
 8467TIP3    H146816   4.186   0.456   3.501  0.8888 -1.6322  0.8762
 8467TIP3    H246817   4.070   0.413   3.589 -1.0979  2.2569  0.3023
 8468TIP3   OH246818   1.232   0.876   4.739 -0.0422  0.2522  0.1662
 8468TIP3    H146819   1.265   0.790   4.715 -0.8483  0.1534 -0.6282
 8468TIP3    H246820   1.302   0.916   4.791  0.5779 -0.6353  0.0117
 8469TIP3   OH246821   5.412   3.528   4.758 -0.0902 -0.3741 -0.4262
 8469TIP3    H146822   5.419   3.594   4.827 -0.5193 -0.9348  0.1736
 8469TIP3    H246823   5.433   3.574   4.677  1.0622  0.1409  0.1607
 8470TIP3   OH246824   3.675   2.278  13.526 -0.0890  0.1199 -0.5727
 8470TIP3    H146825   3.639   2.199  13.486 -1.1044 -0.1636  0.8501
 8470TIP3    H246826   3.758   2.249  13.564  0.0726 -0.0025 -1.0204
 8471TIP3   OH246827   2.472   4.852  10.759 -0.1452 -0.0684 -0.4509
 8471TIP3    H146828   2.378   4.844  10.739 -0.1412 -0.7999 -0.2047
 8471TIP3    H246829   2.513   4.787  10.702  0.2241  0.3412 -0.6458
 8472TIP3   OH246830   6.492   5.634  15.140 -0.3647 -0.6265  0.0948
 8472TIP3    H146831   6.403   5.663  15.121 -0.6040 -1.4782 -0.1140
 8472TIP3    H246832   6.483   5.580  15.219  0.1975  0.5284  0.9686
 8473TIP3   OH246833   1.361   6.584   2.388 -0.7126  0.3526  0.4009
 8473TIP3    H146834   1.453   6.582   2.415 -0.3703  2.0981 -0.6023
 8473TIP3    H246835   1.315   6.537   2.458  0.7098  0.9852  1.7943
 8474TIP3   OH246836   3.974   0.512  11.048  0.2211  0.2469  0.2595
 8474TIP3    H146837   4.003   0.597  11.016 -0.9330  0.1206 -1.1928
 8474TIP3    H246838   4.050   0.455  11.036  0.0639  0.3895 -1.5938
 8475TIP3   OH246839   1.916   5.947   6.337  0.4046  0.0368  0.2429
 8475TIP3    H146840   1.821   5.938   6.328  0.1089  1.3603  1.8527
 8475TIP3    H246841   1.945   5.864   6.375  0.2762 -1.4023 -2.6174
 8476TIP3   OH246842   5.323   0.692   0.431 -0.0099  0.2129  0.6794
 8476TIP3    H146843   5.257   0.652   0.374  0.3328 -0.1409  0.5262
 8476TIP3    H246844   5.293   0.672   0.519 -0.5858  0.8333  0.6289
 8477TIP3   OH246845   4.333   4.782   2.392  0.0461 -0.1470  0.0573
 8477TIP3    H146846   4.374   4.715   2.446 -1.3372 -0.3594  0.8790
 8477TIP3    H246847   4.405   4.819   2.340  0.7865 -2.4680 -0.6371
 8478TIP3   OH246848   5.782   4.934   2.235  0.0439 -0.8247  0.0455
 8478TIP3    H146849   5.706   4.925   2.178  0.0234 -0.9304  0.0886
 8478TIP3    H246850   5.768   4.869   2.304 -1.1620  0.9929  1.5627
 8479TIP3   OH246851   4.330   0.890  11.774 -0.6341 -0.2153 -0.0240
 8479TIP3    H146852   4.271   0.857  11.706  0.0480  0.0023 -0.7244
 8479TIP3    H246853   4.312   0.983  11.779 -0.8686 -0.2765  0.2793
 8480TIP3   OH246854   2.321   4.014   2.514  0.4410  0.3829 -0.3255
 8480TIP3    H146855   2.300   4.093   2.565  0.1017  1.1730 -1.6693
 8480TIP3    H246856   2.236   3.976   2.492  0.6002 -0.2818  0.1838
 8481TIP3   OH246857   5.547   4.839  14.967  0.6545  0.4501 -0.3201
 8481TIP3    H146858   5.547   4.825  14.872 -0.1946 -0.2589 -0.2246
 8481TIP3    H246859   5.503   4.924  14.978 -0.4655 -0.0926 -0.4917
 8482TIP3   OH246860   2.706   2.353  14.649  0.3713  0.0547  0.0815
 8482TIP3    H146861   2.799   2.358  14.675  0.6340 -0.0118 -0.8213
 8482TIP3    H246862   2.692   2.433  14.597  0.2042 -0.4494 -0.6560
 8483TIP3   OH246863   5.085   4.971  11.550  0.3214  0.0531  0.6412
 8483TIP3    H146864   5.088   4.929  11.636 -1.5673 -2.2714 -0.3570
 8483TIP3    H246865   5.118   4.904  11.490 -1.8450  0.3132 -0.8841
 8484TIP3   OH246866   4.372   3.101  17.065 -0.3197  0.0861  0.2187
 8484TIP3    H146867   4.285   3.134  17.042 -0.7498 -0.1195  1.4679
 8484TIP3    H246868   4.366   3.006  17.050  0.0588  0.2266 -0.8077
 8485TIP3   OH246869   6.667   5.930  16.457 -0.4437  0.3683  0.2587
 8485TIP3    H146870   6.732   5.861  16.469 -0.3535  0.2651 -0.7382
 8485TIP3    H246871   6.709   6.010  16.489 -0.2154  0.1205  0.5737
 8486TIP3   OH246872   2.914   6.018  13.591 -0.0448  0.1500 -0.1941
 8486TIP3    H146873   2.829   6.011  13.549  0.3222  0.9123 -1.0863
 8486TIP3    H246874   2.933   5.930  13.623 -0.7257 -0.2362 -0.8439
 8487TIP3   OH246875   5.558   4.046  12.701 -0.2525 -0.6430  0.4792
 8487TIP3    H146876   5.650   4.021  12.708 -0.0860 -0.2861 -0.3648
 8487TIP3    H246877   5.534   4.023  12.612 -0.0552  2.2707 -0.3657
 8488TIP3   OH246878   4.900   5.640   2.617 -0.1514  0.7660 -0.5053
 8488TIP3    H146879   4.937   5.561   2.577  0.8102  0.8652  0.1841
 8488TIP3    H246880   4.809   5.641   2.588 -0.4448 -1.1399  0.2748
 8489TIP3   OH246881   0.571   5.680  11.899  0.0696 -0.0080  0.0092
 8489TIP3    H146882   0.552   5.591  11.928  0.3922 -0.4907 -1.2091
 8489TIP3    H246883   0.634   5.713  11.963  0.4064 -0.8725  0.1352
 8490TIP3   OH246884   1.006   0.473   3.031 -0.2606  0.4201 -0.0537
 8490TIP3    H146885   0.919   0.434   3.043 -0.0496  0.0650  0.3494
 8490TIP3    H246886   1.037   0.436   2.948 -0.0826 -0.2416  0.3036
 8491TIP3   OH246887   1.643   1.923  15.586 -0.9407  0.1038 -0.2066
 8491TIP3    H146888   1.675   2.010  15.611 -0.8672 -0.2067  0.7773
 8491TIP3    H246889   1.711   1.863  15.615 -0.5421 -0.2052 -1.7506
 8492TIP3   OH246890   4.879   6.726  15.550  0.0447 -0.2781  0.1468
 8492TIP3    H146891   4.856   6.751  15.460  0.2600  0.5169  0.3035
 8492TIP3    H246892   4.914   6.807  15.588  1.7724 -1.0966  0.3470
 8493TIP3   OH246893   5.102   5.852  14.813  0.0327  0.7579  0.5708
 8493TIP3    H146894   5.037   5.840  14.743  1.2277  2.5610 -0.9290
 8493TIP3    H246895   5.139   5.765  14.827 -1.0710  0.1531 -0.2104
 8494TIP3   OH246896   0.951   5.614   5.023  0.4625 -0.6358 -0.2766
 8494TIP3    H146897   1.035   5.648   4.993  0.0796  0.2653 -0.3519
 8494TIP3    H246898   0.967   5.588   5.114  0.7330 -0.1194 -0.1734
 8495TIP3   OH246899   6.261   3.373  14.836 -0.0391  1.0762 -0.1516
 8495TIP3    H146900   6.326   3.347  14.771 -0.1685  1.3673 -0.3989
 8495TIP3    H246901   6.183   3.396  14.785 -0.1930  1.1528  0.1140
 8496TIP3   OH246902   6.712   3.447  13.861 -0.0317 -0.4825  0.1366
 8496TIP3    H146903   6.697   3.521  13.920  0.0860 -1.1077  0.9584
 8496TIP3    H246904   6.629   3.438  13.813 -0.5891 -0.8259  1.1658
 8497TIP3   OH246905   3.113   6.137   3.362  0.0180  0.3318  0.6321
 8497TIP3    H146906   3.105   6.206   3.427 -1.1896  0.7600  0.0445
 8497TIP3    H246907   3.146   6.182   3.284  1.6546 -0.2118  0.9869
 8498TIP3   OH246908   6.590   3.960   6.416  0.3773 -0.4696  0.2745
 8498TIP3    H146909   6.556   3.882   6.373 -1.3106  0.4823 -0.1881
 8498TIP3    H246910   6.564   3.950   6.508  1.3116 -1.0731  0.4690
 8499TIP3   OH246911   5.179   1.122  12.037  0.5614  0.2261  0.2690
 8499TIP3    H146912   5.179   1.081  11.950 -0.9377 -1.0190  0.8514
 8499TIP3    H246913   5.128   1.202  12.025 -1.5818 -1.0620  0.4944
 8500TIP3   OH246914   6.022   1.919  16.845  0.2704  0.0130  0.0962
 8500TIP3    H146915   5.928   1.914  16.827  0.0843  0.4622  0.8962
 8500TIP3    H246916   6.028   1.920  16.940  1.2175 -2.0862  0.0801
 8501TIP3   OH246917   0.136   1.596   1.413 -0.1788  0.1590  0.7167
 8501TIP3    H146918   0.153   1.624   1.503 -1.6537  0.6562  0.8531
 8501TIP3    H246919   0.183   1.513   1.404  0.7211  0.5614  1.6578
 8502TIP3   OH246920   0.924   6.753  15.041  0.6633 -0.2508  0.5197
 8502TIP3    H146921   0.966   6.694  15.104  0.1584  0.3863  1.4662
 8502TIP3    H246922   0.912   6.835  15.089 -0.3740  0.0215 -0.1864
 8503TIP3   OH246923   6.455   1.517  17.108 -0.0633 -0.2265  0.7122
 8503TIP3    H146924   6.390   1.454  17.139 -0.8450  0.1809 -0.0568
 8503TIP3    H246925   6.415   1.556  17.031  1.4362 -0.5324 -0.2422
 8504TIP3   OH246926   1.167   6.170  14.754 -0.0061  0.1891 -0.1416
 8504TIP3    H146927   1.166   6.262  14.726 -1.3588 -0.0644 -0.9816
 8504TIP3    H246928   1.228   6.128  14.694  0.2609  0.4482 -0.0539
 8505TIP3   OH246929   2.728   0.567  11.428  0.0621  0.1809 -0.6853
 8505TIP3    H146930   2.721   0.478  11.395 -1.5806 -0.5630  1.5298
 8505TIP3    H246931   2.801   0.564  11.491 -2.4151 -0.5808  2.2391
 8506TIP3   OH246932   5.572   5.140   4.137 -0.4364 -0.0486  0.1255
 8506TIP3    H146933   5.486   5.134   4.095 -0.9056 -0.4992  1.1361
 8506TIP3    H246934   5.559   5.200   4.210 -0.7576 -2.7551  2.3532
 8507TIP3   OH246935   4.048   5.539   5.964 -0.5696  0.3102  0.4575
 8507TIP3    H146936   3.958   5.514   5.943 -0.9488  2.6263 -0.8354
 8507TIP3    H246937   4.050   5.545   6.060 -1.4468 -0.9730  0.5613
 8508TIP3   OH246938   6.529   5.503   4.642 -0.0388  0.3651 -0.3946
 8508TIP3    H146939   6.455   5.442   4.636  1.3329 -1.2306 -1.1356
 8508TIP3    H246940   6.487   5.589   4.653 -1.9829 -0.6971  0.9095
 8509TIP3   OH246941   1.651   1.932   3.625  0.6393 -0.0753 -0.1139
 8509TIP3    H146942   1.616   1.852   3.586 -1.1146  1.4871 -1.8445
 8509TIP3    H246943   1.589   1.952   3.696 -0.5969  1.3099 -1.5563
 8510TIP3   OH246944   6.071   6.471   5.296  0.3278  0.2071 -0.2323
 8510TIP3    H146945   6.085   6.440   5.385  0.1365 -1.2328 -0.6942
 8510TIP3    H246946   5.979   6.496   5.293  0.1536 -0.4345 -0.2323
 8511TIP3   OH246947   4.140   2.904  12.749  0.4293 -0.1791 -0.2065
 8511TIP3    H146948   4.181   2.893  12.835 -0.4331 -2.8023 -0.0915
 8511TIP3    H246949   4.075   2.974  12.762  0.7367 -0.1261  1.1198
 8512TIP3   OH246950   2.782   5.931   4.978 -0.0012 -0.0446  0.4254
 8512TIP3    H146951   2.707   5.893   4.932 -1.8261  0.7462  2.6713
 8512TIP3    H246952   2.769   6.026   4.969  1.2248  0.0977  0.0742
 8513TIP3   OH246953   2.205   4.417   2.386 -0.3976 -0.0074  0.1921
 8513TIP3    H146954   2.244   4.433   2.471  0.0096  2.3841 -0.4019
 8513TIP3    H246955   2.279   4.393   2.330 -0.1202  1.7313 -0.2470
 8514TIP3   OH246956   1.634   6.294  11.955  0.2763  0.4242  0.6387
 8514TIP3    H146957   1.596   6.245  12.027  0.0850 -0.7754 -0.2537
 8514TIP3    H246958   1.725   6.309  11.982  0.7094 -1.5490  0.4054
 8515TIP3   OH246959   5.059   4.075  13.600  0.3601  0.3282 -0.0092
 8515TIP3    H146960   4.997   4.024  13.654  1.1475 -0.5253  0.1007
 8515TIP3    H246961   5.035   4.166  13.617  1.1177  0.1147  2.4499
 8516TIP3   OH246962   4.203   2.030   0.710  0.1495 -0.3628 -0.1463
 8516TIP3    H146963   4.112   2.058   0.714  0.6731  1.5913 -1.1362
 8516TIP3    H246964   4.222   2.025   0.616  1.7612  1.7409  0.0273
 8517TIP3   OH246965   2.879   4.347  10.705 -0.4691  0.0930  0.4959
 8517TIP3    H146966   2.845   4.328  10.618  2.1801 -0.4892 -0.4750
 8517TIP3    H246967   2.840   4.431  10.729 -0.0314  1.0323 -1.9346
 8518TIP3   OH246968   5.093   6.092   0.939  0.0130 -0.0054 -0.0690
 8518TIP3    H146969   5.127   6.172   0.899  1.7683 -0.2549  0.9089
 8518TIP3    H246970   5.004   6.115   0.965 -0.0477  1.1425 -1.2203
 8519TIP3   OH246971   5.124   2.270  15.369 -1.1294  0.0881  0.2031
 8519TIP3    H146972   5.104   2.274  15.275 -0.4642  0.1139  0.0619
 8519TIP3    H246973   5.219   2.264  15.373 -0.9643  2.4631  0.9227
 8520TIP3   OH246974   5.064   4.883  17.158  0.6387 -0.0811 -0.4472
 8520TIP3    H146975   5.101   4.923  17.236  0.6244 -1.4009  0.2372
 8520TIP3    H246976   5.131   4.898  17.090  0.6989  0.9554 -0.1737
 8521TIP3   OH246977   1.939   5.501   0.058 -0.3178  0.2646 -0.0659
 8521TIP3    H146978   1.978   5.508   0.145  0.4677 -1.3023 -0.2730
 8521TIP3    H246979   1.983   5.567   0.006 -0.7089  1.1314  0.6902
 8522TIP3   OH246980   0.256   3.688   1.955  0.7338  0.2291  0.3341
 8522TIP3    H146981   0.329   3.630   1.979  0.4534 -0.1100  0.3633
 8522TIP3    H246982   0.181   3.654   2.003  0.4057  0.1802 -0.2083
 8523TIP3   OH246983   3.468   4.588   1.599  0.0943 -0.3299  0.1740
 8523TIP3    H146984   3.414   4.560   1.673  0.1176  0.9123  0.6782
 8523TIP3    H246985   3.408   4.589   1.524 -0.0012 -1.2955  0.2400
 8524TIP3   OH246986   4.786   2.267   0.979  0.1787 -0.4193  0.3045
 8524TIP3    H146987   4.837   2.313   0.913  1.6105 -0.6431  1.2170
 8524TIP3    H246988   4.706   2.241   0.934 -0.6015  2.7604 -0.2866
 8525TIP3   OH246989   3.879   5.278  15.582 -0.0851 -0.4537 -0.0387
 8525TIP3    H146990   3.936   5.204  15.604  0.3480 -0.5398 -1.3718
 8525TIP3    H246991   3.896   5.343  15.651 -0.7439 -1.7223  1.3389
 8526TIP3   OH246992   4.124   5.013  13.486  0.0379  0.1786  0.0256
 8526TIP3    H146993   4.195   5.037  13.426 -0.3353 -1.6956 -1.1760
 8526TIP3    H246994   4.084   4.936  13.447 -0.4856 -0.8352  2.4684
 8527TIP3   OH246995   2.311   0.210   1.958 -0.2966  0.6699 -0.0363
 8527TIP3    H146996   2.381   0.230   2.021 -0.0431 -0.9015  0.2013
 8527TIP3    H246997   2.354   0.161   1.888 -1.0883  0.0037 -0.0708
 8528TIP3   OH246998   6.266   4.464   2.700  0.5412  0.1065 -0.4220
 8528TIP3    H146999   6.296   4.549   2.666 -2.5704  1.9221  1.1373
 8528TIP3    H247000   6.174   4.460   2.675 -0.6803 -0.5182  3.7628
 8529TIP3   OH247001   1.006   1.472  11.259 -0.2721 -0.6685  0.1735
 8529TIP3    H147002   1.001   1.561  11.292 -0.1351 -0.2150 -0.9914
 8529TIP3    H247003   0.927   1.429  11.292 -1.3516  0.4535 -0.8828
 8530TIP3   OH247004   1.295   2.652  13.672  0.1986 -0.1359 -0.6200
 8530TIP3    H147005   1.293   2.564  13.633  0.1262  0.1022 -1.1592
 8530TIP3    H247006   1.217   2.695  13.637 -0.7204 -0.4320  1.0226
 8531TIP3   OH247007   4.923   6.161   4.354 -0.3068  0.4000  0.3515
 8531TIP3    H147008   5.013   6.132   4.339  0.2577  1.8662  0.7533
 8531TIP3    H247009   4.883   6.092   4.407  0.3419 -0.6275 -0.4865
 8532TIP3   OH247010   5.389   1.551   3.139  0.3839 -0.0321  0.6121
 8532TIP3    H147011   5.304   1.563   3.180  0.1638  0.0912  0.1239
 8532TIP3    H247012   5.375   1.576   3.048  0.7867 -0.5998  0.3921
 8533TIP3   OH247013   2.918   2.501   5.336 -0.1251 -0.2936 -0.6483
 8533TIP3    H147014   2.978   2.514   5.262  0.6494 -2.0735 -0.3540
 8533TIP3    H247015   2.971   2.457   5.403 -1.0972  0.3629  0.5776
 8534TIP3   OH247016   1.050   6.011  17.132 -0.1630 -0.5098 -0.6977
 8534TIP3    H147017   0.979   6.071  17.155 -0.7260 -1.5811  0.3951
 8534TIP3    H247018   1.116   6.068  17.092 -0.9630  0.7470 -0.2883
 8535TIP3   OH247019   6.272   1.601  14.177  0.3633  0.6066  0.1302
 8535TIP3    H147020   6.254   1.599  14.271 -0.7650  2.7105 -0.0171
 8535TIP3    H247021   6.191   1.571  14.137  1.8171 -3.2327 -0.1229
 8536TIP3   OH247022   2.511   5.983  15.714  0.0749  0.2970  0.1753
 8536TIP3    H147023   2.483   5.892  15.706 -1.2404  0.5673  1.5874
 8536TIP3    H247024   2.575   5.983  15.785 -0.2552  0.5530  0.4741
 8537TIP3   OH247025   4.472   1.611  14.952  0.2603  0.6055 -0.8434
 8537TIP3    H147026   4.540   1.579  14.893  1.2920 -0.6927  0.9821
 8537TIP3    H247027   4.414   1.536  14.966  1.3716  0.1371  1.6151
 8538TIP3   OH247028   2.196   2.997   2.005 -0.0158  0.2367 -0.0831
 8538TIP3    H147029   2.231   2.952   1.928  1.7498  0.3926  0.6088
 8538TIP3    H247030   2.177   3.086   1.975 -0.6501 -0.0928 -0.6790
 8539TIP3   OH247031   0.121   5.503   3.025 -0.2322  0.2445 -0.8126
 8539TIP3    H147032   0.158   5.584   2.991 -0.7551  0.0429 -1.8516
 8539TIP3    H247033   0.034   5.527   3.057 -0.2806  0.1471 -0.8695
 8540TIP3   OH247034   4.132   1.067   2.808 -0.1608  0.2126  0.2228
 8540TIP3    H147035   4.214   1.102   2.843  1.8031 -1.6559 -2.3253
 8540TIP3    H247036   4.116   0.987   2.857 -0.6191  0.6786  0.8556
 8541TIP3   OH247037   4.151   2.850  16.528 -0.2905 -0.0307 -0.7691
 8541TIP3    H147038   4.146   2.770  16.581  1.9777  1.2862  1.5557
 8541TIP3    H247039   4.231   2.841  16.478  1.0112  1.5795  0.9546
 8542TIP3   OH247040   1.332   0.694  11.825  0.4321  0.5931  0.3327
 8542TIP3    H147041   1.410   0.643  11.802 -0.7722 -0.9828 -0.3121
 8542TIP3    H247042   1.287   0.641  11.890 -1.2342  0.4912 -0.8939
 8543TIP3   OH247043   4.032   1.499  14.078  0.2792  0.2161 -0.2959
 8543TIP3    H147044   4.039   1.436  14.150  1.7035  0.9832  0.2445
 8543TIP3    H247045   4.001   1.579  14.120  1.1011  0.6628 -0.5394
 8544TIP3   OH247046   2.096   1.183  17.138  0.3501 -0.0966 -0.2865
 8544TIP3    H147047   2.141   1.102  17.160  0.0364 -0.0622  0.4770
 8544TIP3    H247048   2.021   1.186  17.197  0.4497  0.8294 -0.2044
 8545TIP3   OH247049   4.251   4.416   0.522 -0.9390 -0.6379 -0.0791
 8545TIP3    H147050   4.275   4.495   0.569  1.7133 -2.7786  2.2883
 8545TIP3    H247051   4.269   4.436   0.430 -0.2281  1.4335  0.4938
 8546TIP3   OH247052   2.187   5.187  15.224  0.4832 -0.8811  0.2015
 8546TIP3    H147053   2.269   5.194  15.175  0.2638 -0.7723 -0.1460
 8546TIP3    H247054   2.125   5.148  15.163 -0.1249  0.4034 -0.0162
 8547TIP3   OH247055   6.032   1.819   2.771 -0.1101  0.6787  0.1537
 8547TIP3    H147056   6.071   1.906   2.766  1.6498  0.0882  2.5114
 8547TIP3    H247057   6.102   1.759   2.745 -0.7081 -0.1508  0.4136
 8548TIP3   OH247058   2.310   6.461  14.477 -0.1940 -0.2293 -0.1394
 8548TIP3    H147059   2.261   6.408  14.538 -1.8966  0.8902 -0.4863
 8548TIP3    H247060   2.316   6.547  14.519 -1.4072  0.5594 -1.5038
 8549TIP3   OH247061   4.804   6.258  12.087  0.1162 -0.0269 -0.0235
 8549TIP3    H147062   4.722   6.209  12.074 -0.1549  0.1429  1.0357
 8549TIP3    H247063   4.777   6.350  12.084  0.1626  0.0231  0.9787
 8550TIP3   OH247064   2.583   0.916   1.002 -0.3640 -0.5266  0.4351
 8550TIP3    H147065   2.561   1.000   0.960 -1.2977 -0.2146  1.5399
 8550TIP3    H247066   2.668   0.893   0.964 -0.0272  0.9844  0.2063
 8551TIP3   OH247067   1.851   1.749  14.540  0.0053  0.4948  0.1492
 8551TIP3    H147068   1.932   1.798  14.524 -1.0936  1.8458 -1.4704
 8551TIP3    H247069   1.843   1.747  14.635  0.8217  2.2506  0.2820
 8552TIP3   OH247070   1.879   2.832  15.894 -0.9298 -0.3098 -0.2310
 8552TIP3    H147071   1.921   2.824  15.980  0.3657  0.2218 -0.7892
 8552TIP3    H247072   1.883   2.926  15.874 -0.8145 -0.4863 -1.0624
 8553TIP3   OH247073   0.121   0.401  15.525  0.1714  0.2564 -0.3838
 8553TIP3    H147074   0.135   0.449  15.607  1.5977  0.3777 -0.6826
 8553TIP3    H247075   0.121   0.309  15.552  0.9393  0.2824 -0.2815
 8554TIP3   OH247076   2.812   0.580   0.893 -0.5062 -0.8678  0.1408
 8554TIP3    H147077   2.832   0.581   0.799 -1.1329 -0.3239  0.0071
 8554TIP3    H247078   2.837   0.492   0.922  1.0779 -0.5524 -0.2242
 8555TIP3   OH247079   2.099   0.142  14.565  0.3536 -0.3768  0.3487
 8555TIP3    H147080   2.129   0.157  14.476 -0.8719 -0.6019 -0.1221
 8555TIP3    H247081   2.100   0.228  14.606 -0.7535  0.0274 -0.4353
 8556TIP3   OH247082   5.476   1.065   4.956  0.2664 -0.7000  0.6621
 8556TIP3    H147083   5.533   0.988   4.948 -0.2933 -1.1336  0.7464
 8556TIP3    H247084   5.394   1.029   4.991  0.4423  0.1428  1.9383
 8557TIP3   OH247085   3.826   5.261   4.324 -0.8173  0.5469 -0.7190
 8557TIP3    H147086   3.892   5.195   4.346  0.0293  0.9848 -1.9240
 8557TIP3    H247087   3.743   5.220   4.348 -0.2223 -0.5451 -0.4782
 8558TIP3   OH247088   3.932   1.593  11.075 -0.0125  0.6029 -0.5601
 8558TIP3    H147089   3.923   1.676  11.029  0.1646  0.7688 -0.2976
 8558TIP3    H247090   3.862   1.538  11.039 -0.1752  0.8863 -0.6815
 8559TIP3   OH247091   2.378   2.699  11.178 -0.0695 -0.2597 -0.5674
 8559TIP3    H147092   2.443   2.769  11.176 -0.5266  0.1573 -0.8501
 8559TIP3    H247093   2.420   2.626  11.134  0.1171  0.0896 -0.9663
 8560TIP3   OH247094   1.326   6.652   1.201  0.5462  0.4920 -0.3168
 8560TIP3    H147095   1.345   6.698   1.119  0.0598  1.8936  0.3327
 8560TIP3    H247096   1.238   6.616   1.188  0.1274  1.4223 -0.1160
 8561TIP3   OH247097   3.777   0.101  13.437  0.2306  0.0337 -0.3873
 8561TIP3    H147098   3.726   0.062  13.366  0.3500 -0.6284 -0.1098
 8561TIP3    H247099   3.713   0.119  13.506  0.5324 -1.8069  0.3931
 8562TIP3   OH247100   1.042   0.202  15.606 -0.4816  0.3795  0.0269
 8562TIP3    H147101   1.059   0.184  15.514  1.5214  1.5880  0.1347
 8562TIP3    H247102   1.036   0.297  15.611 -0.8628  0.3081  1.1167
 8563TIP3   OH247103   4.385   3.558  15.639 -0.0237  0.2298  0.0805
 8563TIP3    H147104   4.366   3.464  15.633 -2.0301  0.6161 -0.0308
 8563TIP3    H247105   4.339   3.597  15.565 -0.6032  1.4915  1.0724
 8564TIP3   OH247106   5.044   1.859   0.458 -0.0158  0.5123 -0.4432
 8564TIP3    H147107   5.008   1.926   0.515 -1.0734 -1.2254  0.9863
 8564TIP3    H247108   5.030   1.893   0.369 -1.4058  1.7233  0.2229
 8565TIP3   OH247109   0.458   5.061   3.000  0.6009 -0.2362  0.4715
 8565TIP3    H147110   0.471   5.141   2.949 -2.0314 -0.8095 -1.1766
 8565TIP3    H247111   0.401   5.088   3.072  1.4211 -0.2003  1.1168
 8566TIP3   OH247112   3.880   0.386   3.140  0.1145  0.4442  0.0097
 8566TIP3    H147113   3.926   0.470   3.133  0.7205 -0.0141 -2.1297
 8566TIP3    H247114   3.949   0.321   3.127 -1.1760 -0.2551 -4.0251
 8567TIP3   OH247115   1.157   3.621  16.724  0.2370  0.3403 -0.2426
 8567TIP3    H147116   1.176   3.693  16.785  0.5458  0.1632 -0.1310
 8567TIP3    H247117   1.063   3.629  16.707  0.3821  1.1365 -0.6896
 8568TIP3   OH247118   4.984   1.987   0.203 -0.8015 -0.3476  0.1222
 8568TIP3    H147119   5.014   2.038   0.128  2.1956 -1.2862  0.5916
 8568TIP3    H247120   4.961   1.902   0.166 -1.5301 -0.0686 -0.0583
 8569TIP3   OH247121   1.822   1.711  15.558 -0.3655  0.2989  0.0965
 8569TIP3    H147122   1.889   1.765  15.600  3.6455 -3.4961 -0.9773
 8569TIP3    H247123   1.793   1.651  15.626  0.7371 -1.0304 -0.5748
 8570TIP3   OH247124   5.523   1.753   1.530  0.0787  0.6578  0.2113
 8570TIP3    H147125   5.500   1.804   1.608 -0.7198  0.8690 -0.1652
 8570TIP3    H247126   5.460   1.780   1.464  1.6732  1.5578 -0.9578
 8571TIP3   OH247127   0.673   6.606  16.201 -0.4394  0.0301  0.1115
 8571TIP3    H147128   0.660   6.637  16.111 -0.6244 -0.6041 -0.0830
 8571TIP3    H247129   0.723   6.525  16.191 -4.1553 -2.3901  0.2755
 8572TIP3   OH247130   2.236   6.224   3.919 -0.1634  0.5494  0.4018
 8572TIP3    H147131   2.266   6.149   3.868  0.3652  2.1764 -1.7868
 8572TIP3    H247132   2.287   6.220   4.000  0.6855 -0.7992 -0.1827
 8573TIP3   OH247133   6.580   6.392   4.815 -0.5258  0.2341 -0.5353
 8573TIP3    H147134   6.561   6.485   4.800  1.1722  0.8699  1.0854
 8573TIP3    H247135   6.659   6.392   4.868 -0.5883 -2.1577 -0.3949
 8574TIP3   OH247136   2.117   6.277  14.021  0.2682  0.2349  0.1332
 8574TIP3    H147137   2.199   6.251  13.980 -0.7370 -1.3919 -0.8660
 8574TIP3    H247138   2.123   6.373  14.028  0.9055  0.4580 -2.8595
 8575TIP3   OH247139   2.620   3.449   3.136 -0.1425 -0.4294 -0.2429
 8575TIP3    H147140   2.536   3.494   3.138  0.1818  0.3281 -1.9852
 8575TIP3    H247141   2.684   3.517   3.153  0.3235 -0.2552 -2.4630
 8576TIP3   OH247142   1.673   2.123  11.596 -0.0671 -0.1431 -0.8499
 8576TIP3    H147143   1.722   2.142  11.676  0.3622 -0.9834 -0.9078
 8576TIP3    H247144   1.681   2.203  11.543 -0.7379  0.5792  0.1420
 8577TIP3   OH247145   3.552   1.837  16.822  0.1366 -0.0868 -0.5407
 8577TIP3    H147146   3.508   1.902  16.767  1.9623  0.6136 -1.2241
 8577TIP3    H247147   3.609   1.791  16.761  0.2639 -1.0522  0.3070
 8578TIP3   OH247148   4.588   4.940   4.232 -0.0323  0.0964 -0.1167
 8578TIP3    H147149   4.631   5.015   4.274  1.8232 -0.9403 -0.1357
 8578TIP3    H247150   4.599   4.868   4.294  3.0099 -1.5258 -2.4014
 8579TIP3   OH247151   6.110   4.452   1.166  0.0892  0.1258 -0.1784
 8579TIP3    H147152   6.089   4.470   1.075  0.0217 -1.1570 -0.4231
 8579TIP3    H247153   6.205   4.441   1.167  0.2043  1.0731  0.0790
 8580TIP3   OH247154   1.558   5.820  13.949  0.4235 -0.4709  0.4098
 8580TIP3    H147155   1.644   5.806  13.911 -0.2387 -1.0579 -0.9451
 8580TIP3    H247156   1.571   5.885  14.017  1.7430  0.2770 -0.5414
 8581TIP3   OH247157   6.679   0.062  11.689 -0.3082 -0.6128  0.7551
 8581TIP3    H147158   6.636   0.138  11.652  1.4159 -1.7110 -3.8522
 8581TIP3    H247159   6.759   0.097  11.730 -0.0747  0.1706 -0.3646
 8582TIP3   OH247160   0.198   3.087  14.471 -0.3588 -0.3969 -0.3874
 8582TIP3    H147161   0.293   3.100  14.476 -0.2331 -1.0706 -0.9688
 8582TIP3    H247162   0.174   3.115  14.383 -0.6423 -0.5848 -0.3724
 8583TIP3   OH247163   2.437   3.612   3.909 -0.3209  0.4691 -0.0103
 8583TIP3    H147164   2.486   3.690   3.879 -0.3031  0.1356 -0.8702
 8583TIP3    H247165   2.501   3.541   3.905 -1.0356 -0.0998 -1.7667
 8584TIP3   OH247166   0.974   2.097   0.465  0.1952  0.1747 -0.4010
 8584TIP3    H147167   0.916   2.076   0.392  0.8385 -0.4552 -0.7402
 8584TIP3    H247168   1.020   2.015   0.483  1.6754  0.9182 -0.7690
 8585TIP3   OH247169   6.424   2.847  15.142 -0.0335  0.4250 -0.4102
 8585TIP3    H147170   6.458   2.767  15.102 -1.8138  0.0687 -1.2831
 8585TIP3    H247171   6.474   2.857  15.223  2.5665  0.2918 -1.9241
 8586TIP3   OH247172   4.015   4.325   5.721 -0.0281 -0.3984 -0.1007
 8586TIP3    H147173   4.003   4.370   5.805  1.5203  0.4883 -0.3386
 8586TIP3    H247174   4.004   4.233   5.741 -0.6690 -0.1092  0.8922
 8587TIP3   OH247175   2.568   1.692  11.344 -0.2033 -0.6520 -0.4213
 8587TIP3    H147176   2.497   1.748  11.314  2.1336  2.3144 -0.5945
 8587TIP3    H247177   2.610   1.661  11.264  1.8053  1.7357 -0.3338
 8588TIP3   OH247178   4.707   1.124  10.824 -0.0104 -0.1576 -0.1618
 8588TIP3    H147179   4.775   1.113  10.890 -0.8478 -0.5543  0.6551
 8588TIP3    H247180   4.747   1.179  10.757  1.1812 -0.5681  0.1964
 8589TIP3   OH247181   6.335   2.103   5.022  0.3954 -0.1548  0.3923
 8589TIP3    H147182   6.390   2.055   4.959  0.0818  0.6157 -0.4752
 8589TIP3    H247183   6.392   2.173   5.054  1.0294 -1.3963  2.0597
 8590TIP3   OH247184   6.520   0.351  16.191 -0.4225 -0.0543 -0.3217
 8590TIP3    H147185   6.432   0.317  16.177 -0.2972 -0.8105  0.6418
 8590TIP3    H247186   6.578   0.280  16.162 -0.1464 -0.1417  0.4260
 8591TIP3   OH247187   1.411   2.371   2.426  0.7033  0.1860  0.4534
 8591TIP3    H147188   1.385   2.422   2.349  2.7885 -1.0307 -1.1118
 8591TIP3    H247189   1.351   2.297   2.427  0.4036  0.4208  0.2673
 8592TIP3   OH247190   1.801   5.288  11.065  0.3721  0.3969 -0.4478
 8592TIP3    H147191   1.814   5.373  11.025 -0.5614  0.4386 -0.6811
 8592TIP3    H247192   1.862   5.285  11.138  0.1058  1.4336 -0.1837
 8593TIP3   OH247193   3.193   2.749   0.710  0.1086  0.0781  0.1666
 8593TIP3    H147194   3.162   2.840   0.714 -0.4330 -0.0302 -1.4399
 8593TIP3    H247195   3.172   2.713   0.796 -2.1085  0.7001 -0.0839
 8594TIP3   OH247196   5.217   4.633  17.180  0.1461 -0.4330  0.0227
 8594TIP3    H147197   5.310   4.646  17.200  0.4631  0.5807 -2.0279
 8594TIP3    H247198   5.173   4.709  17.221  0.3218 -0.4111  0.1708
 8595TIP3   OH247199   2.018   2.530  15.850  0.2447  0.7743 -0.6423
 8595TIP3    H147200   2.043   2.570  15.767 -2.2369  2.4939 -0.6074
 8595TIP3    H247201   2.078   2.568  15.914 -0.1217  2.1531 -1.1072
 8596TIP3   OH247202   0.037   3.438   4.117  0.4198  0.3162  0.1066
 8596TIP3    H147203   0.064   3.410   4.030 -0.0315  0.3353 -0.0431
 8596TIP3    H247204  -0.055   3.463   4.106 -0.4107 -2.1060  1.1237
 8597TIP3   OH247205   4.755   1.322   0.848  0.0966  0.0535  0.1311
 8597TIP3    H147206   4.818   1.303   0.779  0.0399  2.9427 -0.7960
 8597TIP3    H247207   4.795   1.287   0.928  1.4380 -0.8465 -0.9137
 8598TIP3   OH247208   0.131   0.413  16.747 -0.2032 -0.2703  0.4505
 8598TIP3    H147209   0.193   0.340  16.750 -0.0892 -0.3010 -1.7148
 8598TIP3    H247210   0.171   0.477  16.688 -0.9574  0.9330  1.2128
 8599TIP3   OH247211   3.500   0.921   1.403  0.3315 -0.0455 -0.1863
 8599TIP3    H147212   3.543   0.980   1.464 -1.0667  0.2606  0.5332
 8599TIP3    H247213   3.438   0.872   1.457 -0.0875 -0.6004 -1.1564
 8600TIP3   OH247214   1.851   3.644  12.480  0.5702 -0.0353 -0.0566
 8600TIP3    H147215   1.804   3.571  12.439  1.5277  0.4337 -2.0354
 8600TIP3    H247216   1.812   3.650  12.568 -2.2161 -0.4548 -1.1930
 8601TIP3   OH247217   3.908   5.915  13.959 -0.1847 -0.0238  0.1030
 8601TIP3    H147218   3.884   5.949  14.045 -0.8490  0.1380 -0.1412
 8601TIP3    H247219   3.832   5.865  13.931 -0.9326  1.8991 -1.4100
 8602TIP3   OH247220   4.609   1.067   4.101 -0.5660 -0.1883  0.0623
 8602TIP3    H147221   4.590   1.019   4.020  2.4833 -0.5659 -0.4896
 8602TIP3    H247222   4.699   1.097   4.090 -0.2751  0.1799  3.1237
 8603TIP3   OH247223   4.229   4.405   4.804  0.5547 -0.3099 -0.6383
 8603TIP3    H147224   4.294   4.456   4.853  0.6054  1.3184 -2.3318
 8603TIP3    H247225   4.152   4.403   4.861  1.5191 -0.8440  0.6761
 8604TIP3   OH247226   5.875   2.497  11.649  0.2412  0.1009  0.0652
 8604TIP3    H147227   5.882   2.441  11.572 -3.0915  1.9205 -1.6872
 8604TIP3    H247228   5.910   2.581  11.620  0.7475  0.2645  1.1409
 8605TIP3   OH247229   6.431   1.536   4.510  0.2641  0.3799  0.0028
 8605TIP3    H147230   6.357   1.505   4.458  0.3578 -0.5021  0.3854
 8605TIP3    H247231   6.505   1.535   4.449  0.5835 -1.5966  0.3820
 8606TIP3   OH247232   4.638   3.333  17.221  0.4534  0.0870  0.1863
 8606TIP3    H147233   4.666   3.243  17.207  2.6776  0.4814  1.7687
 8606TIP3    H247234   4.715   3.386  17.198 -0.2530  1.4681  0.9214
 8607TIP3   OH247235   4.393   2.228   6.388 -0.1505 -0.1336  0.7394
 8607TIP3    H147236   4.329   2.289   6.426 -0.8802  0.4250 -1.3424
 8607TIP3    H247237   4.468   2.284   6.364 -0.1977 -0.2998  0.2130
 8608TIP3   OH247238   3.520   1.838   5.535 -0.1590 -0.4414  0.4019
 8608TIP3    H147239   3.550   1.910   5.590 -0.3127 -0.2023  0.1790
 8608TIP3    H247240   3.554   1.759   5.577 -2.6432 -0.5045  2.4274
 8609TIP3   OH247241   4.523   5.136   1.685 -0.2433  0.5396  0.1058
 8609TIP3    H147242   4.456   5.096   1.740  0.2910  0.4166  0.6672
 8609TIP3    H247243   4.544   5.068   1.620  0.2857  0.0897  0.7374
 8610TIP3   OH247244   1.563   5.474   4.756 -0.4576  0.2073 -0.5818
 8610TIP3    H147245   1.520   5.558   4.746 -1.2797 -0.0531  0.6951
 8610TIP3    H247246   1.656   5.495   4.768 -0.7802  0.9854  0.6294
 8611TIP3   OH247247   6.023   6.686  14.465 -0.2048  0.6652 -0.2569
 8611TIP3    H147248   6.069   6.769  14.462  0.4936  0.6352  4.5399
 8611TIP3    H247249   5.985   6.683  14.553  0.5005 -4.4033  0.0512
 8612TIP3   OH247250   4.677   5.583  11.440 -0.0283  0.2952 -0.1477
 8612TIP3    H147251   4.647   5.674  11.434  0.5544  0.5978  1.3214
 8612TIP3    H247252   4.651   5.544  11.356 -1.9747  1.2881 -0.0389
 8613TIP3   OH247253   1.681   3.484   3.747  0.5562 -0.1691 -0.0907
 8613TIP3    H147254   1.680   3.552   3.815  1.2536  0.1226 -0.3730
 8613TIP3    H247255   1.598   3.438   3.759  0.7663 -0.2604  1.1017
 8614TIP3   OH247256   5.530   1.604  16.252 -0.5245  0.5894  0.5216
 8614TIP3    H147257   5.572   1.610  16.338 -0.0308  0.2913  0.3041
 8614TIP3    H247258   5.526   1.510  16.234 -0.9047  0.6362  0.3500
 8615TIP3   OH247259   2.591   1.145  11.753  0.1851  0.5441  0.0209
 8615TIP3    H147260   2.500   1.118  11.751  0.5309 -0.5949 -1.5444
 8615TIP3    H247261   2.628   1.113  11.671  2.0849  0.6816  0.7765
 8616TIP3   OH247262   3.380   0.614  13.765 -0.0023  0.2948  0.0902
 8616TIP3    H147263   3.392   0.705  13.737  0.5789  1.2094  3.0996
 8616TIP3    H247264   3.456   0.568  13.730  0.4640  1.2810 -0.2107
 8617TIP3   OH247265   2.220   5.475  13.316 -0.4276  0.1134  0.1719
 8617TIP3    H147266   2.186   5.540  13.254 -0.1172  0.8008  0.7145
 8617TIP3    H247267   2.221   5.521  13.401 -1.2084 -0.9315  0.7591
 8618TIP3   OH247268   0.509   0.701  14.692  0.1705  0.0101  0.3443
 8618TIP3    H147269   0.536   0.609  14.695 -3.0210 -1.0332 -1.1774
 8618TIP3    H247270   0.509   0.724  14.599 -2.0542  0.5981  0.4622
 8619TIP3   OH247271   0.932   6.608   0.615 -0.7904  0.3749  0.2652
 8619TIP3    H147272   1.009   6.648   0.576 -1.0655  0.6694  0.0217
 8619TIP3    H247273   0.877   6.583   0.541 -1.3137  0.9303  0.4626
 8620TIP3   OH247274   1.374   3.635  16.554  0.6705 -1.2774  0.3288
 8620TIP3    H147275   1.321   3.671  16.625  1.6282  4.6530 -1.6050
 8620TIP3    H247276   1.457   3.610  16.596  1.0639  1.7307  1.4831
 8621TIP3   OH247277   1.447   0.780  12.676 -0.4927 -0.2037 -0.4177
 8621TIP3    H147278   1.510   0.843  12.711 -0.8416 -0.1210  0.0693
 8621TIP3    H247279   1.420   0.729  12.752 -1.1102 -0.1495 -0.5980
 8622TIP3   OH247280   3.947   0.933  12.544 -0.3511  0.0069  0.0042
 8622TIP3    H147281   3.981   1.018  12.516 -0.9452 -0.3043 -1.6837
 8622TIP3    H247282   3.992   0.869  12.488  0.3825 -0.8365  1.5257
 8623TIP3   OH247283   2.406   2.228   1.756  0.2056 -0.0171  0.7344
 8623TIP3    H147284   2.397   2.139   1.721  0.5608  0.0946  0.3523
 8623TIP3    H247285   2.469   2.218   1.829  0.0642 -0.1176  0.8431
 8624TIP3   OH247286   4.362   3.442   5.752  0.3921  0.0104  0.2370
 8624TIP3    H147287   4.311   3.495   5.690 -0.6919 -1.2272  0.0717
 8624TIP3    H247288   4.376   3.500   5.827 -2.4364 -0.0959  0.8745
 8625TIP3   OH247289   6.595   2.256  14.367  0.0984  0.2698  0.4574
 8625TIP3    H147290   6.547   2.188  14.413 -1.9053  2.3150  1.4467
 8625TIP3    H247291   6.528   2.306  14.320  1.5413  1.4533 -0.3881
 8626TIP3   OH247292   3.550   5.047  16.599 -0.6091 -0.1790  0.7065
 8626TIP3    H147293   3.528   4.973  16.655  1.4060 -1.9281 -0.7109
 8626TIP3    H247294   3.601   5.106  16.655  0.6391 -1.4873  0.9813
 8627TIP3   OH247295   3.978   3.456  13.692 -0.3358  0.5456  0.2947
 8627TIP3    H147296   4.006   3.391  13.628 -0.4819  0.6297  0.1461
 8627TIP3    H247297   3.889   3.479  13.665 -0.6328  0.1179  0.8948
 8628TIP3   OH247298   0.578   2.255   3.355 -0.3862  0.1814 -0.3055
 8628TIP3    H147299   0.506   2.212   3.310 -1.9054  1.3918  0.9244
 8628TIP3    H247300   0.549   2.345   3.367  1.2900  0.6701  0.2831
 8629TIP3   OH247301   2.656   4.814  16.767 -0.2180  0.3405  0.3331
 8629TIP3    H147302   2.566   4.784  16.777  0.6643 -1.8673  2.2585
 8629TIP3    H247303   2.704   4.736  16.737  0.9881  1.5702 -0.9787
 8630TIP3   OH247304   0.095   0.369   0.099 -0.1945 -0.4127 -0.2554
 8630TIP3    H147305   0.131   0.338   0.182 -0.2749  0.0200 -0.0571
 8630TIP3    H247306   0.156   0.437   0.070  0.0170 -0.8034 -0.7190
 8631TIP3   OH247307   2.006   0.922  13.294  0.2541 -1.2260  0.2231
 8631TIP3    H147308   1.953   0.909  13.373  1.7612 -1.4741  1.2246
 8631TIP3    H247309   1.992   0.842  13.243  0.2978 -1.6512  0.8640
 8632TIP3   OH247310   4.931   0.571   3.713  0.3157 -0.5982 -0.4254
 8632TIP3    H147311   4.922   0.545   3.804  1.0010 -1.4002 -0.5758
 8632TIP3    H247312   4.911   0.492   3.663 -1.4578  0.2078 -1.0182
 8633TIP3   OH247313   5.369   4.483  13.019  0.1393 -0.7014 -0.5452
 8633TIP3    H147314   5.363   4.560  13.075  0.7767 -1.0960  0.0812
 8633TIP3    H247315   5.461   4.458  13.023 -0.1965 -1.9211 -0.1498
 8634TIP3   OH247316   2.739   5.313   3.722 -0.6367  0.8414  0.0961
 8634TIP3    H147317   2.771   5.391   3.677  0.8709  0.7476  0.9618
 8634TIP3    H247318   2.675   5.347   3.784  1.1253  1.6280  1.5569
 8635TIP3   OH247319   2.132   3.292   1.600  0.2936 -0.0517  0.7399
 8635TIP3    H147320   2.186   3.250   1.533 -0.9620 -0.7803  0.1749
 8635TIP3    H247321   2.065   3.228   1.621 -0.8951  1.1810  0.7959
 8636TIP3   OH247322   1.962   6.259   5.920 -0.2599 -0.3134  0.8061
 8636TIP3    H147323   1.958   6.217   6.006  2.0426 -1.2586  0.5142
 8636TIP3    H247324   1.969   6.185   5.859 -1.8147  0.3531 -0.1958
 8637TIP3   OH247325   3.134   6.052  17.085  0.5732 -0.0952 -0.4280
 8637TIP3    H147326   3.208   6.101  17.050  0.9742 -0.3888  0.0162
 8637TIP3    H247327   3.162   5.960  17.082  0.2315 -0.2051 -0.2489
 8638TIP3   OH247328   1.978   5.241   2.250 -0.5269 -0.7525 -0.0757
 8638TIP3    H147329   2.054   5.184   2.234  0.1555  0.2378 -0.3781
 8638TIP3    H247330   2.016   5.325   2.276 -1.5478 -0.6147  0.9787
 8639TIP3   OH247331   6.604   1.499  15.207 -0.6682 -0.1962 -0.0952
 8639TIP3    H147332   6.609   1.441  15.283 -2.0278  0.0088  0.1668
 8639TIP3    H247333   6.588   1.439  15.133 -0.2576 -0.3137 -0.0893
 8640TIP3   OH247334   2.921   2.029  16.053 -0.3842 -0.2543  0.5621
 8640TIP3    H147335   3.002   2.079  16.058  0.5027 -1.6352  0.2457
 8640TIP3    H247336   2.873   2.052  16.133  0.1590  0.8185  0.5845
 8641TIP3   OH247337   6.187   0.200   2.008  0.3348 -0.1953  0.3397
 8641TIP3    H147338   6.273   0.207   1.965  0.6556  0.1187  1.0298
 8641TIP3    H247339   6.153   0.290   2.007 -0.4694 -0.5106 -0.9212
 8642TIP3   OH247340   2.330   2.205  14.240  0.3750 -0.3328 -0.5547
 8642TIP3    H147341   2.289   2.203  14.327 -0.1549 -0.4194 -0.8074
 8642TIP3    H247342   2.293   2.282  14.197  0.5122 -0.3851 -0.7682
 8643TIP3   OH247343   1.872   6.316  16.522  0.0862 -0.8360  0.1813
 8643TIP3    H147344   1.812   6.347  16.590 -0.2685  0.5555 -0.7417
 8643TIP3    H247345   1.951   6.291  16.570 -0.3463 -0.3514  1.1694
 8644TIP3   OH247346   4.763   6.428  11.723  0.7976 -0.4624  0.5423
 8644TIP3    H147347   4.853   6.452  11.704  0.0313  2.0269 -0.0688
 8644TIP3    H247348   4.722   6.508  11.756 -1.2841 -1.4313  0.4233
 8645TIP3   OH247349   6.118   4.101   4.751 -0.0177  0.0374 -0.2829
 8645TIP3    H147350   6.093   4.010   4.736 -0.8266  0.1382  0.4293
 8645TIP3    H247351   6.191   4.097   4.813  1.2257 -0.2100 -1.7089
 8646TIP3   OH247352   3.028   3.182   6.218  0.0762 -0.4083  0.0138
 8646TIP3    H147353   2.948   3.231   6.199  0.6005  0.9232  1.0790
 8646TIP3    H247354   3.008   3.092   6.194 -0.8120  0.3864 -2.3181
 8647TIP3   OH247355   2.994   2.064  16.787 -0.3952  0.2441 -0.7330
 8647TIP3    H147356   3.085   2.075  16.813 -1.3134  1.0762  2.2529
 8647TIP3    H247357   2.975   1.972  16.801 -0.3464  0.3058 -0.2762
 8648TIP3   OH247358   1.611   3.872   4.974 -0.0760 -0.6661 -0.1877
 8648TIP3    H147359   1.679   3.936   4.951 -0.2239 -0.7308 -0.8086
 8648TIP3    H247360   1.529   3.918   4.958 -0.1914 -1.4193 -1.8201
 8649TIP3   OH247361   5.139   5.627  13.184  0.1560  0.1603  0.3534
 8649TIP3    H147362   5.060   5.594  13.226 -1.6254  2.9684 -0.6685
 8649TIP3    H247363   5.204   5.631  13.254  0.2341 -4.4813  0.7209
 8650TIP3   OH247364   4.718   3.467   2.608 -0.3165  0.1344  0.0130
 8650TIP3    H147365   4.712   3.515   2.690 -0.5157  1.4267 -0.7313
 8650TIP3    H247366   4.810   3.441   2.601 -0.2805  0.1067  0.5896
 8651TIP3   OH247367   4.711   4.203  12.018  0.3539  0.1661 -0.1138
 8651TIP3    H147368   4.795   4.247  12.032 -1.3794  3.2417  1.4538
 8651TIP3    H247369   4.727   4.112  12.042  2.6431  1.1963  2.6001
 8652TIP3   OH247370   6.443   0.843   4.309  0.0571 -0.0099  0.4511
 8652TIP3    H147371   6.430   0.928   4.265  0.2005 -0.1175  0.2002
 8652TIP3    H247372   6.530   0.850   4.348  0.9683 -0.8278 -1.3662
 8653TIP3   OH247373   2.807   3.319   6.177 -0.5696 -0.6729 -0.2556
 8653TIP3    H147374   2.769   3.392   6.129 -1.0258 -0.8065 -0.1017
 8653TIP3    H247375   2.783   3.335   6.269  0.0481 -0.5711 -0.1097
 8654TIP3   OH247376   3.320   4.895   3.739  0.1737 -0.0062  0.2171
 8654TIP3    H147377   3.269   4.833   3.687 -0.0101 -1.3792  1.9834
 8654TIP3    H247378   3.271   4.976   3.735  0.3713  0.0264 -2.0716
 8655TIP3   OH247379   6.397   4.747   4.233  0.0864 -0.3280  0.2112
 8655TIP3    H147380   6.445   4.683   4.181  1.1623  0.5003  0.1660
 8655TIP3    H247381   6.455   4.823   4.238 -1.0456  0.5388  0.5160
 8656TIP3   OH247382   2.140   1.306  16.489 -0.0934  0.4223  0.0148
 8656TIP3    H147383   2.069   1.364  16.461 -1.7124 -1.4746  0.0274
 8656TIP3    H247384   2.099   1.246  16.552  1.8293  0.0975  1.0023
 8657TIP3   OH247385   3.161   1.475  15.087 -0.2763 -0.3577  0.5058
 8657TIP3    H147386   3.109   1.506  15.161  0.1944  0.0613  0.6646
 8657TIP3    H247387   3.168   1.550  15.029  0.5587 -0.2612  0.7202
 8658TIP3   OH247388   4.641   4.516  15.053 -0.3809  0.2698 -0.2189
 8658TIP3    H147389   4.653   4.430  15.015  0.4644  0.1146  0.3755
 8658TIP3    H247390   4.625   4.499  15.146  4.4614  0.9011  0.8848
 8659TIP3   OH247391   4.782   5.079   4.834  0.0091  0.1960  0.5541
 8659TIP3    H147392   4.826   5.068   4.918 -1.0977  0.2791  1.1432
 8659TIP3    H247393   4.853   5.076   4.770  0.6477 -2.0725  1.2996
 8660TIP3   OH247394   1.137   5.998  15.937  0.2831  0.1485  0.0886
 8660TIP3    H147395   1.070   6.062  15.960  1.2642  0.9937  0.6473
 8660TIP3    H247396   1.199   6.047  15.883  1.9032  0.1333  1.8700
 8661TIP3   OH247397   1.432   3.465  15.766  0.1746 -0.5833  0.3776
 8661TIP3    H147398   1.364   3.419  15.816  2.2359 -0.6884  3.1960
 8661TIP3    H247399   1.483   3.395  15.726  0.2590 -0.5790  0.4792
 8662TIP3   OH247400   3.843   0.880  11.410  0.1023  0.4684 -0.0683
 8662TIP3    H147401   3.826   0.837  11.326  1.1764 -0.9985  0.4365
 8662TIP3    H247402   3.834   0.810  11.475  2.6419  0.7873  0.6993
 8663TIP3   OH247403   1.954   3.751   4.447  0.4480  0.7054 -0.4514
 8663TIP3    H147404   2.041   3.776   4.414  0.9937  0.3483  0.7033
 8663TIP3    H247405   1.938   3.811   4.519 -0.2148  0.6813 -0.5810
 8664TIP3   OH247406   5.601   2.546   0.126  0.1819 -0.1240  0.0556
 8664TIP3    H147407   5.590   2.567   0.218  0.5699  1.7322 -0.3055
 8664TIP3    H247408   5.636   2.456   0.126 -0.0968 -0.2413  1.6887
 8665TIP3   OH247409   0.054   4.191  11.473 -0.0945  0.7695  0.0487
 8665TIP3    H147410   0.075   4.165  11.384 -0.2972  1.0551 -0.0847
 8665TIP3    H247411  -0.020   4.137  11.498  0.4167  0.1783  0.3084
 8666TIP3   OH247412   2.808   2.308   2.890  0.1802 -0.0211  0.2926
 8666TIP3    H147413   2.789   2.305   2.796 -0.2255  0.8703  0.3348
 8666TIP3    H247414   2.903   2.309   2.896  0.2057 -0.1744 -0.1103
 8667TIP3   OH247415   6.697   5.766  15.310 -0.1534 -0.9783 -0.2823
 8667TIP3    H147416   6.780   5.807  15.285 -1.9092  3.4615  0.7482
 8667TIP3    H247417   6.657   5.739  15.228  1.7954 -2.1517 -0.8607
 8668TIP3   OH247418   5.801   0.669   2.791  0.3889  0.0334  0.3299
 8668TIP3    H147419   5.740   0.736   2.760 -1.6819 -1.3899  1.1841
 8668TIP3    H247420   5.820   0.692   2.881  2.0241  1.0898 -0.2666
 8669TIP3   OH247421   0.108   0.267  13.303 -0.1935  0.0941 -0.0461
 8669TIP3    H147422   0.114   0.350  13.256 -2.6083  0.7029  0.6451
 8669TIP3    H247423   0.085   0.203  13.236 -0.5949  0.4035 -0.2057
 8670TIP3   OH247424   1.656   2.489  10.787 -0.0963  0.5038 -0.2562
 8670TIP3    H147425   1.658   2.443  10.870  2.2378  0.5543 -0.2551
 8670TIP3    H247426   1.566   2.522  10.780 -1.0257 -1.6656  1.0203
 8671TIP3   OH247427   5.388   2.175  16.187 -0.6299 -0.2280 -0.8571
 8671TIP3    H147428   5.456   2.150  16.125 -1.1364 -1.1720 -1.0425
 8671TIP3    H247429   5.363   2.264  16.161  1.0112  0.4158 -0.3491
 8672TIP3   OH247430   4.551   1.452  12.248 -0.4672 -0.2018 -0.4426
 8672TIP3    H147431   4.531   1.537  12.207  1.0256  0.1920 -0.3747
 8672TIP3    H247432   4.468   1.405  12.246 -1.8304  1.9695  1.2022
 8673TIP3   OH247433   0.628   2.801   2.594 -0.0062  0.1637 -0.3849
 8673TIP3    H147434   0.674   2.765   2.670 -0.3706 -1.5565 -0.9673
 8673TIP3    H247435   0.699   2.830   2.536  0.2750  1.3655  0.5344
 8674TIP3   OH247436   6.705   2.775   4.622 -0.0270  0.2111  0.1561
 8674TIP3    H147437   6.777   2.721   4.589 -0.8863  0.9078 -3.0306
 8674TIP3    H247438   6.727   2.864   4.595 -1.1711  0.6885  0.7736
 8675TIP3   OH247439   1.598   4.121  12.368  0.0372  0.2167 -0.1277
 8675TIP3    H147440   1.597   4.028  12.347  0.5247  0.0458  0.5985
 8675TIP3    H247441   1.635   4.163  12.291 -0.9815 -0.0955 -0.8040
 8676TIP3   OH247442   1.526   2.469   2.651  0.5114 -0.6135  0.2442
 8676TIP3    H147443   1.444   2.490   2.695  0.1596  2.1740 -1.5941
 8676TIP3    H247444   1.499   2.432   2.566  1.1706 -1.8598  0.5696
 8677TIP3   OH247445   4.474   0.438  15.830  0.2218 -0.5221 -0.4275
 8677TIP3    H147446   4.512   0.398  15.908  0.2268  1.1728  0.4633
 8677TIP3    H247447   4.549   0.475  15.783  0.0694 -0.3428 -0.5294
 8678TIP3   OH247448   1.132   0.803  12.407 -0.3306 -0.2965  0.2366
 8678TIP3    H147449   1.104   0.853  12.331 -1.0610 -0.2946  0.5082
 8678TIP3    H247450   1.084   0.721  12.401  0.2202 -0.6259  0.2604
 8679TIP3   OH247451   1.217   6.364  15.934 -0.1770  0.3461 -0.2297
 8679TIP3    H147452   1.281   6.433  15.917 -1.0583  1.7327  1.8933
 8679TIP3    H247453   1.154   6.372  15.863 -0.6407  2.1905  0.3641
 8680TIP3   OH247454   1.205   1.570   0.924  0.5545 -0.2166  0.0346
 8680TIP3    H147455   1.208   1.512   0.847  0.6755  0.8616 -0.7851
 8680TIP3    H247456   1.153   1.522   0.988 -1.1768 -0.3303 -1.4073
 8681TIP3   OH247457   1.606   3.458   0.770 -0.5508  0.3008  0.2179
 8681TIP3    H147458   1.673   3.398   0.735 -0.1812  1.4962 -1.1878
 8681TIP3    H247459   1.529   3.404   0.782  1.0314 -1.4302  3.1849
 8682TIP3   OH247460   1.769   6.019  11.014 -0.2466 -0.1440 -0.8676
 8682TIP3    H147461   1.775   5.947  11.076  1.3484  1.0785  0.4618
 8682TIP3    H247462   1.756   5.977  10.929  2.1060 -2.0881 -0.3194
 8683TIP3   OH247463   6.228   0.554   5.318 -0.2290 -0.2228  0.4943
 8683TIP3    H147464   6.305   0.506   5.289  0.4822  0.8347  0.5965
 8683TIP3    H247465   6.247   0.645   5.297 -0.7952  0.2465  1.9446
 8684TIP3   OH247466   1.530   2.035  12.050 -0.0826 -0.4639 -0.1083
 8684TIP3    H147467   1.492   2.053  12.136 -0.2272 -0.7682 -0.1046
 8684TIP3    H247468   1.602   1.974  12.067  0.4067  0.1078 -0.1143
 8685TIP3   OH247469   3.686   6.321  13.525  0.4773 -0.3623  0.3590
 8685TIP3    H147470   3.659   6.370  13.447  0.0350 -0.7296  0.2791
 8685TIP3    H247471   3.633   6.242  13.524  2.5928 -1.8133 -0.5772
 8686TIP3   OH247472   1.372   0.700  10.453  0.1221  0.4745 -0.7520
 8686TIP3    H147473   1.418   0.763  10.509  0.5237 -0.4905  0.0142
 8686TIP3    H247474   1.385   0.734  10.364 -1.1122  2.3885 -0.2176
 8687TIP3   OH247475   2.510   4.678   2.437 -0.2250  0.2919 -0.3603
 8687TIP3    H147476   2.443   4.727   2.390 -0.1256  0.9938  0.2236
 8687TIP3    H247477   2.585   4.676   2.376 -0.1085  1.1650 -0.2574
 8688TIP3   OH247478   5.924   3.242   2.794  0.1211  0.0413 -0.1044
 8688TIP3    H147479   5.845   3.267   2.747  0.0646  0.7809  0.3645
 8688TIP3    H247480   5.892   3.214   2.880  0.4379  1.2218  0.4070
 8689TIP3   OH247481   4.241   2.950  14.771 -0.1215  0.2215  0.1631
 8689TIP3    H147482   4.210   3.019  14.830  1.6508  0.2503  1.0796
 8689TIP3    H247483   4.298   2.895  14.826 -0.5038 -1.2460 -0.8755
 8690TIP3   OH247484   1.284   4.240   2.226  0.1814  0.0412 -0.2751
 8690TIP3    H147485   1.323   4.220   2.141  0.6800  1.3417 -0.3681
 8690TIP3    H247486   1.232   4.319   2.210  1.6333  1.2838  0.9878
 8691TIP3   OH247487   5.377   3.825   2.966  0.1496  0.3084  0.3388
 8691TIP3    H147488   5.359   3.917   2.984 -0.8795 -0.0884  1.3993
 8691TIP3    H247489   5.467   3.812   2.996  0.4630  1.0744 -0.2514
 8692TIP3   OH247490   1.367   1.891  14.924  0.3035  0.1640 -0.9267
 8692TIP3    H147491   1.350   1.905  14.831  1.0134 -0.7170 -1.1965
 8692TIP3    H247492   1.454   1.851  14.926  0.4582  0.5457  0.1397
 8693TIP3   OH247493   6.280   1.513   4.926  0.4808 -0.2675 -0.5948
 8693TIP3    H147494   6.273   1.450   4.998 -1.2713  1.1285  0.5148
 8693TIP3    H247495   6.330   1.585   4.962  0.9542 -0.2527 -1.2867
 8694TIP3   OH247496   4.368   6.451  14.146 -0.0449 -0.0354  0.3047
 8694TIP3    H147497   4.408   6.536  14.167  0.1528 -0.0316 -0.0846
 8694TIP3    H247498   4.341   6.416  14.231  0.9850 -0.1321  0.6009
 8695TIP3   OH247499   3.010   6.174  13.355  0.1279  0.2836  0.2653
 8695TIP3    H147500   2.955   6.252  13.343 -1.2503 -0.8832 -1.1717
 8695TIP3    H247501   2.956   6.113  13.405  1.2836  0.2982  1.5731
 8696TIP3   OH247502   3.619   2.831   4.050  0.1282  0.1890 -0.0446
 8696TIP3    H147503   3.597   2.924   4.059  1.1454  0.5564 -1.1874
 8696TIP3    H247504   3.557   2.786   4.107 -0.1953  1.5902  0.7331
 8697TIP3   OH247505   3.730   0.570  17.132 -0.0152  0.6072  0.2997
 8697TIP3    H147506   3.783   0.569  17.052 -0.6328  0.1879 -0.1192
 8697TIP3    H247507   3.704   0.661  17.143  0.0729  0.6672  0.0199
 8698TIP3   OH247508   2.849   3.949  13.787  0.7336 -0.2292 -0.2677
 8698TIP3    H147509   2.780   3.923  13.725 -0.9907  0.7787  1.1859
 8698TIP3    H247510   2.850   4.045  13.782 -0.0389 -0.0927  1.8948
 8699TIP3   OH247511   2.791   1.053  14.137 -0.1533 -0.4184 -0.0523
 8699TIP3    H147512   2.829   0.968  14.155  0.5441  0.0561  0.7280
 8699TIP3    H247513   2.790   1.098  14.222 -0.1860  0.4803 -0.5200
 8700TIP3   OH247514   0.324   1.349   0.321 -0.6542  0.5997  0.1045
 8700TIP3    H147515   0.319   1.278   0.258 -0.4665  0.5070  0.1944
 8700TIP3    H247516   0.233   1.362   0.351 -1.0325  1.8307 -1.5040
 8701TIP3   OH247517   0.411   0.609  15.675 -0.1287  1.0888 -0.1097
 8701TIP3    H147518   0.451   0.679  15.727  2.8679  0.4610 -1.4345
 8701TIP3    H247519   0.468   0.533  15.689 -0.9222  0.1103 -2.0018
 8702TIP3   OH247520   5.314   6.700   5.285 -0.0373  0.4724  0.1109
 8702TIP3    H147521   5.265   6.772   5.325 -0.2724  1.5963 -2.1208
 8702TIP3    H247522   5.373   6.742   5.222  1.2902 -1.1398  0.2365
 8703TIP3   OH247523   3.224   3.180  16.233  0.5060 -0.1827 -0.6341
 8703TIP3    H147524   3.212   3.248  16.166  0.0721  1.2274  0.8302
 8703TIP3    H247525   3.139   3.135  16.237 -0.7783  2.2580  1.6198
 8704TIP3   OH247526   5.494   0.400  17.031  0.0081 -0.2933 -0.1718
 8704TIP3    H147527   5.504   0.388  16.937  0.8464  2.3269 -0.4589
 8704TIP3    H247528   5.545   0.478  17.051 -1.7820  0.3386  2.1316
 8705TIP3   OH247529   6.769   3.526   1.604 -0.6971  0.0121  0.0288
 8705TIP3    H147530   6.701   3.459   1.593 -0.6511 -0.0071 -0.1340
 8705TIP3    H247531   6.728   3.607   1.572 -0.1154 -0.2938 -1.5014
 8706TIP3   OH247532   3.370   5.449  15.150  0.6732  0.8023 -0.0325
 8706TIP3    H147533   3.456   5.413  15.127  1.2402  0.8331  1.9611
 8706TIP3    H247534   3.324   5.375  15.191  0.5138  1.3571  0.7859
 8707TIP3   OH247535   3.654   1.777   3.880 -0.1412 -0.3768 -0.0718
 8707TIP3    H147536   3.686   1.708   3.938  0.1676  1.2290  1.6759
 8707TIP3    H247537   3.721   1.784   3.812 -0.6080 -2.4082 -0.7759
 8708TIP3   OH247538   5.689   4.524   5.185  0.0916 -0.4244  0.5649
 8708TIP3    H147539   5.676   4.451   5.124  2.5183  0.3867 -0.9720
 8708TIP3    H247540   5.682   4.603   5.131 -1.8433  0.5125  2.1027
 8709TIP3   OH247541   1.143   1.118   1.142 -0.0142 -0.5340 -0.4425
 8709TIP3    H147542   1.187   1.069   1.211 -2.5227 -1.0969  0.8259
 8709TIP3    H247543   1.102   1.192   1.188  0.1892  0.3630 -1.6803
 8710TIP3   OH247544   1.405   4.835   5.175  0.1860 -0.1157  0.3625
 8710TIP3    H147545   1.347   4.762   5.155  0.2039  0.0908 -0.4451
 8710TIP3    H247546   1.349   4.899   5.218 -0.1977  0.1191 -0.4943
 8711TIP3   OH247547   0.371   2.556   4.172 -0.4400  0.0860 -0.5655
 8711TIP3    H147548   0.329   2.507   4.101 -2.8146  1.4869 -0.2058
 8711TIP3    H247549   0.305   2.621   4.198  1.0787  0.7844  1.6961
 8712TIP3   OH247550   6.715   1.828  12.809 -0.3913 -0.4834  0.0875
 8712TIP3    H147551   6.661   1.776  12.868  0.4555 -2.1030 -0.5129
 8712TIP3    H247552   6.725   1.912  12.852 -1.9702 -0.7453  0.9995
 8713TIP3   OH247553   6.171   1.148  12.842 -0.3436  0.4036  0.1394
 8713TIP3    H147554   6.131   1.178  12.760 -1.5399  0.1698  0.6187
 8713TIP3    H247555   6.104   1.091  12.881  0.0180  0.9073  1.5202
 8714TIP3   OH247556   5.787   1.657   1.431 -0.0592 -0.0832  0.1682
 8714TIP3    H147557   5.691   1.660   1.439 -0.0448 -0.6960  0.5745
 8714TIP3    H247558   5.818   1.638   1.519  0.4458  0.2585  0.0660
 8715TIP3   OH247559   6.482   0.131   3.018  0.4712  0.0041 -0.2562
 8715TIP3    H147560   6.391   0.111   3.040  0.6800 -0.5866  0.0753
 8715TIP3    H247561   6.534   0.075   3.076  1.0472  0.4071 -0.3783
 8716TIP3   OH247562   1.110   5.755   0.469  0.0197  0.0698 -0.5652
 8716TIP3    H147563   1.047   5.763   0.396 -1.1280 -0.8448  0.2980
 8716TIP3    H247564   1.137   5.845   0.487 -2.0212  0.6360 -0.1288
 8717TIP3   OH247565   6.016   1.198   5.216 -0.3559  0.4230  0.2828
 8717TIP3    H147566   5.928   1.164   5.234 -0.3598  0.9346  1.3164
 8717TIP3    H247567   6.053   1.138   5.152  0.0478 -2.1989  2.8366
 8718TIP3   OH247568   1.442   0.356  16.967 -0.5359 -0.1310 -0.0258
 8718TIP3    H147569   1.402   0.324  16.886 -0.3104  0.5937 -0.4240
 8718TIP3    H247570   1.533   0.325  16.962 -0.7515 -0.8367  0.3670
 8719TIP3   OH247571   1.374   3.392   3.356  0.6272 -0.5473 -0.2965
 8719TIP3    H147572   1.360   3.403   3.262 -0.6875 -1.0561 -0.1689
 8719TIP3    H247573   1.386   3.298   3.368  2.8817 -0.2740 -0.2141
 8720TIP3   OH247574   6.723   4.732  14.934  0.4002  0.1276  0.0056
 8720TIP3    H147575   6.724   4.806  14.994  1.9743  1.5620 -1.7489
 8720TIP3    H247576   6.631   4.706  14.930 -0.1995  2.0993  0.4777
 8721TIP3   OH247577   3.445   4.037  12.404  0.0993 -0.0085  0.4137
 8721TIP3    H147578   3.461   4.107  12.341 -1.7218  0.7397  0.7356
 8721TIP3    H247579   3.491   4.064  12.483 -1.3266  1.2988  0.8217
 8722TIP3   OH247580   6.155   2.488   2.459  0.6910 -0.5130 -0.5330
 8722TIP3    H147581   6.219   2.544   2.416  0.7907  0.4646  0.8562
 8722TIP3    H247582   6.165   2.507   2.552 -1.3865 -0.6032 -0.2766
 8723TIP3   OH247583   5.966   0.636  14.995  0.3863  0.3250 -0.3332
 8723TIP3    H147584   6.044   0.648  15.048 -0.0121  0.1592  0.2986
 8723TIP3    H247585   5.957   0.718  14.946  1.1100  0.2327 -0.6111
 8724TIP3   OH247586   0.750   5.264  13.122 -0.2059  0.4581 -0.1692
 8724TIP3    H147587   0.715   5.349  13.096 -1.2096  0.0364 -0.2193
 8724TIP3    H247588   0.676   5.219  13.161  0.6731  0.1281  1.1261
 8725TIP3   OH247589   2.311   0.047   4.799  0.1996  0.2431 -0.2878
 8725TIP3    H147590   2.226   0.089   4.807  0.1806  0.1000  0.2765
 8725TIP3    H247591   2.361   0.104   4.740 -0.4726  0.0168 -1.0943
 8726TIP3   OH247592   2.180   3.023   0.265 -0.5662 -0.1686  0.1639
 8726TIP3    H147593   2.254   3.077   0.236 -0.0795 -0.9287 -0.0306
 8726TIP3    H247594   2.102   3.071   0.235 -0.1160 -0.0555 -0.8410
 8727TIP3   OH247595   1.988   1.429   1.785  0.4369  0.1114  0.6275
 8727TIP3    H147596   1.934   1.426   1.864  0.0274  0.6411  0.3759
 8727TIP3    H247597   2.000   1.338   1.761 -2.8932  0.0189 -0.9960
 8728TIP3   OH247598   6.286   0.966   1.560  0.3383  0.4318  0.6535
 8728TIP3    H147599   6.348   0.999   1.626  1.2724 -3.1053  1.6572
 8728TIP3    H247600   6.336   0.966   1.478  2.1833 -3.5323  1.6774
 8729TIP3   OH247601   1.666   1.462   3.424 -0.1984  0.2258 -0.0132
 8729TIP3    H147602   1.605   1.481   3.353 -0.0942 -0.8161 -0.3789
 8729TIP3    H247603   1.752   1.471   3.384 -0.1369 -2.8194 -0.6981
 8730TIP3   OH247604   5.197   0.038  16.562  0.3504  0.0934 -0.5941
 8730TIP3    H147605   5.132  -0.031  16.554  0.2009  0.3261 -1.4237
 8730TIP3    H247606   5.170   0.104  16.499  1.4209  0.1676 -0.9866
 8731TIP3   OH247607   4.680   5.345   5.592 -0.2369  0.5189 -0.0237
 8731TIP3    H147608   4.592   5.312   5.607 -0.5918  1.6850  0.4368
 8731TIP3    H247609   4.736   5.267   5.598 -1.1882 -0.1578  0.0593
 8732TIP3   OH247610   3.089   6.657  13.590  0.2132 -0.0452  0.3467
 8732TIP3    H147611   3.111   6.649  13.497 -0.0377  2.8463  0.0029
 8732TIP3    H247612   3.072   6.567  13.618 -2.0438 -0.7542 -2.9760
 8733TIP3   OH247613   2.571   4.075   2.836  0.1426  0.0340  0.0901
 8733TIP3    H147614   2.543   3.999   2.784 -0.2827 -0.1633  0.6109
 8733TIP3    H247615   2.565   4.149   2.775 -1.4328 -0.0132  0.1788
 8734TIP3   OH247616   1.928   6.767  10.910 -0.4729  0.3525  0.2024
 8734TIP3    H147617   1.854   6.791  10.854  0.9271 -0.0725 -1.8684
 8734TIP3    H247618   1.980   6.847  10.916  1.4806 -0.6766 -2.4442
 8735TIP3   OH247619   3.829   5.404   4.559  0.2854 -0.1038  0.2803
 8735TIP3    H147620   3.773   5.338   4.599  0.9357  0.4945  2.2710
 8735TIP3    H247621   3.833   5.381   4.467  0.5485 -2.8552  0.9554
 8736TIP3   OH247622   0.886   3.485  12.861  0.7416  0.0157 -0.5012
 8736TIP3    H147623   0.970   3.449  12.834  0.5388  0.2254 -1.4437
 8736TIP3    H247624   0.831   3.409  12.879  1.5354 -0.1287  1.4675
 8737TIP3   OH247625   0.860   4.026   1.981  0.5401 -0.4332 -0.0339
 8737TIP3    H147626   0.916   4.104   1.973 -0.5342  0.2637 -0.8464
 8737TIP3    H247627   0.809   4.041   2.060 -0.6947  0.3611 -0.9735
 8738TIP3   OH247628   0.135   6.356   1.663  0.1176  0.0425  0.1395
 8738TIP3    H147629   0.043   6.352   1.692  0.5350  1.5232  1.7405
 8738TIP3    H247630   0.167   6.267   1.675 -0.8256 -0.2533  0.5822
 8739TIP3   OH247631   5.471   4.092   3.757 -0.4917 -0.4674  0.4416
 8739TIP3    H147632   5.532   4.031   3.799  0.2809 -0.5297 -0.7526
 8739TIP3    H247633   5.462   4.164   3.819  0.8178 -0.4486  0.6171
 8740TIP3   OH247634   3.419   4.621  16.029  0.2128 -0.4911 -0.0004
 8740TIP3    H147635   3.348   4.612  15.965  1.0584  0.9605 -1.1826
 8740TIP3    H247636   3.380   4.670  16.101 -0.3810 -0.9706  0.0124
 8741TIP3   OH247637   5.553   6.548  13.538  0.5640 -0.0398  0.1265
 8741TIP3    H147638   5.559   6.640  13.563  0.0086  0.4532 -1.4731
 8741TIP3    H247639   5.515   6.504  13.614  0.7160  1.0669  0.8532
 8742TIP3   OH247640   3.333   0.819   1.642 -0.1376 -0.2065  0.0447
 8742TIP3    H147641   3.345   0.736   1.689  0.9196 -0.4980 -0.7195
 8742TIP3    H247642   3.248   0.852   1.672 -0.6749 -1.6792  0.1871
 8743TIP3   OH247643   6.560   2.594  11.653  0.0583 -0.3427 -0.1821
 8743TIP3    H147644   6.589   2.509  11.686 -0.5592 -0.7309 -0.6271
 8743TIP3    H247645   6.575   2.589  11.558 -0.4014 -0.1296 -0.2684
 8744TIP3   OH247646   4.989   4.491  17.053  0.3510 -0.9065 -0.3238
 8744TIP3    H147647   5.040   4.552  17.106  0.7482 -0.0657 -1.6616
 8744TIP3    H247648   5.041   4.411  17.053  0.2267 -1.0049  0.7430
 8745TIP3   OH247649   3.998   1.109   3.127  0.1634  0.2265 -0.9003
 8745TIP3    H147650   4.091   1.099   3.145 -0.5698 -3.4353  1.5011
 8745TIP3    H247651   3.980   1.202   3.142  3.1739  0.7505 -0.2633
 8746TIP3   OH247652   5.853   2.236   2.457  0.0231  0.1571  1.1494
 8746TIP3    H147653   5.801   2.293   2.399  0.8336  0.4938  0.7469
 8746TIP3    H247654   5.839   2.148   2.422 -0.8973  0.1449  1.5159
 8747TIP3   OH247655   3.002   4.455  16.934  0.3482 -0.1274 -0.3566
 8747TIP3    H147656   2.980   4.363  16.953  1.0536 -0.3590 -0.6412
 8747TIP3    H247657   2.937   4.483  16.870  0.6838 -0.7046 -0.9484
 8748TIP3   OH247658   5.741   4.367  15.727 -0.2879  0.6802 -0.5324
 8748TIP3    H147659   5.785   4.310  15.663  0.2303  1.2350 -0.6666
 8748TIP3    H247660   5.663   4.317  15.753 -0.3047  0.2899 -1.3162
 8749TIP3   OH247661   1.117   4.347   3.262  0.2449 -0.1123  0.2261
 8749TIP3    H147662   1.084   4.372   3.349 -0.2993 -2.9110  0.8824
 8749TIP3    H247663   1.212   4.347   3.271  0.2218  0.7365  0.4859
 8750TIP3   OH247664   5.671   5.904   0.328 -0.4936  0.7715  0.4559
 8750TIP3    H147665   5.678   5.886   0.422  4.9805 -2.2388 -0.2984
 8750TIP3    H247666   5.713   5.989   0.317  1.6316 -0.2457  0.4578
 8751TIP3   OH247667   5.814   6.657  15.464  0.1286 -0.3155 -0.6561
 8751TIP3    H147668   5.847   6.703  15.541 -0.2391 -2.5896  0.9221
 8751TIP3    H247669   5.771   6.579  15.500  0.7760 -1.9026 -3.2245
 8752TIP3   OH247670   2.569   5.271  12.858 -0.2343 -0.3164  0.2586
 8752TIP3    H147671   2.592   5.323  12.781 -0.7817 -0.5462 -0.0684
 8752TIP3    H247672   2.653   5.241  12.893  0.0770  0.6745  0.3785
 8753TIP3   OH247673   3.918   3.691  11.870 -0.4998 -0.1433 -0.6544
 8753TIP3    H147674   3.847   3.660  11.926 -0.5541  0.0511 -0.6176
 8753TIP3    H247675   3.932   3.619  11.808  0.4396 -0.9199  0.4184
 8754TIP3   OH247676   2.858   5.652  11.199 -0.2528 -0.4705  0.0960
 8754TIP3    H147677   2.814   5.732  11.171  0.8700 -0.2350 -1.0186
 8754TIP3    H247678   2.821   5.583  11.144 -0.5949 -0.5750  0.4581
 8755TIP3   OH247679   1.677   1.882  12.333 -0.2947  0.7923  0.2352
 8755TIP3    H147680   1.604   1.822  12.315  0.6072 -0.3060  0.1622
 8755TIP3    H247681   1.729   1.882  12.253 -0.8896  2.5569 -0.1564
 8756TIP3   OH247682   1.894   0.047   3.746  0.4755 -0.1242 -0.7093
 8756TIP3    H147683   1.899  -0.045   3.722  1.5861 -0.2964  0.1371
 8756TIP3    H247684   1.805   0.059   3.780  0.2108 -0.7933 -1.1709
 8757TIP3   OH247685   3.412   3.398  10.804  0.5770 -0.6964 -0.5074
 8757TIP3    H147686   3.321   3.412  10.781  0.3489 -0.3870  0.5386
 8757TIP3    H247687   3.461   3.453  10.742  0.0908 -1.2985 -1.4283
 8758TIP3   OH247688   2.415   0.304  14.631 -0.1545  0.0118 -0.2913
 8758TIP3    H147689   2.435   0.371  14.566  0.7509  1.7802  1.7404
 8758TIP3    H247690   2.328   0.328  14.664 -0.4988 -0.7259 -0.6435
 8759TIP3   OH247691   6.676   4.715   5.952  0.6857  0.0696 -0.1815
 8759TIP3    H147692   6.689   4.620   5.957  0.4461  0.1187  1.7838
 8759TIP3    H247693   6.743   4.745   5.891  3.1978 -0.9287  1.9712
 8760TIP3   OH247694   4.104   1.039   5.190 -0.0950  0.0493  0.0007
 8760TIP3    H147695   4.082   1.127   5.158 -0.9248  0.1930  0.9289
 8760TIP3    H247696   4.142   1.054   5.276 -0.1683 -0.4952  0.1252
 8761TIP3   OH247697   1.650   1.515   1.822 -0.3094  0.5222  0.5939
 8761TIP3    H147698   1.620   1.487   1.909 -0.6820  2.1329  1.0100
 8761TIP3    H247699   1.569   1.534   1.774 -0.1435 -1.3594 -0.4756
 8762TIP3   OH247700   2.017   1.340  10.378  0.0615  0.0858  0.5804
 8762TIP3    H147701   1.979   1.389  10.304  0.9509  1.0449  0.7364
 8762TIP3    H247702   2.061   1.266  10.337  0.5897  0.6395  0.1231
 8763TIP3   OH247703   5.408   1.505   3.482 -0.0325  0.2217  0.0985
 8763TIP3    H147704   5.498   1.529   3.503  0.1312 -0.6007  0.3328
 8763TIP3    H247705   5.415   1.449   3.404 -0.3309  0.0531  0.1919
 8764TIP3   OH247706   4.747   3.796  15.410  0.3501  0.3832  0.2466
 8764TIP3    H147707   4.759   3.891  15.410 -1.3487  0.6876 -4.1262
 8764TIP3    H247708   4.818   3.763  15.355  0.5789 -0.8723  1.2656
 8765TIP3   OH247709   1.237   3.230  17.022 -0.5453 -0.1595  0.1585
 8765TIP3    H147710   1.296   3.160  17.050 -0.1920  0.1711  0.2522
 8765TIP3    H247711   1.263   3.248  16.931 -0.0032  0.4880  0.4363
 8766TIP3   OH247712   4.456   3.810   1.209 -0.1120 -0.0343  0.0883
 8766TIP3    H147713   4.510   3.889   1.213  0.5699 -0.4628 -0.5003
 8766TIP3    H247714   4.504   3.746   1.262 -0.4762 -0.1576  0.2680
 8767TIP3   OH247715   2.126   2.062   2.231  0.3328  0.2748  0.4591
 8767TIP3    H147716   2.218   2.079   2.208  0.7825 -1.8680  0.5557
 8767TIP3    H247717   2.082   2.051   2.147  0.2368  0.8589  0.4273
 8768TIP3   OH247718   4.619   2.605   0.681  0.3365  0.2597 -0.4772
 8768TIP3    H147719   4.687   2.663   0.649  2.5206 -0.1391  3.1392
 8768TIP3    H247720   4.666   2.533   0.723 -2.2979 -0.7870  0.8083
 8769TIP3   OH247721   0.408   0.746   1.036  0.0496  0.2756 -0.1564
 8769TIP3    H147722   0.324   0.791   1.041 -0.0380  0.0832  0.1070
 8769TIP3    H247723   0.465   0.794   1.096 -0.0369  0.0512  0.1063
 8770TIP3   OH247724   1.155   5.738   5.454 -0.4993 -0.3289  0.2019
 8770TIP3    H147725   1.157   5.805   5.386  1.4489 -1.3658 -0.7925
 8770TIP3    H247726   1.177   5.785   5.534  0.5496  0.3025 -0.4414
 8771TIP3   OH247727   0.458   5.958   5.804  0.1942  0.3727 -0.4290
 8771TIP3    H147728   0.551   5.973   5.819 -0.3745 -0.2779  4.4656
 8771TIP3    H247729   0.448   5.863   5.809 -1.0060  0.5620  1.2191
 8772TIP3   OH247730   4.677   4.710  15.518  0.4967 -0.4253 -0.3824
 8772TIP3    H147731   4.734   4.655  15.570  1.6092  0.2979 -0.8069
 8772TIP3    H247732   4.722   4.795  15.515 -1.5997  0.7788  1.0095
 8773TIP3   OH247733   4.337   0.713   2.294  0.7542 -0.2373 -0.0522
 8773TIP3    H147734   4.411   0.653   2.289  0.8406 -0.2208  0.8931
 8773TIP3    H247735   4.348   0.758   2.378 -1.9395 -2.3702  1.5305
 8774TIP3   OH247736   4.351   1.436   1.507  0.3099 -0.3418  0.7817
 8774TIP3    H147737   4.341   1.515   1.454  0.0499  0.3747  1.8759
 8774TIP3    H247738   4.356   1.365   1.443 -1.8151  0.3017 -0.1532
 8775TIP3   OH247739   6.655   5.286   4.468  0.1194  0.1623  0.0940
 8775TIP3    H147740   6.570   5.247   4.446 -0.2812  1.6023 -0.9994
 8775TIP3    H247741   6.635   5.354   4.532  0.1179  1.9824 -1.7689
 8776TIP3   OH247742   6.651   0.498   2.733  0.1706  0.2492  0.2752
 8776TIP3    H147743   6.716   0.520   2.666  1.6244 -1.4965  1.0946
 8776TIP3    H247744   6.631   0.406   2.718 -0.3489  0.1495  1.5280
 8777TIP3   OH247745   3.503   2.210   3.411 -0.3041  0.0823  0.0520
 8777TIP3    H147746   3.415   2.176   3.427 -1.0976  1.6279 -0.9557
 8777TIP3    H247747   3.558   2.132   3.401 -1.7329 -0.8808 -0.3085
 8778TIP3   OH247748   6.716   0.570  11.656  0.1404  0.1285 -0.3867
 8778TIP3    H147749   6.750   0.652  11.621  1.9855 -0.3039  0.3262
 8778TIP3    H247750   6.780   0.504  11.628 -1.5998 -1.1685 -1.4267
 8779TIP3   OH247751   4.747   0.384   5.893  0.0360  0.0546  0.3138
 8779TIP3    H147752   4.810   0.455   5.887  1.1928 -0.9723  0.1560
 8779TIP3    H247753   4.674   0.412   5.837  0.9992  0.5993 -0.6858
 8780TIP3   OH247754   4.903   4.779   1.149  0.2331 -0.1451  0.1662
 8780TIP3    H147755   4.977   4.807   1.202 -0.4711 -0.2300  1.2060
 8780TIP3    H247756   4.942   4.726   1.079  1.0335 -1.2907  1.4683
 8781TIP3   OH247757   5.656   2.646   4.163 -0.1336  0.3984 -0.2145
 8781TIP3    H147758   5.597   2.717   4.190  0.5115 -0.0666  2.6210
 8781TIP3    H247759   5.598   2.575   4.137 -0.8264  0.6341  0.6663
 8782TIP3   OH247760   5.164   4.789   5.379 -0.2649 -0.3383  0.0525
 8782TIP3    H147761   5.146   4.696   5.360  0.3127 -0.6449  0.9842
 8782TIP3    H247762   5.236   4.811   5.321 -0.1836 -0.5655  0.0643
 8783TIP3   OH247763   5.875   3.951  11.399 -0.0671 -0.1969  0.6988
 8783TIP3    H147764   5.796   4.004  11.401 -1.1767 -1.6116 -2.4414
 8783TIP3    H247765   5.925   3.985  11.325  0.9690 -1.1049  0.9590
 8784TIP3   OH247766   0.264   5.005   4.072  0.0664  0.5785 -0.2468
 8784TIP3    H147767   0.202   4.936   4.094  0.2964  0.2752 -0.5449
 8784TIP3    H247768   0.282   5.049   4.155 -0.0092  0.2262 -0.0461
 8785TIP3   OH247769   6.716   6.665   6.032 -0.1154 -0.1336  0.2199
 8785TIP3    H147770   6.800   6.630   6.004  0.1628  0.2944  0.4998
 8785TIP3    H247771   6.736   6.710   6.114 -0.7801 -0.7838  0.7484
 8786TIP3   OH247772   2.952   4.669  15.727  0.4278 -0.4620 -0.1938
 8786TIP3    H147773   2.958   4.627  15.813  0.3468 -1.7436 -0.8029
 8786TIP3    H247774   2.858   4.681  15.713  0.4616  0.1333  0.0773
 8787TIP3   OH247775   6.755   1.318  11.870  0.3736 -0.5503 -0.2441
 8787TIP3    H147776   6.782   1.370  11.946  2.0708  0.3208 -1.3915
 8787TIP3    H247777   6.726   1.384  11.807  0.3959 -1.1514 -0.8798
 8788TIP3   OH247778   6.283   2.694  15.870 -0.1415  0.0135 -0.4215
 8788TIP3    H147779   6.275   2.755  15.942  0.6282  0.5212 -0.7657
 8788TIP3    H247780   6.253   2.610  15.906  1.8191 -0.1171  0.9774
 8789TIP3   OH247781   6.457   5.567   4.966 -0.2087  0.4968 -0.1724
 8789TIP3    H147782   6.416   5.611   5.041  1.6747  2.8645 -0.5007
 8789TIP3    H247783   6.438   5.623   4.891  0.7882 -0.1089 -0.8913
 8790TIP3   OH247784   0.824   3.930   5.522 -0.5068 -0.7614 -0.0269
 8790TIP3    H147785   0.738   3.892   5.505 -0.8426  0.4133 -1.0288
 8790TIP3    H247786   0.837   3.920   5.616 -1.1819 -2.0955 -0.0671
 8791TIP3   OH247787   6.434   2.415  12.571  0.0428  0.2570 -0.4314
 8791TIP3    H147788   6.357   2.470  12.585 -0.7131 -0.6848 -0.8035
 8791TIP3    H247789   6.476   2.410  12.656 -0.5891  0.3788 -0.1098
 8792TIP3   OH247790   2.317   5.548   4.412  0.0787  0.3988 -0.3195
 8792TIP3    H147791   2.334   5.594   4.494  3.0011 -2.3486  0.7155
 8792TIP3    H247792   2.369   5.594   4.347 -0.2872  1.0672 -0.1417
 8793TIP3   OH247793   3.102   2.010   4.503  0.4694 -0.2726  0.0437
 8793TIP3    H147794   3.123   2.081   4.443  1.0365 -0.1968  0.3273
 8793TIP3    H247795   3.015   1.980   4.476  0.1241  0.6979  0.0906
 8794TIP3   OH247796   2.668   5.981  14.707 -0.1261  0.6650  0.1751
 8794TIP3    H147797   2.686   5.972  14.614  0.0110 -0.6547  0.3291
 8794TIP3    H247798   2.603   6.051  14.712  0.5380  1.3745 -0.8289
 8795TIP3   OH247799   2.396   0.730  13.901 -0.0265 -0.0609  0.1177
 8795TIP3    H147800   2.345   0.809  13.885 -0.0989  0.2084  1.5353
 8795TIP3    H247801   2.483   0.763  13.927 -0.0981 -0.4254  0.8453
 8796TIP3   OH247802   5.771   5.169  16.213 -0.4908  1.1442 -0.2636
 8796TIP3    H147803   5.858   5.128  16.207 -1.0311 -0.3046  1.3215
 8796TIP3    H247804   5.788   5.263  16.208  1.0434  0.8373 -1.2193
 8797TIP3   OH247805   6.306   3.906   4.078 -0.3878  0.1652 -0.2034
 8797TIP3    H147806   6.251   3.882   4.153  0.3670 -0.6631  0.0904
 8797TIP3    H247807   6.291   3.999   4.066 -2.1373 -0.1159 -0.3499
 8798TIP3   OH247808   4.466   2.754  16.715 -0.3792 -0.1237  0.0900
 8798TIP3    H147809   4.481   2.763  16.809  0.5382 -0.2822 -0.0325
 8798TIP3    H247810   4.458   2.844  16.683 -0.1806 -0.0504  0.2443
 8799TIP3   OH247811   3.725   2.779  14.448 -0.3571  0.4834 -0.3039
 8799TIP3    H147812   3.766   2.744  14.368  1.2274  0.7574  0.3633
 8799TIP3    H247813   3.791   2.838  14.484 -0.8905  0.0222  1.4539
 8800TIP3   OH247814   1.753   3.380  16.639 -0.2764  0.3969  0.2473
 8800TIP3    H147815   1.680   3.428  16.679  1.5380  1.3139  2.5627
 8800TIP3    H247816   1.751   3.294  16.681 -2.1582 -0.8671 -2.2896
 8801TIP3   OH247817   0.096   3.205  13.166  0.2509 -0.2133 -0.1152
 8801TIP3    H147818   0.157   3.199  13.240 -0.4412 -0.5468  0.4376
 8801TIP3    H247819   0.129   3.278  13.114  1.2941 -0.5713  0.0234
 8802TIP3   OH247820   4.410   3.078  14.312 -0.4701  0.3800 -0.4927
 8802TIP3    H147821   4.361   3.061  14.393 -1.3730 -1.0446 -1.3219
 8802TIP3    H247822   4.409   2.995  14.266 -0.0200  1.2094 -2.0142
 8803TIP3   OH247823   1.049   5.355   5.888 -0.4650  0.1399  0.7544
 8803TIP3    H147824   1.076   5.281   5.942  1.3911 -0.2711 -0.6609
 8803TIP3    H247825   1.019   5.316   5.806  0.3737  0.9300  0.0558
 8804TIP3   OH247826   4.755   2.445   1.442 -0.2819  0.0019  0.3954
 8804TIP3    H147827   4.822   2.485   1.387 -0.5061  1.4601  1.1618
 8804TIP3    H247828   4.678   2.438   1.385 -0.4947  1.4498  0.4674
 8805TIP3   OH247829   2.353   0.818  12.560 -0.6115 -0.6396  0.0200
 8805TIP3    H147830   2.431   0.768  12.536 -0.0807  0.6118 -0.8687
 8805TIP3    H247831   2.357   0.897  12.507 -2.6398 -0.6856 -0.2403
 8806TIP3   OH247832   1.145   4.906  12.502 -0.3703 -0.2265 -0.1846
 8806TIP3    H147833   1.054   4.935  12.494  0.4419  2.4477 -0.0258
 8806TIP3    H247834   1.157   4.844  12.430 -1.8471  0.6052 -1.1555
 8807TIP3   OH247835   3.132   3.898   0.831 -0.4087  0.5960  0.0640
 8807TIP3    H147836   3.215   3.850   0.820  0.6172  2.1592  0.7775
 8807TIP3    H247837   3.093   3.860   0.910 -0.7098 -0.6067 -0.6527
 8808TIP3   OH247838   2.248   6.448  16.959  0.4723 -0.0608 -0.4234
 8808TIP3    H147839   2.330   6.489  16.931 -0.6514  1.5296 -1.4723
 8808TIP3    H247840   2.200   6.432  16.878 -1.1212  0.9379  0.2984
 8809TIP3   OH247841   0.144   1.046  11.189 -0.5149 -0.3613 -0.0397
 8809TIP3    H147842   0.145   1.055  11.094  1.4683  1.1392  0.0829
 8809TIP3    H247843   0.086   0.972  11.206  0.4695 -1.7338 -2.5135
 8810TIP3   OH247844   2.692   1.403  15.498 -0.6188 -0.0796  0.2214
 8810TIP3    H147845   2.740   1.430  15.576 -0.9524 -0.6160  0.6205
 8810TIP3    H247846   2.732   1.319  15.474  0.4722  0.7833 -1.0548
 8811TIP3   OH247847   1.091   3.768   0.864  0.0347 -0.2184 -0.6634
 8811TIP3    H147848   1.147   3.846   0.863 -0.4868  0.2482  2.2746
 8811TIP3    H247849   1.006   3.799   0.834  0.1752  0.0408 -0.7957
 8812TIP3   OH247850   2.159   2.468  13.838  0.0712  0.2775 -0.0291
 8812TIP3    H147851   2.142   2.554  13.877 -0.8290  0.0015  0.1999
 8812TIP3    H247852   2.105   2.467  13.759 -0.2131 -0.2258  0.1717
 8813TIP3   OH247853   2.714   4.171   1.607 -0.2335  0.7105 -0.1746
 8813TIP3    H147854   2.765   4.095   1.637 -1.4146 -0.2375 -0.5185
 8813TIP3    H247855   2.706   4.159   1.512 -2.2226  0.1149  0.0333
 8814TIP3   OH247856   5.018   6.748  11.259  0.4024  0.4039 -0.1846
 8814TIP3    H147857   4.967   6.716  11.333  0.0483 -1.5123 -1.2290
 8814TIP3    H247858   5.022   6.843  11.272  0.6377  0.0765  2.4512
 8815TIP3   OH247859   2.179   0.536   1.439 -0.0881  0.8035  0.2486
 8815TIP3    H147860   2.202   0.457   1.391 -1.3593 -0.2197  1.2980
 8815TIP3    H247861   2.219   0.525   1.525 -0.8756  0.9669  0.6426
 8816TIP3   OH247862   6.479   0.406  12.059  0.3242 -0.0574 -0.4433
 8816TIP3    H147863   6.564   0.441  12.032  0.5952 -0.1914  0.2508
 8816TIP3    H247864   6.449   0.466  12.127  0.0030 -0.1943 -0.4641
 8817TIP3   OH247865   3.581   2.837  12.577  0.7478 -0.1560  0.1756
 8817TIP3    H147866   3.590   2.888  12.497 -0.3413  1.7598  1.2219
 8817TIP3    H247867   3.661   2.785  12.582  1.8699  1.4032 -0.9973
 8818TIP3   OH247868   2.294   3.064  13.134  0.8585  0.2491  0.2300
 8818TIP3    H147869   2.265   3.045  13.223  0.6042 -1.0875 -0.1237
 8818TIP3    H247870   2.224   3.031  13.078  1.9925 -0.9172 -0.5456
 8819TIP3   OH247871   1.010   1.321  14.221  0.3644  0.7451 -0.5860
 8819TIP3    H147872   1.007   1.384  14.294 -0.1843 -0.6722  0.6346
 8819TIP3    H247873   0.968   1.367  14.149  1.2293  2.3129 -0.1220
 8820TIP3   OH247874   1.478   2.858   0.221  0.2962 -0.4838 -0.4031
 8820TIP3    H147875   1.487   2.763   0.218 -1.7590 -0.6553 -2.2497
 8820TIP3    H247876   1.401   2.874   0.276 -0.7921 -0.0250 -2.0110
 8821TIP3   OH247877   3.008   5.429   6.515 -0.4377  0.2282  0.0728
 8821TIP3    H147878   3.066   5.487   6.465 -0.3644  2.3817  2.5094
 8821TIP3    H247879   3.063   5.397   6.587 -1.6138  0.4366  1.0876
 8822TIP3   OH247880   2.280   2.072   1.063  0.1085  0.0307  0.1512
 8822TIP3    H147881   2.272   2.070   1.158 -0.2684  2.3090  0.1937
 8822TIP3    H247882   2.190   2.078   1.031  0.3221  0.9569 -0.2872
 8823TIP3   OH247883   1.220   4.475  14.754  0.7457  0.1879  0.0484
 8823TIP3    H147884   1.288   4.542  14.755  0.8372  0.0982  1.0239
 8823TIP3    H247885   1.147   4.516  14.707  1.2331  0.5315 -0.4078
 8824TIP3   OH247886   1.798   0.167  15.816 -0.1494 -0.8142 -0.1782
 8824TIP3    H147887   1.814   0.127  15.731  1.0646 -0.7575  0.0061
 8824TIP3    H247888   1.883   0.203  15.841 -0.7325  0.0465  0.6026
 8825TIP3   OH247889   1.259   6.327  13.569 -0.0483 -0.0167 -0.7233
 8825TIP3    H147890   1.317   6.352  13.641 -0.0902  0.3660 -0.8242
 8825TIP3    H247891   1.317   6.322  13.493 -0.0814  0.0027 -0.7491
 8826TIP3   OH247892   3.211   4.913   5.406 -0.4635 -0.1800  0.5388
 8826TIP3    H147893   3.148   4.942   5.472 -0.4421 -2.2546  1.5049
 8826TIP3    H247894   3.168   4.840   5.362  0.0482  0.3593 -0.9031
 8827TIP3   OH247895   3.961   4.723  14.515  0.2137  0.0186 -0.3931
 8827TIP3    H147896   3.909   4.734  14.595 -0.7015 -0.7147 -0.8682
 8827TIP3    H247897   3.958   4.808  14.472 -0.8330 -0.0881 -0.5481
 8828TIP3   OH247898   6.592   2.097  11.833  0.0602  0.0132  0.4309
 8828TIP3    H147899   6.590   2.140  11.919  0.3244 -0.7582  0.8315
 8828TIP3    H247900   6.500   2.084  11.811 -0.0061  0.0180  0.7037
 8829TIP3   OH247901   3.169   1.038  10.796 -0.3536 -0.1400 -0.3407
 8829TIP3    H147902   3.101   1.096  10.762 -0.7878 -1.1245 -1.1352
 8829TIP3    H247903   3.133   0.950  10.790  0.8598 -0.6482 -0.4750
 8830TIP3   OH247904   5.374   4.816  13.133 -0.3297  0.0287  0.0601
 8830TIP3    H147905   5.378   4.910  13.150 -0.8613 -0.2484  1.8307
 8830TIP3    H247906   5.435   4.802  13.060  1.6363  1.3909  1.4040
 8831TIP3   OH247907   5.738   4.126  16.179 -0.1416 -0.8951  0.9666
 8831TIP3    H147908   5.651   4.112  16.216 -0.8875  0.2327 -0.2949
 8831TIP3    H247909   5.730   4.209  16.132  1.0864 -1.7113 -0.7200
 8832TIP3   OH247910   6.177   5.462  13.479 -0.4168 -0.1301  0.1732
 8832TIP3    H147911   6.164   5.507  13.562 -0.4642  2.1790 -1.0538
 8832TIP3    H247912   6.111   5.499  13.420 -0.8296 -2.1977 -0.7468
 8833TIP3   OH247913   1.260   5.705  15.894  0.5891  0.5033 -0.2633
 8833TIP3    H147914   1.356   5.700  15.892  0.5999 -1.8452  2.4176
 8833TIP3    H247915   1.240   5.732  15.984 -1.2568  1.0867 -0.8481
 8834TIP3   OH247916   3.430   6.149   5.146  0.2879 -0.4180 -0.5132
 8834TIP3    H147917   3.457   6.059   5.130  0.6266 -0.1670 -1.3402
 8834TIP3    H247918   3.501   6.187   5.198  0.1415 -0.6209 -0.1581
 8835TIP3   OH247919   1.098   1.752   2.965 -0.0687 -0.4758 -0.4332
 8835TIP3    H147920   1.014   1.789   2.939 -0.3019 -1.4753 -1.1245
 8835TIP3    H247921   1.163   1.814   2.931 -0.4941 -0.1463 -0.6520
 8836TIP3   OH247922   3.728   5.341   5.474  0.1886 -0.0617 -0.0836
 8836TIP3    H147923   3.684   5.297   5.547  1.1339 -1.2741 -0.2176
 8836TIP3    H247924   3.778   5.271   5.432 -0.1137  0.6949 -1.7119
 8837TIP3   OH247925   5.414   5.450   6.078  0.2033  0.5031  0.4225
 8837TIP3    H147926   5.495   5.406   6.051  0.0156 -0.1220  0.8680
 8837TIP3    H247927   5.347   5.381   6.074 -0.3305  1.0399 -0.0418
 8838TIP3   OH247928   0.004   4.078   3.281 -0.0604  0.2081 -0.2271
 8838TIP3    H147929  -0.050   4.049   3.207  1.2630  1.5523 -1.7620
 8838TIP3    H247930   0.089   4.037   3.266  0.3570  0.8816  0.2760
 8839TIP3   OH247931   2.629   0.087  12.521 -0.1694 -0.2340 -0.2338
 8839TIP3    H147932   2.713   0.116  12.486 -0.4583 -0.0891 -0.8238
 8839TIP3    H247933   2.587   0.168  12.553  0.5581 -0.5195  1.4738
 8840TIP3   OH247934   0.135   4.365   6.613 -0.0269 -0.4128 -0.8296
 8840TIP3    H147935   0.164   4.410   6.693  1.6593  0.0287 -1.6611
 8840TIP3    H247936   0.059   4.415   6.583  1.1233  1.2122 -1.1036
 8841TIP3   OH247937   4.160   5.222  11.521 -0.7721  0.2261 -0.1304
 8841TIP3    H147938   4.110   5.297  11.490  2.8055  1.4047 -3.5161
 8841TIP3    H247939   4.239   5.260  11.558 -0.9325 -1.7059  2.3011
 8842TIP3   OH247940   0.070   2.184   0.153  0.2198 -0.0968 -0.4108
 8842TIP3    H147941  -0.014   2.163   0.195 -0.3141 -1.1712 -1.9601
 8842TIP3    H247942   0.047   2.248   0.086  0.4874 -1.0962 -1.4632
 8843TIP3   OH247943   2.788   5.307  17.046  0.7287 -0.0645  0.2969
 8843TIP3    H147944   2.699   5.328  17.019  0.2711 -1.1717  0.9267
 8843TIP3    H247945   2.829   5.392  17.062  0.1198  0.4823 -1.0575
 8844TIP3   OH247946   3.432   5.697   4.304  0.2032 -0.1834  0.3789
 8844TIP3    H147947   3.458   5.704   4.212  1.4448  1.0682  0.8134
 8844TIP3    H247948   3.498   5.747   4.352 -1.4118  0.6413  1.7897
 8845TIP3   OH247949   6.003   1.657  16.345 -0.0095  0.5666 -0.4692
 8845TIP3    H147950   5.986   1.627  16.256 -1.1398 -2.3910  0.6981
 8845TIP3    H247951   6.089   1.700  16.339 -0.7562  1.7940 -3.2586
 8846TIP3   OH247952   4.499   0.668  11.834 -0.1977 -0.1660 -0.0222
 8846TIP3    H147953   4.417   0.718  11.824  0.1172  0.0775 -1.4033
 8846TIP3    H247954   4.472   0.577  11.832 -0.4512 -0.0840 -0.3607
 8847TIP3   OH247955   0.288   3.043   3.508  0.0361  0.4595  0.1718
 8847TIP3    H147956   0.211   3.070   3.557  0.1724  0.7962  0.1970
 8847TIP3    H247957   0.363   3.073   3.560  0.2183 -1.3401  1.0123
 8848TIP3   OH247958   1.179   6.763  11.198  0.0541  0.0755  0.0178
 8848TIP3    H147959   1.119   6.716  11.255  1.3662 -1.8603 -0.1751
 8848TIP3    H247960   1.159   6.732  11.110  1.2182 -0.4555 -0.0648
 8849TIP3   OH247961   2.836   2.438   1.283 -0.7340  0.5391 -0.4621
 8849TIP3    H147962   2.834   2.342   1.290  0.7688  0.5275  0.1968
 8849TIP3    H247963   2.855   2.455   1.191  1.0574  0.1354 -0.1868
 8850TIP3   OH247964   1.366   2.415  14.094  0.1526  0.5824  0.2863
 8850TIP3    H147965   1.281   2.375  14.111  0.2194  0.8421  1.2453
 8850TIP3    H247966   1.410   2.355  14.034  0.0861 -0.5602  1.3788
 8851TIP3   OH247967   3.381   4.759   6.029 -0.2102  0.0908 -0.2268
 8851TIP3    H147968   3.423   4.830   6.078 -0.6923  0.6634 -0.6360
 8851TIP3    H247969   3.403   4.776   5.938 -1.4189  0.4765 -0.4663
 8852TIP3   OH247970   0.478   5.944   1.894 -0.2214 -0.5435 -0.2367
 8852TIP3    H147971   0.390   5.906   1.894  0.3394 -1.8860 -0.9325
 8852TIP3    H247972   0.510   5.928   1.983 -0.5775 -0.2924 -0.0598
 8853TIP3   OH247973   0.308   4.747  14.170 -0.2054 -0.0097  0.0749
 8853TIP3    H147974   0.315   4.823  14.227 -0.0219  0.3033 -0.3666
 8853TIP3    H247975   0.330   4.673  14.227 -1.8673  0.1110  0.8894
 8854TIP3   OH247976   3.969   5.845   4.701 -0.8692 -0.2189 -0.0352
 8854TIP3    H147977   3.947   5.888   4.784 -2.4486 -0.0490 -0.5170
 8854TIP3    H247978   3.887   5.805   4.673  0.3511 -2.7883 -0.0544
 8855TIP3   OH247979   0.613   5.064   0.127  0.7668 -0.2343 -0.2079
 8855TIP3    H147980   0.576   5.014   0.054 -1.6581 -2.7233  2.5847
 8855TIP3    H247981   0.631   4.998   0.193 -1.1007  2.4287  3.0799
 8856TIP3   OH247982   5.730   1.914  16.775  0.6750 -1.1943 -0.6908
 8856TIP3    H147983   5.702   1.922  16.684  1.7794 -2.4634 -1.1508
 8856TIP3    H247984   5.660   1.957  16.825 -1.0688 -2.4831 -1.9646
 8857TIP3   OH247985   0.182   3.992  16.172  0.2413 -0.2858  0.1608
 8857TIP3    H147986   0.165   3.927  16.240 -0.9787 -0.6700 -0.5081
 8857TIP3    H247987   0.183   3.942  16.091  1.8691  0.1517 -0.1060
 8858TIP3   OH247988   0.224   2.492  15.764 -0.1775 -0.6276 -0.4616
 8858TIP3    H147989   0.216   2.421  15.828  0.5599  0.6310  1.0425
 8858TIP3    H247990   0.283   2.456  15.697 -0.2930 -1.6613 -0.0265
 8859TIP3   OH247991   4.504   6.241  15.901 -0.9345  0.1772  0.1975
 8859TIP3    H147992   4.568   6.262  15.832 -0.1126  0.0172  0.9063
 8859TIP3    H247993   4.420   6.242  15.856 -0.6146  2.0569 -0.4076
 8860TIP3   OH247994   4.804   3.444   5.541 -0.6488  0.3251 -0.1376
 8860TIP3    H147995   4.718   3.486   5.536 -0.9234 -0.1368  0.5677
 8860TIP3    H247996   4.866   3.517   5.544 -1.0766  0.6780  0.3551
 8861TIP3   OH247997   0.011   6.182  10.949 -0.0059  0.6778  0.2106
 8861TIP3    H147998  -0.074   6.142  10.932  1.0761 -1.3082 -0.7487
 8861TIP3    H247999  -0.009   6.266  10.989 -2.4081  0.0808  0.3180
 8862TIP3   OH248000   4.923   3.939   2.498  0.1134  0.0012 -0.0552
 8862TIP3    H148001   4.997   3.879   2.485  0.5953  0.5546  0.1322
 8862TIP3    H248002   4.963   4.025   2.508 -0.5451  0.2737  0.2680
 8863TIP3   OH248003   5.609   2.075   6.476 -0.0135 -0.0106  0.2830
 8863TIP3    H148004   5.552   2.140   6.516  1.5638  1.4484  0.2248
 8863TIP3    H248005   5.590   1.993   6.522  0.3373  1.2078  2.6405
 8864TIP3   OH248006   5.072   3.950   1.458 -0.7145  0.2350 -0.1815
 8864TIP3    H148007   5.162   3.979   1.443 -0.4004 -0.4295  0.3975
 8864TIP3    H248008   5.060   3.880   1.393 -0.8236  0.3409 -0.2750
 8865TIP3   OH248009   4.925   2.654  16.649  0.4107 -0.3431  0.1960
 8865TIP3    H148010   4.919   2.560  16.638 -0.4454 -0.0461 -1.9773
 8865TIP3    H248011   4.843   2.688  16.614  0.8626  1.2437  0.6277
 8866TIP3   OH248012   6.159   5.823   5.040 -0.4050 -0.5518 -0.7445
 8866TIP3    H148013   6.066   5.835   5.058  0.1052  1.7477  0.4792
 8866TIP3    H248014   6.181   5.892   4.977  0.4682 -1.1222 -1.0823
 8867TIP3   OH248015   5.857   3.714   2.920  0.4565 -0.2418  0.4345
 8867TIP3    H148016   5.851   3.643   2.856  0.4972  0.0497  0.1058
 8867TIP3    H248017   5.767   3.734   2.944  0.3783  0.4182 -0.3850
 8868TIP3   OH248018   0.651   0.869  14.932 -0.5225  0.2848 -0.2379
 8868TIP3    H148019   0.643   0.855  14.837 -0.6730 -1.2648 -0.0059
 8868TIP3    H248020   0.703   0.794  14.963 -0.6420  0.6823  0.9323
 8869TIP3   OH248021   3.839   1.310  15.863  0.1726 -0.1693 -0.3155
 8869TIP3    H148022   3.780   1.309  15.788  0.9222  2.1619 -0.9681
 8869TIP3    H248023   3.887   1.392  15.855  1.5094 -0.7117  1.7586
 8870TIP3   OH248024   1.527   1.904  17.060  0.1306 -0.2562 -0.3645
 8870TIP3    H148025   1.565   1.957  16.990  0.9587 -2.1416 -1.3913
 8870TIP3    H248026   1.596   1.841  17.082 -1.0236 -1.2567  0.4290
 8871TIP3   OH248027   2.778   2.924  13.696 -0.1203  0.1690 -0.2448
 8871TIP3    H148028   2.789   2.982  13.771 -2.0938  0.4553 -0.1428
 8871TIP3    H248029   2.688   2.893  13.703 -0.0918 -0.3747 -2.0800
 8872TIP3   OH248030   5.740   1.846   1.869  0.3918 -0.0562  0.0192
 8872TIP3    H148031   5.744   1.874   1.777 -1.7014  1.0750  0.2366
 8872TIP3    H248032   5.646   1.840   1.887  0.7638  1.1720  2.5024
 8873TIP3   OH248033   5.945   5.710   4.604  0.1303 -0.1343 -0.4050
 8873TIP3    H148034   5.890   5.721   4.527  0.3398  0.9443 -0.4151
 8873TIP3    H248035   6.021   5.767   4.587  0.5729 -0.5344  0.2222
 8874TIP3   OH248036   6.606   4.290   6.646  0.2545  0.4112  0.3627
 8874TIP3    H148037   6.648   4.351   6.585  0.2973  1.3796  1.3512
 8874TIP3    H248038   6.521   4.270   6.607  1.3403 -1.0583 -1.3375
 8875TIP3   OH248039   1.086   2.053  12.169 -0.3046 -0.3167 -0.0617
 8875TIP3    H148040   1.012   2.113  12.162 -0.7266 -0.9779 -1.4500
 8875TIP3    H248041   1.160   2.109  12.191 -0.9477  0.5374 -0.0473
 8876TIP3   OH248042   0.297   0.637  12.867  0.1989 -0.3559 -0.2271
 8876TIP3    H148043   0.289   0.671  12.778  1.8217 -1.1230 -0.6971
 8876TIP3    H248044   0.335   0.549  12.855 -1.7718 -1.4157  1.0821
 8877TIP3   OH248045   4.671   1.816  16.263 -0.4373 -0.2677  0.0575
 8877TIP3    H148046   4.689   1.897  16.310  2.0257 -0.4575 -0.4560
 8877TIP3    H248047   4.621   1.842  16.186 -0.8620  0.5694  0.6132
 8878TIP3   OH248048   5.094   6.145  16.012 -0.7751  0.0148  0.0575
 8878TIP3    H148049   5.141   6.228  16.015  0.4335 -0.6769  0.7972
 8878TIP3    H248050   5.106   6.108  16.099 -0.1448 -1.5398 -0.6658
 8879TIP3   OH248051   3.044   0.263   1.070  0.3647  0.5466 -0.2200
 8879TIP3    H148052   2.965   0.226   1.112  0.5684  0.5786  0.1968
 8879TIP3    H248053   3.017   0.280   0.980  0.4157 -1.0863 -0.5525
 8880TIP3   OH248054   3.060   5.100   5.075 -0.1169 -0.4879  0.3732
 8880TIP3    H148055   3.068   5.195   5.079  0.4014 -0.4648 -0.9845
 8880TIP3    H248056   2.983   5.085   5.020  0.3195 -0.8540 -0.1445
 8881TIP3   OH248057   1.251   5.317  12.429  0.4506 -0.2522 -0.1771
 8881TIP3    H148058   1.303   5.242  12.459  0.6231 -1.3172 -3.0021
 8881TIP3    H248059   1.214   5.288  12.345 -2.6533  1.4117  0.5600
 8882TIP3   OH248060   5.309   1.406   5.921  0.1691 -0.1536  0.8313
 8882TIP3    H148061   5.307   1.325   5.869 -0.5943  0.0659  0.5137
 8882TIP3    H248062   5.222   1.443   5.910  0.4872  0.6654  1.0629
 8883TIP3   OH248063   6.712   3.222   4.762  0.5009  0.0427  0.0599
 8883TIP3    H148064   6.794   3.270   4.756 -0.5760  2.1235  1.3959
 8883TIP3    H248065   6.656   3.262   4.696 -0.1065  0.0027  0.5520
 8884TIP3   OH248066   4.651   1.888  13.418 -0.0037  0.6993 -0.0116
 8884TIP3    H148067   4.735   1.910  13.458 -0.9083  1.1854  1.6895
 8884TIP3    H248068   4.661   1.913  13.326  1.8746  0.2699  0.0474
 8885TIP3   OH248069   3.220   4.963  11.405 -0.4220 -0.5206 -0.0667
 8885TIP3    H148070   3.293   5.000  11.455 -1.5113  0.2739  0.9746
 8885TIP3    H248071   3.155   4.940  11.471 -1.5453 -0.2206 -1.0478
 8886TIP3   OH248072   6.786   3.368  14.393 -0.1302  0.2583  0.1715
 8886TIP3    H148073   6.881   3.373  14.403 -0.0362 -1.1464  0.0789
 8886TIP3    H248074   6.751   3.379  14.482  0.1724 -0.2248  0.3521
 8887TIP3   OH248075   0.795   4.157   3.814  0.1280  0.1873  0.2390
 8887TIP3    H148076   0.747   4.076   3.831  1.4869 -0.7352 -0.2250
 8887TIP3    H248077   0.819   4.189   3.902  0.9847 -0.7687  0.3490
 8888TIP3   OH248078   3.655   6.183   2.147 -0.2138 -0.1887  0.0748
 8888TIP3    H148079   3.680   6.090   2.148  0.7881  0.0702 -0.0789
 8888TIP3    H248080   3.733   6.228   2.178 -0.0775  0.7467 -1.5783
 8889TIP3   OH248081   4.382   0.192  16.140 -0.0053  0.5607 -0.8058
 8889TIP3    H148082   4.450   0.255  16.116  1.2715 -1.3659 -2.4802
 8889TIP3    H248083   4.369   0.140  16.060 -0.9773 -1.2965  0.5354
 8890TIP3   OH248084   5.541   2.031   5.781  0.1077 -0.2648 -0.3045
 8890TIP3    H148085   5.596   2.089   5.729  0.1426 -1.0472 -1.1629
 8890TIP3    H248086   5.594   1.951   5.791 -0.1112 -0.3165  0.4930
 8891TIP3   OH248087   3.251   4.961  14.015  0.0501 -0.0930 -0.0330
 8891TIP3    H148088   3.174   5.011  14.043  0.6959  1.3760 -0.8132
 8891TIP3    H248089   3.216   4.877  13.985 -1.1355  0.1471  0.6429
 8892TIP3   OH248090   5.703   3.194  15.341 -0.1039  0.6645  0.1465
 8892TIP3    H148091   5.705   3.098  15.349  1.2650  0.6507 -0.2068
 8892TIP3    H248092   5.766   3.214  15.272  2.8275  2.0660  3.0628
 8893TIP3   OH248093   0.616   5.333  16.741 -0.8914  0.1547 -0.0153
 8893TIP3    H148094   0.674   5.372  16.806  0.4190 -0.6870 -0.6687
 8893TIP3    H248095   0.675   5.299  16.673 -2.1285 -0.9448 -0.5592
 8894TIP3   OH248096   4.938   3.174  10.665 -0.3192  0.0680 -0.3038
 8894TIP3    H148097   4.884   3.194  10.742 -0.0291  1.0795 -0.3558
 8894TIP3    H248098   5.028   3.174  10.698 -0.1112  1.4735 -0.8142
 8895TIP3   OH248099   1.329   0.020   0.954  0.1486  0.0513  0.0112
 8895TIP3    H148100   1.281  -0.030   0.888  0.6668 -1.0335  0.4303
 8895TIP3    H248101   1.309   0.111   0.935 -0.2779 -0.2863 -1.1958
 8896TIP3   OH248102   3.756   0.105   0.979  0.2155  0.1933  0.5572
 8896TIP3    H148103   3.832   0.114   0.921  0.8075  1.4310  1.5037
 8896TIP3    H248104   3.793   0.067   1.059 -0.3179  0.0129  0.7170
 8897TIP3   OH248105   5.824   5.667  16.254  0.2322  0.1424  0.2620
 8897TIP3    H148106   5.902   5.624  16.220 -0.1326 -0.5725  0.3167
 8897TIP3    H248107   5.857   5.746  16.298  0.8871  0.0202 -0.0096
 8898TIP3   OH248108   3.517   5.744  13.263  0.2735  0.0169 -0.4478
 8898TIP3    H148109   3.558   5.831  13.258  2.4828 -0.9923 -0.2776
 8898TIP3    H248110   3.533   5.704  13.178  0.9188 -0.9417  0.1129
 8899TIP3   OH248111   0.235   6.592   3.911  0.1265  0.2109  0.1076
 8899TIP3    H148112   0.183   6.519   3.876  0.7812 -1.4710  2.5407
 8899TIP3    H248113   0.224   6.662   3.846 -1.5956 -1.5859 -1.6176
 8900TIP3   OH248114   3.377   1.303   4.317  0.1475  0.3878  0.1630
 8900TIP3    H148115   3.446   1.236   4.325 -0.8122 -0.7623 -1.0207
 8900TIP3    H248116   3.317   1.284   4.389  0.6844  0.9404  0.7588
 8901TIP3   OH248117   6.415   3.898  14.720  0.3856 -0.1968  0.2026
 8901TIP3    H148118   6.327   3.894  14.758 -0.3574 -3.4017 -1.6944
 8901TIP3    H248119   6.461   3.823  14.758  1.6002  0.1452 -0.5432
 8902TIP3   OH248120   4.203   3.726   3.298  0.4253  0.3499  0.0346
 8902TIP3    H148121   4.117   3.766   3.287  0.0192 -0.6439 -0.4663
 8902TIP3    H248122   4.259   3.798   3.328  0.0298  1.6235 -2.1559
 8903TIP3   OH248123   4.240   2.948  15.781 -0.3958  0.8955 -0.2616
 8903TIP3    H148124   4.254   2.983  15.869 -0.4845 -0.5108  0.3213
 8903TIP3    H248125   4.325   2.953  15.738 -0.4717  2.0852 -0.2895
 8904TIP3   OH248126   2.281   4.529  14.863 -0.3717 -0.0783 -0.2156
 8904TIP3    H148127   2.349   4.473  14.900 -0.9896  0.3375  1.6279
 8904TIP3    H248128   2.219   4.469  14.821 -0.3799 -0.6900  0.6612
 8905TIP3   OH248129   1.277   6.546   1.943 -0.0136 -0.1699 -0.1461
 8905TIP3    H148130   1.225   6.596   1.880  0.2309 -0.1577 -0.3327
 8905TIP3    H248131   1.334   6.491   1.890  0.6214  0.2813  0.0632
 8906TIP3   OH248132   1.396   2.994   3.778 -0.5011  0.5204 -0.0261
 8906TIP3    H148133   1.490   2.974   3.776  0.0128  2.7638  0.4639
 8906TIP3    H248134   1.363   2.946   3.854  0.4860  0.6529  0.4926
 8907TIP3   OH248135   4.744   6.232   2.111 -0.0291  0.1698 -0.1960
 8907TIP3    H148136   4.740   6.304   2.175  0.6219 -1.5147  1.8196
 8907TIP3    H248137   4.835   6.231   2.082  0.7587 -1.8248  2.2063
 8908TIP3   OH248138   3.123   2.205  15.017 -0.4832  0.0730  0.0435
 8908TIP3    H148139   3.034   2.196  15.052 -0.0179 -2.5874  0.6311
 8908TIP3    H248140   3.180   2.177  15.088  0.7277 -0.6068 -1.1708
 8909TIP3   OH248141   5.189   3.202   2.633  0.2329 -0.4126 -0.5502
 8909TIP3    H148142   5.204   3.170   2.722 -2.9163  0.0954  0.2323
 8909TIP3    H248143   5.182   3.123   2.580  1.6735 -0.7325 -0.2822
 8910TIP3   OH248144   1.700   6.163   1.627  0.1533 -0.4064  0.1544
 8910TIP3    H148145   1.727   6.254   1.637 -1.5070  0.0412  0.6870
 8910TIP3    H248146   1.690   6.131   1.717  0.2274 -0.9642 -0.0334
 8911TIP3   OH248147   5.652   6.451   6.013  0.4236  0.2469 -0.5063
 8911TIP3    H148148   5.670   6.362   5.981 -0.4865 -0.7726  1.6493
 8911TIP3    H248149   5.730   6.474   6.064 -0.1728 -0.1419  0.5947
 8912TIP3   OH248150   6.438   3.505  11.056  0.3951 -0.2721  0.5701
 8912TIP3    H148151   6.402   3.494  10.968  2.3430 -0.7510 -0.2127
 8912TIP3    H248152   6.433   3.599  11.073  0.6611 -0.0886 -0.3509
 8913TIP3   OH248153   6.661   0.225   4.749 -0.2576  0.2491  0.0689
 8913TIP3    H148154   6.656   0.192   4.659 -1.5942 -0.8348  0.5305
 8913TIP3    H248155   6.714   0.160   4.795  1.7812  1.6200 -0.2761
 8914TIP3   OH248156   6.015   4.846  17.047  0.4454 -0.0139  0.5173
 8914TIP3    H148157   6.106   4.827  17.025  0.8182  2.6901 -0.4672
 8914TIP3    H248158   6.020   4.895  17.129 -0.1395 -0.1513  0.6335
 8915TIP3   OH248159   0.996   2.470  13.159 -0.1632  0.1742 -0.2643
 8915TIP3    H148160   1.064   2.478  13.093  2.2538 -0.4739  2.0307
 8915TIP3    H248161   0.953   2.387  13.139 -0.4669  0.7284 -1.9182
 8916TIP3   OH248162   6.363   5.282   3.128  0.2316 -0.3041 -0.4920
 8916TIP3    H148163   6.395   5.371   3.141 -2.4286  0.6533 -0.2824
 8916TIP3    H248164   6.290   5.274   3.189 -0.6445 -2.0564 -1.7443
 8917TIP3   OH248165   1.978   3.138   4.400 -0.3443 -0.4684  1.1137
 8917TIP3    H148166   1.915   3.208   4.418 -0.8300 -0.5148 -0.3578
 8917TIP3    H248167   2.054   3.182   4.363 -1.0748 -0.7965 -0.8524
 8918TIP3   OH248168   5.115   3.037  15.232 -0.1394 -0.4295  0.0781
 8918TIP3    H148169   5.165   3.081  15.301  2.9545  0.1635 -2.4109
 8918TIP3    H248170   5.079   3.109  15.180 -0.0752 -0.8299 -0.5245
 8919TIP3   OH248171   5.295   1.171   6.310  0.3129 -0.3798  0.9846
 8919TIP3    H148172   5.367   1.231   6.290  1.8558 -2.8379 -0.9908
 8919TIP3    H248173   5.336   1.097   6.355 -0.7566 -2.3746 -1.2268
 8920TIP3   OH248174   4.533   0.823   0.023 -0.3118 -0.6157  0.0132
 8920TIP3    H148175   4.483   0.886   0.075 -0.6157 -1.3041  0.5731
 8920TIP3    H248176   4.570   0.763   0.088  1.4963  0.0583 -0.3680
 8921TIP3   OH248177   3.038   6.459  15.921  0.7503 -0.2257 -0.0964
 8921TIP3    H148178   2.950   6.444  15.955  1.5337 -2.0267  1.2128
 8921TIP3    H248179   3.040   6.412  15.838 -0.4413  2.2944 -1.6051
 8922TIP3   OH248180   2.858   4.292  15.070  0.0045 -0.3678  0.0877
 8922TIP3    H148181   2.846   4.262  15.160 -2.1767  0.2372  0.0358
 8922TIP3    H248182   2.824   4.381  15.069  1.3405  0.1550 -1.0176
 8923TIP3   OH248183   6.110   0.862  12.680 -0.1162 -0.6802 -0.4653
 8923TIP3    H148184   6.108   0.865  12.585 -3.1926 -0.0236 -0.4435
 8923TIP3    H248185   6.072   0.946  12.708 -0.3673 -1.3513  1.3032
 8924TIP3   OH248186   0.407   2.917  16.556 -0.4652  0.7130  0.0361
 8924TIP3    H148187   0.451   2.843  16.515 -0.4976  0.6296  0.1542
 8924TIP3    H248188   0.386   2.975  16.483 -1.3534  0.1354 -0.1687
 8925TIP3   OH248189   2.823   2.783   0.022 -1.1571  0.1606  0.0740
 8925TIP3    H148190   2.895   2.846   0.030 -0.3819 -0.3675 -2.2438
 8925TIP3    H248191   2.814   2.745   0.109  2.8044 -1.2731 -0.0467
 8926TIP3   OH248192   0.691   1.845   6.553 -0.1847  0.8389 -0.2286
 8926TIP3    H148193   0.779   1.811   6.570  0.8783  2.3809 -2.4035
 8926TIP3    H248194   0.649   1.776   6.501  0.0839  0.5585 -0.0794
 8927TIP3   OH248195   0.559   6.778   0.426 -0.3351 -0.3847 -0.5859
 8927TIP3    H148196   0.574   6.779   0.520  0.0137 -2.0441 -0.6138
 8927TIP3    H248197   0.626   6.838   0.391 -0.7760  0.6096  0.2417
 8928TIP3   OH248198   2.400   4.475  13.956  0.4669  0.4016 -0.5413
 8928TIP3    H148199   2.372   4.407  14.018  0.9340 -0.9103 -1.7485
 8928TIP3    H248200   2.318   4.512  13.923  0.2103  0.5778  0.2744
 8929TIP3   OH248201   4.608   5.747  13.479 -0.6747  0.2699  0.9112
 8929TIP3    H148202   4.613   5.726  13.572 -0.5646  0.7196  1.0075
 8929TIP3    H248203   4.699   5.749  13.449 -0.6826  0.6254  0.9075
 8930TIP3   OH248204   3.765   0.053  15.322 -0.3040  0.3886 -0.4292
 8930TIP3    H148205   3.845   0.077  15.368 -0.4650  0.6974 -0.3090
 8930TIP3    H248206   3.694   0.085  15.378 -0.5298 -0.8313 -0.0131
 8931TIP3   OH248207   5.127   6.772  14.407 -0.4084  0.6727 -0.3645
 8931TIP3    H148208   5.147   6.705  14.473 -3.7428 -0.5209 -0.4924
 8931TIP3    H248209   5.170   6.740  14.328  0.8286  0.4116  0.3937
 8932TIP3   OH248210   2.199   3.957   0.118 -0.0731  0.2746 -0.0795
 8932TIP3    H148211   2.184   4.040   0.163  1.3455 -0.9984  2.8616
 8932TIP3    H248212   2.118   3.909   0.129  0.0410  0.2245  0.5513
 8933TIP3   OH248213   2.708   0.493   3.342  0.2411 -0.4586 -0.4612
 8933TIP3    H148214   2.660   0.429   3.290  0.8018 -0.4598 -0.9817
 8933TIP3    H248215   2.666   0.577   3.323  0.3005 -0.4927 -0.7377
 8934TIP3   OH248216   2.318   3.460  15.878  0.0427  0.0342 -0.2969
 8934TIP3    H148217   2.357   3.547  15.873  0.5774 -0.1609  0.3287
 8934TIP3    H248218   2.232   3.474  15.917 -0.5885  0.4869 -1.8260
 8935TIP3   OH248219   5.067   5.049  16.220  0.2038 -0.3819  0.1738
 8935TIP3    H148220   5.127   5.071  16.149 -0.3738  0.4546 -0.0653
 8935TIP3    H248221   5.109   4.977  16.266  0.4339 -1.1594 -1.2215
 8936TIP3   OH248222   2.888   5.098   3.823  0.3288  0.0663  0.2778
 8936TIP3    H148223   2.959   5.161   3.818  0.9913 -0.3851  3.3250
 8936TIP3    H248224   2.808   5.149   3.809  1.0507  1.0402 -0.2979
 8937TIP3   OH248225   4.334   1.493   4.679 -0.3145  0.1737  0.8022
 8937TIP3    H148226   4.314   1.563   4.618  2.2235  1.5252  1.4333
 8937TIP3    H248227   4.345   1.415   4.624 -0.9550  0.7345 -0.1292
 8938TIP3   OH248228   0.995   4.985   4.236  0.6281  0.0331  0.0184
 8938TIP3    H148229   0.988   5.067   4.188 -0.9917  0.0482  0.2551
 8938TIP3    H248230   1.086   4.982   4.266  0.5625  1.9475  0.4040
 8939TIP3   OH248231   0.103   4.682  11.966  0.2938 -0.1757 -0.3041
 8939TIP3    H148232   0.061   4.645  11.888  2.1172 -1.9718 -0.4891
 8939TIP3    H248233   0.183   4.630  11.976  1.3151  1.6659  1.3392
 8940TIP3   OH248234   4.077   6.777  12.867 -0.2932  0.2808 -1.0774
 8940TIP3    H148235   4.157   6.758  12.916  0.0353 -2.2175 -2.4771
 8940TIP3    H248236   4.069   6.872  12.870  0.6891  0.3124  2.2478
 8941TIP3   OH248237   3.472   3.478  11.868  0.2067 -0.0447 -0.4340
 8941TIP3    H148238   3.413   3.414  11.828 -0.8897  0.9600 -0.4591
 8941TIP3    H248239   3.493   3.538  11.796  0.6472  0.0332 -0.2393
 8942TIP3   OH248240   3.336   2.870   3.486 -0.0868 -0.0038  0.6961
 8942TIP3    H148241   3.271   2.938   3.503 -0.3791 -0.2721  0.6493
 8942TIP3    H248242   3.373   2.850   3.571 -0.3807 -0.1669  0.7870
 8943TIP3   OH248243   4.564   1.049  14.928 -0.4430  0.1172  0.2356
 8943TIP3    H148244   4.622   1.104  14.875 -2.3580 -0.5832 -2.6887
 8943TIP3    H248245   4.562   0.965  14.882 -0.8029 -1.1224  2.4098
 8944TIP3   OH248246   4.664   6.472  11.399  0.0653  0.1135 -0.4287
 8944TIP3    H148247   4.724   6.402  11.423 -1.2304 -1.0717 -0.5555
 8944TIP3    H248248   4.658   6.467  11.303  1.8496  1.9971 -0.6649
 8945TIP3   OH248249   6.773   2.908   5.312 -0.0833 -0.0598 -0.2248
 8945TIP3    H148250   6.857   2.918   5.357  1.2669 -1.4379 -2.3298
 8945TIP3    H248251   6.729   2.837   5.360 -0.2642  0.9577  1.1538
 8946TIP3   OH248252   1.908   2.750   6.034 -0.7393  0.5324  0.3133
 8946TIP3    H148253   1.930   2.717   6.121 -0.4772  0.8679  0.3776
 8946TIP3    H248254   1.904   2.672   5.979  0.7762  0.4551  0.2681
 8947TIP3   OH248255   3.641   0.407  14.617  0.1885  0.6871 -0.2379
 8947TIP3    H148256   3.621   0.418  14.710  0.4489  2.3401 -0.3697
 8947TIP3    H248257   3.728   0.368  14.615  0.9880  2.4218  0.1941
 8948TIP3   OH248258   0.737   5.371   2.982  0.5411 -0.1047 -0.4209
 8948TIP3    H148259   0.656   5.362   2.932  1.8440 -2.2239 -2.2678
 8948TIP3    H248260   0.731   5.305   3.050  0.4746  0.1194 -0.2094
 8949TIP3   OH248261   3.500   3.829  10.606  0.5216  0.3792 -0.2571
 8949TIP3    H148262   3.465   3.882  10.677  0.4779  0.6021 -0.4437
 8949TIP3    H248263   3.517   3.892  10.536  0.4599  0.1441 -0.4818
 8950TIP3   OH248264   6.433   1.734   5.317 -0.3003  0.0555 -0.4196
 8950TIP3    H148265   6.404   1.747   5.407  1.4850  1.5060 -0.0247
 8950TIP3    H248266   6.354   1.707   5.270 -1.4667  0.3003  1.3480
 8951TIP3   OH248267   2.024   0.243  16.716 -0.6724 -0.2743 -0.4254
 8951TIP3    H148268   2.001   0.177  16.650 -1.2772 -1.0885  0.5974
 8951TIP3    H248269   1.985   0.324  16.683  0.7811 -0.2160 -2.1234
 8952TIP3   OH248270   6.064   2.773   1.347 -0.1967  0.0472 -0.5195
 8952TIP3    H148271   6.071   2.862   1.313 -1.7127 -0.7548 -3.0655
 8952TIP3    H248272   5.972   2.764   1.370 -0.1061 -0.9871 -0.5663
 8953TIP3   OH248273   4.524   6.367  12.619 -0.4819 -0.1373 -0.2506
 8953TIP3    H148274   4.529   6.278  12.585  1.3237 -0.2639  0.2671
 8953TIP3    H248275   4.438   6.372  12.661  0.3960 -2.4716  1.9556
 8954TIP3   OH248276   3.792   1.254  10.612  0.3948  0.2231  0.8040
 8954TIP3    H148277   3.751   1.251  10.699  0.8147  0.8220  1.0257
 8954TIP3    H248278   3.848   1.176  10.609  0.2082  0.0819  0.9841
 8955TIP3   OH248279   4.700   2.146  16.006  0.0144 -0.3892 -0.2716
 8955TIP3    H148280   4.753   2.071  16.032  1.1777  0.7294  0.7008
 8955TIP3    H248281   4.719   2.158  15.913  1.5721  0.0505  0.0813
 8956TIP3   OH248282   1.940   5.845  14.576  0.5350 -0.2482 -0.1534
 8956TIP3    H148283   1.876   5.786  14.536 -0.2120  1.1094 -1.0093
 8956TIP3    H248284   2.005   5.861  14.507  0.4827  0.2872 -0.0830
 8957TIP3   OH248285   0.437   2.153  13.721 -0.5871 -0.6883 -0.1324
 8957TIP3    H148286   0.384   2.129  13.796 -1.0260  0.4315 -0.0930
 8957TIP3    H248287   0.415   2.088  13.654 -0.5008 -1.4300  0.5533
 8958TIP3   OH248288   5.162   1.924   3.278 -0.1708  0.2900  0.5331
 8958TIP3    H148289   5.177   1.977   3.356 -2.3692  0.0361  1.1783
 8958TIP3    H248290   5.175   1.833   3.308 -0.1150  0.2431  0.3679
 8959TIP3   OH248291   2.528   1.816   2.262  0.2028 -0.7979 -0.1113
 8959TIP3    H148292   2.451   1.838   2.210  1.2278 -0.1036 -1.3780
 8959TIP3    H248293   2.542   1.892   2.318  1.8605  0.4851 -2.2069
 8960TIP3   OH248294   2.262   1.156  14.138 -0.2460  0.3943 -0.6757
 8960TIP3    H148295   2.237   1.070  14.172  0.2921  0.5022  0.0178
 8960TIP3    H248296   2.276   1.210  14.216 -2.5169  1.6929 -1.1400
 8961TIP3   OH248297   4.807   1.033  16.003 -0.2179  0.6538 -0.2208
 8961TIP3    H148298   4.835   1.070  16.087 -0.9855  1.3430 -0.2592
 8961TIP3    H248299   4.717   1.004  16.018 -0.0027 -0.1722 -0.5118
 8962TIP3   OH248300   2.190   0.542  15.617  0.4297 -0.0201  0.0290
 8962TIP3    H148301   2.271   0.497  15.594  0.0843 -0.3434 -0.5957
 8962TIP3    H248302   2.191   0.622  15.564 -0.0725 -0.4598 -0.6616
 8963TIP3   OH248303   0.973   2.447   3.675 -0.6130  0.3471 -0.1136
 8963TIP3    H148304   0.970   2.464   3.769 -0.3492  0.7678 -0.1845
 8963TIP3    H248305   0.999   2.355   3.668 -0.6701  0.3058  0.2235
 8964TIP3   OH248306   2.686   3.076   0.088 -0.2489 -0.0246  0.2514
 8964TIP3    H148307   2.740   3.105   0.015 -1.2972  2.0400  0.2513
 8964TIP3    H248308   2.747   3.062   0.160  0.6871 -1.2682 -0.7556
 8965TIP3   OH248309   3.087   0.490   5.416 -0.0055 -0.6832  0.1898
 8965TIP3    H148310   3.127   0.427   5.355  0.5864  1.1970 -1.4386
 8965TIP3    H248311   3.159   0.515   5.474  0.5505  0.7372 -1.0845
 8966TIP3   OH248312   3.345   0.997  13.776 -0.5722 -0.3598 -0.5828
 8966TIP3    H148313   3.276   0.934  13.754 -0.0338 -1.3803  0.5888
 8966TIP3    H248314   3.388   0.960  13.854 -0.2809  1.4909  0.1587
 8967TIP3   OH248315   6.255   0.085  16.370  0.1981  0.3662  0.4541
 8967TIP3    H148316   6.199   0.108  16.296  0.5139 -1.0823 -0.2534
 8967TIP3    H248317   6.331   0.143  16.362 -0.6087  1.4819  0.7111
 8968TIP3   OH248318   2.070   4.958   0.085 -0.3230 -0.0113  0.3473
 8968TIP3    H148319   2.118   5.031   0.125  1.1089 -0.7481 -0.0119
 8968TIP3    H248320   2.096   4.881   0.136 -1.9563 -0.2633  0.8261
 8969TIP3   OH248321   3.694   5.001  15.063  0.8899  0.7545 -0.0868
 8969TIP3    H148322   3.617   5.002  15.121  1.2977  1.7983  0.4614
 8969TIP3    H248323   3.755   5.063  15.104  1.4038  1.0924 -1.3458
 8970TIP3   OH248324   5.450   0.834   5.405 -0.4318  0.2212 -0.7824
 8970TIP3    H148325   5.376   0.849   5.463  1.3478  2.3710  1.0039
 8970TIP3    H248326   5.524   0.876   5.448  1.7165 -1.2523 -2.8663
 8971TIP3   OH248327   2.532   6.721   3.066 -0.0983  0.1318  0.4354
 8971TIP3    H148328   2.521   6.766   2.982  0.6413 -0.1604  0.1785
 8971TIP3    H248329   2.617   6.751   3.098  0.1274 -0.6318  0.5508
 8972TIP3   OH248330   1.499   1.209  15.887 -0.2366 -0.1822  0.9067
 8972TIP3    H148331   1.484   1.151  15.813 -1.9892 -1.7491  2.4603
 8972TIP3    H248332   1.543   1.155  15.952 -0.2015  0.7302  1.6599
 8973TIP3   OH248333   4.725   0.499  15.703  0.0937  0.3550 -0.0593
 8973TIP3    H148334   4.758   0.585  15.675  1.6489 -0.8041 -1.9897
 8973TIP3    H248335   4.804   0.450  15.726 -0.7232 -0.7741  0.3875
 8974TIP3   OH248336   5.537   1.491  13.162  0.2403  0.3752 -0.0646
 8974TIP3    H148337   5.504   1.535  13.083  1.0325 -0.6105 -0.9564
 8974TIP3    H248338   5.544   1.399  13.137  1.7654  0.2575  0.7310
 8975TIP3   OH248339   0.822   0.064   0.725  0.2276  0.1107  0.4893
 8975TIP3    H148340   0.852   0.068   0.816  1.4837 -1.5123  0.1793
 8975TIP3    H248341   0.887   0.009   0.681 -0.0979  1.2609 -1.5030
 8976TIP3   OH248342   5.418   2.772  11.585 -0.0185 -0.1511  0.3626
 8976TIP3    H148343   5.369   2.694  11.561  1.4010 -0.9683  0.0530
 8976TIP3    H248344   5.360   2.820  11.645 -1.9647 -0.0970 -1.5039
 8977TIP3   OH248345   1.579   1.099   1.755 -0.0766 -0.0104 -0.2591
 8977TIP3    H148346   1.592   1.121   1.662 -0.6684  2.0920  0.1246
 8977TIP3    H248347   1.498   1.049   1.757  0.5522 -1.0795 -1.0060
 8978TIP3   OH248348   0.502   1.793  14.800  0.3616  0.1405  0.4527
 8978TIP3    H148349   0.583   1.743  14.810  0.3827  0.2295  0.7308
 8978TIP3    H248350   0.504   1.857  14.871  0.1465  0.2788  0.3361
 8979TIP3   OH248351   5.616   2.033   5.186  0.4310  0.6046  0.3835
 8979TIP3    H148352   5.629   1.960   5.125  1.4441  1.1111 -0.0199
 8979TIP3    H248353   5.553   2.000   5.250 -0.5901  0.0480 -0.8983
 8980TIP3   OH248354   3.568   1.571  12.167  0.1505  0.3181  0.1501
 8980TIP3    H148355   3.562   1.655  12.213  0.7689  0.4783 -0.0572
 8980TIP3    H248356   3.630   1.587  12.096 -0.5968 -0.0048 -0.5829
 8981TIP3   OH248357   3.030   4.114   2.377  0.4023  0.0282 -0.8433
 8981TIP3    H148358   3.043   4.020   2.391  0.2395  0.0436 -0.5850
 8981TIP3    H248359   2.936   4.122   2.360  0.2467  0.2640  0.1129
 8982TIP3   OH248360   5.096   3.494  15.836 -0.1448 -0.1879 -0.0614
 8982TIP3    H148361   5.168   3.437  15.862 -0.4658 -0.9725 -0.8920
 8982TIP3    H248362   5.062   3.456  15.756 -1.6026  0.0723  0.4131
 8983TIP3   OH248363   6.096   0.822   1.850  0.2084 -0.2877  0.6686
 8983TIP3    H148364   6.155   0.880   1.800  0.4948 -0.8565  0.3458
 8983TIP3    H248365   6.154   0.772   1.907  0.1017 -1.3026 -0.1081
 8984TIP3   OH248366   1.766   6.536  13.009 -0.7761  0.3409  0.7137
 8984TIP3    H148367   1.697   6.586  13.053 -0.2592  1.3380  0.4087
 8984TIP3    H248368   1.847   6.567  13.050 -0.3647  0.5749 -0.2687
 8985TIP3   OH248369   3.710   5.127   2.936 -0.5617  0.2184 -0.2767
 8985TIP3    H148370   3.665   5.140   3.020  1.0185 -0.8956  0.7846
 8985TIP3    H248371   3.749   5.040   2.943  0.7297  0.6601 -1.6286
 8986TIP3   OH248372   1.961   3.077  11.918  0.2745 -0.1354 -0.2787
 8986TIP3    H148373   2.042   3.027  11.929  1.3784  1.3750 -1.3364
 8986TIP3    H248374   1.891   3.015  11.940  1.5589 -2.3221 -2.1237
 8987TIP3   OH248375   4.565   1.505   2.534  0.7408 -0.4227  0.1863
 8987TIP3    H148376   4.533   1.594   2.547  0.9095 -0.1827 -0.9843
 8987TIP3    H248377   4.590   1.475   2.622 -1.1627 -0.0399  0.8635
 8988TIP3   OH248378   4.104   1.185  15.365  0.8142 -0.2123 -0.5204
 8988TIP3    H148379   4.036   1.142  15.312 -0.8565 -0.0442  1.4032
 8988TIP3    H248380   4.181   1.129  15.355 -0.1679 -1.4689 -1.2277
 8989TIP3   OH248381   2.870   4.828   4.706 -0.1828  0.5801  0.5456
 8989TIP3    H148382   2.861   4.843   4.612  1.5239 -0.5944  0.1737
 8989TIP3    H248383   2.965   4.825   4.721 -0.4214 -1.3937  1.9182
 8990TIP3   OH248384   4.993   5.510   2.827 -0.0400 -0.5943 -0.2382
 8990TIP3    H148385   4.962   5.571   2.760  1.7943 -1.1504 -1.6295
 8990TIP3    H248386   4.915   5.459   2.850 -1.3374  1.4695  0.1291
 8991TIP3   OH248387   1.396   4.199   2.470  0.3843 -0.8357 -0.9196
 8991TIP3    H148388   1.364   4.245   2.392 -2.4766  3.1427  2.3581
 8991TIP3    H248389   1.332   4.129   2.484 -1.4864  1.0140  0.0876
 8992TIP3   OH248390   2.977   1.353  14.167  0.4891  0.0356 -0.1390
 8992TIP3    H148391   2.989   1.393  14.081 -0.6656  0.1035 -0.2861
 8992TIP3    H248392   2.913   1.410  14.210 -0.5175 -1.1673 -0.0211
 8993TIP3   OH248393   0.095   0.114   2.743  0.2970  0.4498  0.1161
 8993TIP3    H148394   0.034   0.062   2.796  0.4461 -0.4401 -0.5639
 8993TIP3    H248395   0.155   0.152   2.806  0.2089 -0.2402  0.6298
 8994TIP3   OH248396   1.051   6.060  14.377 -0.5584  0.4151  0.0777
 8994TIP3    H148397   1.036   6.124  14.446 -3.4083  0.3028 -0.3897
 8994TIP3    H248398   1.140   6.079  14.346  0.3086  1.2267  2.9346
 8995TIP3   OH248399   1.106   0.743  14.937 -0.4633 -0.1454 -0.0282
 8995TIP3    H148400   1.119   0.720  15.029  0.1979  0.3146 -0.0012
 8995TIP3    H248401   1.194   0.742  14.900 -0.6192  0.5883 -0.4334
 8996TIP3   OH248402   1.408   3.251  15.116 -0.3267 -0.6108 -0.0837
 8996TIP3    H148403   1.332   3.236  15.060  0.0670  1.2013 -1.1489
 8996TIP3    H248404   1.389   3.334  15.160  1.1102 -0.0311 -0.5208
 8997TIP3   OH248405   6.482   3.944   1.069 -0.4248 -0.4146  0.9445
 8997TIP3    H148406   6.504   3.925   0.977  1.3261 -2.0570  1.6647
 8997TIP3    H248407   6.539   3.886   1.119 -1.4985  0.3469  3.0824
 8998TIP3   OH248408   2.702   5.072   5.806  0.6499  0.6022 -0.2016
 8998TIP3    H148409   2.637   5.131   5.845  1.8752  1.1363  1.0887
 8998TIP3    H248410   2.659   4.986   5.805 -0.3962  1.1133 -0.1991
 8999TIP3   OH248411   5.947   1.535  14.633  0.0719  0.7549  0.2256
 8999TIP3    H148412   5.864   1.501  14.599 -0.4374  1.1120  1.1038
 8999TIP3    H248413   5.964   1.484  14.712  1.5748 -0.5074 -0.8786
 9000TIP3   OH248414   6.433   6.121  12.268 -0.6305 -0.3696  0.4384
 9000TIP3    H148415   6.394   6.045  12.226  2.4923 -3.1622  2.3325
 9000TIP3    H248416   6.451   6.182  12.197  0.4174 -3.0814 -1.7001
 9001TIP3   OH248417   0.223   2.394  12.385  0.3297 -0.4219  1.0503
 9001TIP3    H148418   0.303   2.379  12.333  0.9400 -0.7998  2.0723
 9001TIP3    H248419   0.255   2.412  12.473 -0.6745  0.8829  1.1566
 9002TIP3   OH248420   0.832   1.728  12.278  0.3897  0.3673  0.9159
 9002TIP3    H148421   0.810   1.735  12.185  1.1852 -0.2193  0.6788
 9002TIP3    H248422   0.747   1.723  12.322  0.0117  0.6554  0.2238
 9003TIP3   OH248423   3.709   5.127   1.847  0.2999  0.0098  0.1108
 9003TIP3    H148424   3.668   5.170   1.922  0.8982 -0.1762  0.5511
 9003TIP3    H248425   3.637   5.083   1.802  0.0679 -0.6231  1.0900
 9004TIP3   OH248426   1.579   4.458  15.369  0.1543 -0.0871 -0.5217
 9004TIP3    H148427   1.608   4.458  15.460 -0.7920  1.5562 -0.1970
 9004TIP3    H248428   1.554   4.549  15.352 -1.9475 -0.8449 -1.6830
 9005TIP3   OH248429   1.958   4.084  16.097  0.7787  0.5192  0.2437
 9005TIP3    H148430   1.956   4.112  16.006 -0.0934 -1.8491 -0.5012
 9005TIP3    H248431   2.005   4.154  16.143  0.5646  2.0997 -1.8718
 9006TIP3   OH248432   4.882   3.124   0.048 -0.4178  0.4501 -0.2348
 9006TIP3    H148433   4.792   3.096   0.030 -0.5273 -0.6534  1.8887
 9006TIP3    H248434   4.872   3.210   0.089 -0.4411  0.6507 -0.6496
 9007TIP3   OH248435   3.443   5.283   6.268 -0.0082  0.4147  0.9649
 9007TIP3    H148436   3.444   5.320   6.180 -1.7524 -0.6831  0.4688
 9007TIP3    H248437   3.364   5.228   6.271  1.3861 -1.5959  2.3660
 9008TIP3   OH248438   5.062   5.330  14.618 -0.3363 -0.3526  0.2305
 9008TIP3    H148439   5.004   5.353  14.690 -0.7562 -1.8929  0.4069
 9008TIP3    H248440   5.143   5.377  14.636 -0.4089 -0.7916  1.7435
 9009TIP3   OH248441   1.370   5.234  17.112 -0.1535  0.0840 -0.6747
 9009TIP3    H148442   1.355   5.215  17.204 -2.2857  0.2072 -0.9870
 9009TIP3    H248443   1.399   5.326  17.110  2.6444 -0.7359  0.1019
 9010TIP3   OH248444   6.692   5.931  16.157 -0.0318  0.6038  0.2261
 9010TIP3    H148445   6.697   5.927  16.253 -0.6019 -0.9556  0.2094
 9010TIP3    H248446   6.599   5.938  16.138  0.1169  1.4613 -0.2126
 9011TIP3   OH248447   2.185   2.936   5.301 -0.2525  0.6782  0.1283
 9011TIP3    H148448   2.106   2.919   5.250 -2.2597  1.3360  2.9456
 9011TIP3    H248449   2.195   3.031   5.301  2.8443  0.5099 -3.4656
 9012TIP3   OH248450   3.070   1.421   2.745  0.4524 -0.5468 -0.0114
 9012TIP3    H148451   3.150   1.378   2.715 -1.6353 -2.5001 -2.9668
 9012TIP3    H248452   3.022   1.353   2.792 -0.0691  0.2740  0.6753
 9013TIP3   OH248453   1.930   6.029   1.805 -0.2562 -0.0495  0.3649
 9013TIP3    H148454   1.998   5.964   1.783  0.6725  0.4592  1.6581
 9013TIP3    H248455   1.934   6.092   1.733 -0.1445 -0.6154 -0.1396
 9014TIP3   OH248456   2.606   5.602   3.079 -0.1570  0.2610  0.3929
 9014TIP3    H148457   2.614   5.607   2.984 -0.8377 -4.0912  0.0236
 9014TIP3    H248458   2.697   5.609   3.110  0.1569  0.7887 -0.6054
 9015TIP3   OH248459   4.455   5.249  12.300 -0.0037 -0.0028 -0.4173
 9015TIP3    H148460   4.366   5.283  12.287  0.1567  0.0991 -1.2945
 9015TIP3    H248461   4.475   5.203  12.218  0.9628  0.4497 -0.4339
 9016TIP3   OH248462   3.503   2.177  15.717 -0.0883  0.0067 -0.3091
 9016TIP3    H148463   3.490   2.262  15.760  1.9850  0.5890 -0.7673
 9016TIP3    H248464   3.512   2.199  15.624  1.8705 -0.5497 -0.2694
 9017TIP3   OH248465   0.575   4.500  14.752 -0.3834 -0.9463  0.5397
 9017TIP3    H148466   0.609   4.481  14.839  1.2239 -2.2619 -0.3617
 9017TIP3    H248467   0.642   4.469  14.692 -2.1600 -1.5131 -1.2173
 9018TIP3   OH248468   4.897   1.278  14.563 -0.2427  0.4301 -0.2577
 9018TIP3    H148469   4.906   1.262  14.656  1.1163  3.0578  0.1221
 9018TIP3    H248470   4.803   1.274  14.547 -0.4650 -0.2520  1.1869
 9019TIP3   OH248471   2.420   2.159  14.746 -0.2862 -0.1600  0.3220
 9019TIP3    H148472   2.394   2.212  14.822  0.2369  0.9277 -0.2509
 9019TIP3    H248473   2.338   2.130  14.707 -0.5599 -1.2789  1.6781
 9020TIP3   OH248474   4.743   1.412   2.981  0.0803 -0.0237  0.7094
 9020TIP3    H148475   4.831   1.423   2.946 -0.3443  2.5627  0.3861
 9020TIP3    H248476   4.690   1.387   2.905  0.2835 -0.2419  0.6405
 9021TIP3   OH248477   5.413   0.872  10.681  0.0486  0.1474 -0.4156
 9021TIP3    H148478   5.444   0.962  10.685  2.2899 -0.5041 -2.3845
 9021TIP3    H248479   5.376   0.856  10.768  0.4396  2.6461  0.2637
 9022TIP3   OH248480   6.300   0.319  12.464 -0.4910 -0.3013  0.1804
 9022TIP3    H148481   6.338   0.267  12.393  0.1157  1.9032 -1.1509
 9022TIP3    H248482   6.230   0.369  12.423 -1.2714 -0.2710  1.5086
 9023TIP3   OH248483   5.485   5.399  14.966  0.1174  0.5177  0.3306
 9023TIP3    H148484   5.575   5.430  14.972  0.4435 -0.3652  0.1068
 9023TIP3    H248485   5.436   5.474  14.931  1.2112  0.2222 -1.9138
 9024TIP3   OH248486   4.998   1.503  14.399  0.0711 -0.2843  0.0796
 9024TIP3    H148487   4.983   1.563  14.472 -0.3866  0.3385 -0.5326
 9024TIP3    H248488   4.947   1.425  14.422 -1.2247  0.4495 -0.2499
 9025TIP3   OH248489   6.420   4.203  11.605 -0.3740  0.1197  0.3774
 9025TIP3    H148490   6.335   4.235  11.633  0.3111  1.3434  1.0818
 9025TIP3    H248491   6.424   4.223  11.512 -0.3454  1.2048  0.6110
 9026TIP3   OH248492   3.560   2.607   0.806  0.9669  0.3208  0.2782
 9026TIP3    H148493   3.519   2.538   0.857  1.8651  0.5339  1.3015
 9026TIP3    H248494   3.533   2.590   0.716  0.4486 -0.8290  0.6503
 9027TIP3   OH248495   1.389   1.515   3.451 -0.2351  0.4566  0.0583
 9027TIP3    H148496   1.364   1.475   3.368  1.7035  0.4360 -0.5523
 9027TIP3    H248497   1.374   1.608   3.439 -2.7026  0.1639  0.7162
 9028TIP3   OH248498   3.992   5.228   1.747 -0.2956  0.1600 -0.2709
 9028TIP3    H148499   4.021   5.259   1.832 -0.4660 -0.3045 -0.0387
 9028TIP3    H248500   3.966   5.307   1.699  1.2870  0.5675 -0.4661
 9029TIP3   OH248501   5.010   0.135   2.781 -0.1740  0.0837  0.0976
 9029TIP3    H148502   5.058   0.138   2.698 -2.8179 -0.6337 -1.5291
 9029TIP3    H248503   5.011   0.043   2.806  1.6505  0.4787  1.5075
 9030TIP3   OH248504   0.097   1.367  15.590  0.5338  0.3699 -0.3651
 9030TIP3    H148505   0.155   1.294  15.565  0.5003  0.5984 -1.0960
 9030TIP3    H248506   0.137   1.444  15.550 -0.3291  0.5171 -0.9524
 9031TIP3   OH248507   0.971   5.111  14.293  0.3188 -0.2330 -0.1263
 9031TIP3    H148508   0.931   5.197  14.284 -0.9020 -0.5413  2.0475
 9031TIP3    H248509   0.997   5.106  14.385  0.2082 -2.2720 -0.1751
 9032TIP3   OH248510   5.902   0.340  16.656 -0.3693 -0.0763  0.4876
 9032TIP3    H148511   5.911   0.249  16.627 -1.3269 -0.6010  1.7781
 9032TIP3    H248512   5.950   0.343  16.738  1.4050  1.1180 -0.5753
 9033TIP3   OH248513   4.294   2.543   1.527  0.2213  0.4420  0.3346
 9033TIP3    H148514   4.216   2.490   1.512 -0.7246  1.3854  1.7568
 9033TIP3    H248515   4.271   2.598   1.602  2.1987  0.8552  0.6490
 9034TIP3   OH248516   1.904   2.552   2.981  0.4582 -0.4429 -0.5168
 9034TIP3    H148517   1.964   2.625   2.967 -0.7529  0.1490 -2.8932
 9034TIP3    H248518   1.823   2.593   3.013  0.7068 -1.0721  0.9974
 9035TIP3   OH248519   3.822   3.158   6.212  0.0133  0.1670  0.2803
 9035TIP3    H148520   3.877   3.105   6.269 -2.6305  0.2996  3.1546
 9035TIP3    H248521   3.835   3.248   6.243  0.7195  0.6078 -1.2613
 9036TIP3   OH248522   1.946   6.740  12.652 -0.3826  0.4087  0.7678
 9036TIP3    H148523   2.005   6.814  12.663  0.8803 -0.1951 -1.7313
 9036TIP3    H248524   1.881   6.771  12.589 -0.5417 -0.2097  0.6289
 9037TIP3   OH248525   5.933   1.406  13.040  0.0043 -0.1078 -0.0193
 9037TIP3    H148526   5.985   1.384  13.117 -2.2100 -2.0989  0.9623
 9037TIP3    H248527   5.916   1.322  12.998 -3.1841  0.3627  0.2042
 9038TIP3   OH248528   2.654   6.573  11.408 -0.6769  0.3890  0.3296
 9038TIP3    H148529   2.600   6.496  11.389  1.3545 -1.1728  0.6826
 9038TIP3    H248530   2.591   6.644  11.423 -2.5750 -1.0174 -0.7359
 9039TIP3   OH248531   1.198   1.113  15.274  0.8326  0.6390  0.1488
 9039TIP3    H148532   1.206   1.171  15.198  1.6232  0.8604  0.3981
 9039TIP3    H248533   1.157   1.167  15.341 -1.7277 -0.1346 -0.7353
 9040TIP3   OH248534   2.652   4.658   0.580 -0.0273 -0.9205 -0.4834
 9040TIP3    H148535   2.604   4.582   0.612  1.7520 -1.6464  0.4901
 9040TIP3    H248536   2.706   4.686   0.653 -2.7154  3.0926  0.1590
 9041TIP3   OH248537   5.304   4.503   3.232  0.0609 -0.0713 -0.5242
 9041TIP3    H148538   5.331   4.588   3.266 -1.9629 -0.2297  1.5714
 9041TIP3    H248539   5.381   4.447   3.243  1.7721  1.6814 -2.8866
 9042TIP3   OH248540   5.227   0.010  16.095  0.0932  0.4579 -0.2686
 9042TIP3    H148541   5.189   0.015  16.008 -1.5532  1.5020  0.4832
 9042TIP3    H248542   5.301   0.071  16.093  0.0202  0.5233 -0.9169
 9043TIP3   OH248543   5.447   1.427  14.114 -0.2413  0.0180  0.1417
 9043TIP3    H148544   5.373   1.404  14.171 -1.7147 -1.2375 -2.1801
 9043TIP3    H248545   5.524   1.413  14.169 -1.6727  1.3442  2.6314
 9044TIP3   OH248546   2.637   2.083  14.098 -0.6664 -0.1133 -0.2723
 9044TIP3    H148547   2.571   2.033  14.049  0.3641 -1.9016  0.1159
 9044TIP3    H248548   2.608   2.174  14.091 -2.2998 -0.6942 -1.4568
 9045TIP3   OH248549   0.908   5.982  15.714  0.1710 -0.0074  0.0056
 9045TIP3    H148550   1.001   5.963  15.717 -0.1450 -1.7809 -0.7924
 9045TIP3    H248551   0.878   5.945  15.631 -1.2509  0.4375  0.2995
 9046TIP3   OH248552   2.527   5.122   5.303 -0.0046  0.3268 -0.1512
 9046TIP3    H148553   2.534   5.045   5.248 -0.1075 -1.5033  2.3301
 9046TIP3    H248554   2.436   5.152   5.292  0.2886  0.6549 -1.7952
 9047TIP3   OH248555   4.349   2.735  16.345  0.5020  0.1447  0.5035
 9047TIP3    H148556   4.432   2.726  16.298  0.4219  2.0937 -0.0778
 9047TIP3    H248557   4.324   2.646  16.368  2.0192 -0.5861 -0.6117
 9048TIP3   OH248558   2.830   2.895   1.826 -0.5481 -0.5131  0.2394
 9048TIP3    H148559   2.760   2.913   1.764  0.2106  0.0788 -0.4557
 9048TIP3    H248560   2.871   2.815   1.793 -0.3730 -0.3967  0.1717
 9049TIP3   OH248561   1.644   0.925  10.999  0.2623 -0.3338  0.4365
 9049TIP3    H148562   1.658   0.962  11.086  2.0018  1.5188 -0.5879
 9049TIP3    H248563   1.704   0.850  10.995  1.1254  0.3534  0.3798
 9050TIP3   OH248564   2.304   2.882   4.503  0.2011  0.1012  0.5413
 9050TIP3    H148565   2.219   2.916   4.531 -0.7643 -1.3122 -0.5881
 9050TIP3    H248566   2.292   2.787   4.501  1.0419  0.0042 -1.9612
 9051TIP3   OH248567   0.309   5.517   4.248  0.3871  0.5641  0.3405
 9051TIP3    H148568   0.329   5.487   4.337 -1.9970 -2.2854 -0.0021
 9051TIP3    H248569   0.237   5.578   4.259 -1.7357 -1.8300  0.2186
 9052TIP3   OH248570   1.781   1.893  13.093  0.3267 -0.5111 -0.4807
 9052TIP3    H148571   1.789   1.951  13.169  1.5297 -1.4883  0.1592
 9052TIP3    H248572   1.697   1.849  13.104 -0.8655  1.4881 -1.2620
 9053TIP3   OH248573   0.187   2.279   2.574 -0.2964  0.2492 -0.1855
 9053TIP3    H148574   0.241   2.246   2.646  3.2657  2.2467 -1.8106
 9053TIP3    H248575   0.127   2.341   2.615  0.5915  0.1450  1.2961
 9054TIP3   OH248576   4.519   1.278   5.791 -0.3557  0.1577  0.0597
 9054TIP3    H148577   4.613   1.292   5.778 -0.2725 -1.0672 -0.8054
 9054TIP3    H248578   4.491   1.234   5.710 -1.5481 -0.0065  0.5666
 9055TIP3   OH248579   1.950   4.379  11.496 -0.1176 -0.1821  0.1194
 9055TIP3    H148580   1.921   4.351  11.409 -1.1532 -0.3930  0.5298
 9055TIP3    H248581   2.041   4.406  11.483 -0.9249  1.8830 -1.4685
 9056TIP3   OH248582   3.020   0.657   6.570 -0.3750  0.6095  0.3335
 9056TIP3    H148583   2.996   0.749   6.559 -1.9611  0.3060  1.0742
 9056TIP3    H248584   2.984   0.614   6.493 -1.7626  0.2498  1.1526
 9057TIP3   OH248585   1.463   2.034  12.958  1.0246  0.3313  0.5608
 9057TIP3    H148586   1.480   1.979  13.034 -0.6750  0.9930  1.4387
 9057TIP3    H248587   1.368   2.033  12.949  1.0689  2.1404 -0.1513
 9058TIP3   OH248588   1.409   5.369   5.326  0.1690 -0.6550  0.2354
 9058TIP3    H148589   1.347   5.365   5.399 -0.2784 -0.7335 -0.1460
 9058TIP3    H248590   1.362   5.418   5.258  0.9115  0.1964  0.3244
 9059TIP3   OH248591   3.319   6.616  11.927  0.7685 -0.0932  0.1096
 9059TIP3    H148592   3.408   6.651  11.930  1.2790 -1.2608 -1.0215
 9059TIP3    H248593   3.287   6.639  11.840 -0.4527  1.2981  0.9086
 9060TIP3   OH248594   1.652   6.135  16.780 -0.0475  0.1107 -0.4049
 9060TIP3    H148595   1.616   6.048  16.763 -0.2879  0.1686 -0.2005
 9060TIP3    H248596   1.731   6.139  16.727  0.4009 -0.5283  0.2014
 9061TIP3   OH248597   4.614   1.229   3.163 -0.5713 -0.0537  0.1122
 9061TIP3    H148598   4.661   1.279   3.097 -1.5751  0.2265 -0.4084
 9061TIP3    H248599   4.529   1.272   3.169 -1.4628 -1.6895 -0.3616
 9062TIP3   OH248600   4.745   6.242   2.607  0.0672  0.1001  1.0562
 9062TIP3    H148601   4.711   6.331   2.615 -0.3458 -0.0544  1.0170
 9062TIP3    H248602   4.675   6.186   2.640 -0.5566 -0.3592 -1.0240
 9063TIP3   OH248603   4.804   5.240  15.872  0.2798 -0.3715  0.3201
 9063TIP3    H148604   4.785   5.278  15.958  2.2200  0.2838  0.4701
 9063TIP3    H248605   4.891   5.201  15.881  1.1689  1.0091 -1.7658
 9064TIP3   OH248606   5.579   2.553   0.806  0.1357  0.1235 -0.0373
 9064TIP3    H148607   5.573   2.648   0.796 -0.1012 -0.0520 -1.7742
 9064TIP3    H248608   5.591   2.521   0.717 -0.1843 -1.5056  0.4979
 9065TIP3   OH248609   0.492   0.995   2.898  0.0883 -0.3158 -0.4163
 9065TIP3    H148610   0.559   0.933   2.929 -0.0994  0.2028  1.0989
 9065TIP3    H248611   0.409   0.952   2.917 -0.0282 -0.5321 -1.3891
 9066TIP3   OH248612   4.034   1.320  13.857  0.4148 -0.2816  0.0197
 9066TIP3    H148613   4.014   1.388  13.922  0.1580 -0.0340 -0.3172
 9066TIP3    H248614   3.978   1.247  13.882 -1.2916  0.5706 -1.1963
 9067TIP3   OH248615   2.544   1.028  15.325  0.4008  0.4404 -0.2866
 9067TIP3    H148616   2.621   1.013  15.380 -0.1564  0.6238  0.5570
 9067TIP3    H248617   2.470   1.003  15.381 -0.1518  0.2759 -1.0857
 9068TIP3   OH248618   5.485   0.272  13.486 -0.3853  0.1147  0.8444
 9068TIP3    H148619   5.464   0.335  13.555  0.2776 -0.0891  1.2376
 9068TIP3    H248620   5.562   0.308  13.443 -0.9578  0.3764  0.0276
 9069TIP3   OH248621   1.400   2.839   5.551 -0.3493 -0.1251  0.0373
 9069TIP3    H148622   1.318   2.824   5.503 -0.1101  0.9168 -0.7211
 9069TIP3    H248623   1.394   2.782   5.627 -2.2513  0.7034  0.5465
 9070TIP3   OH248624   5.523   0.736  10.466  0.6024 -0.8458 -0.5325
 9070TIP3    H148625   5.449   0.679  10.446 -0.5245  0.5473 -0.4593
 9070TIP3    H248626   5.487   0.801  10.527  1.5329  0.6083 -1.4978
 9071TIP3   OH248627   3.381   6.533  16.442 -0.4419  0.0386 -0.4389
 9071TIP3    H148628   3.329   6.505  16.367  0.8127 -0.3635 -1.1718
 9071TIP3    H248629   3.381   6.458  16.501 -0.6355  0.0202 -0.4616
 9072TIP3   OH248630   4.927   5.113  17.046  0.2798 -0.5241 -0.2816
 9072TIP3    H148631   4.964   5.031  17.078  0.1669 -0.5965 -0.3321
 9072TIP3    H248632   4.880   5.089  16.966  0.2505 -0.4063 -0.2996
 9073TIP3   OH248633   5.090   2.342   5.419 -0.3439  0.5134  0.0868
 9073TIP3    H148634   5.035   2.274   5.459 -0.6336  0.8957  0.3440
 9073TIP3    H248635   5.028   2.408   5.388 -0.0664  0.6337 -0.2112
 9074TIP3   OH248636   3.991   2.494  12.267  0.1276 -0.3873 -0.7642
 9074TIP3    H148637   3.902   2.526  12.254  0.4874  0.5974 -0.9010
 9074TIP3    H248638   4.046   2.570  12.249  1.1439 -1.6554 -3.2328
 9075TIP3   OH248639   4.894   0.136  16.611 -0.1084 -0.3569  0.3510
 9075TIP3    H148640   4.854   0.158  16.527  0.8924 -1.2049 -0.3514
 9075TIP3    H248641   4.902   0.041  16.611  0.8855 -0.2898  0.9497
 9076TIP3   OH248642   2.821   2.627  13.855  0.2370 -0.4665 -0.0095
 9076TIP3    H148643   2.766   2.561  13.898 -0.1817  0.6664  1.2175
 9076TIP3    H248644   2.904   2.582  13.838 -0.2457 -1.4793  0.2729
 9077TIP3   OH248645   3.939   2.099  15.049 -0.0410  0.2015 -0.0038
 9077TIP3    H148646   3.913   2.014  15.013  0.0317  0.4725 -0.6983
 9077TIP3    H248647   3.945   2.084  15.143 -0.9718 -0.3199 -0.0247
 9078TIP3   OH248648   3.515   3.561  10.608 -0.2522 -0.1952 -0.4967
 9078TIP3    H148649   3.493   3.654  10.605 -0.8527 -0.3514 -1.0828
 9078TIP3    H248650   3.599   3.556  10.561  0.1818  0.1531  0.2245
 9079TIP3   OH248651   3.832   3.969  15.285  0.4234 -0.4329  0.2097
 9079TIP3    H148652   3.833   4.042  15.223 -0.2557 -1.5267 -1.1288
 9079TIP3    H248653   3.741   3.942  15.290  0.6269 -1.0121  0.8932
 9080TIP3   OH248654   1.134   2.487   4.757  0.0130 -0.3062  0.0636
 9080TIP3    H148655   1.165   2.455   4.841 -0.5616 -0.3530  0.2642
 9080TIP3    H248656   1.047   2.447   4.747  0.2140 -0.5618 -0.6966
 9081TIP3   OH248657   3.080   1.733   2.176  0.4474  0.2460  0.1183
 9081TIP3    H148658   3.063   1.761   2.086  0.7000  0.9962  0.3061
 9081TIP3    H248659   3.027   1.792   2.230  1.5450  0.8507  0.5552
 9082TIP3   OH248660   4.252   4.005  14.601  0.7165  0.0859 -0.0791
 9082TIP3    H148661   4.242   4.077  14.539  0.0330  0.4161  0.4166
 9082TIP3    H248662   4.299   3.938  14.551  1.5009  0.9226 -0.4903
 9083TIP3   OH248663   4.257   4.160  14.846 -0.8274 -0.1634  0.4661
 9083TIP3    H148664   4.206   4.135  14.923 -1.5712 -1.5161 -0.4585
 9083TIP3    H248665   4.288   4.078  14.809  0.1709  0.5207 -0.2508
 9084TIP3   OH248666   1.054   2.419  16.561 -0.3017 -0.4850 -0.0005
 9084TIP3    H148667   1.004   2.338  16.568  0.5135 -0.9447  0.4976
 9084TIP3    H248668   1.066   2.431  16.466 -0.3783 -0.9664 -0.0726
 9085TIP3   OH248669   6.563   3.935  15.190  0.3292  0.0617 -0.0721
 9085TIP3    H148670   6.554   3.857  15.136  1.9050 -0.6477  0.6527
 9085TIP3    H248671   6.502   3.922  15.262  0.1424 -0.1997 -0.2776
 9086TIP3   OH248672   2.439   4.559   0.770 -0.1603  0.0409  0.0242
 9086TIP3    H148673   2.443   4.474   0.813 -2.2754  0.2147  0.6365
 9086TIP3    H248674   2.346   4.581   0.770  0.2194  1.7467 -1.3252
 9087TIP3   OH248675   3.973   1.411  12.529 -0.5437 -0.4643  0.2669
 9087TIP3    H148676   3.943   1.498  12.553 -1.8391 -1.3816  2.0576
 9087TIP3    H248677   3.980   1.364  12.611 -0.3922 -2.2275 -0.7256
 9088TIP3   OH248678   4.131   5.834  16.325 -0.3378 -0.0077  0.1124
 9088TIP3    H148679   4.174   5.910  16.286  0.9578 -0.0418  1.4358
 9088TIP3    H248680   4.108   5.779  16.250  1.4929  0.2533 -0.6726
 9089TIP3   OH248681   4.182   3.106   1.855 -0.0597  0.3348  0.2520
 9089TIP3    H148682   4.173   3.098   1.950  0.0053  0.4936  0.2714
 9089TIP3    H248683   4.110   3.053   1.820  0.6785 -0.7605  0.3731
 9090TIP3   OH248684   0.971   1.235  13.444 -0.0736  0.3685  0.1229
 9090TIP3    H148685   1.029   1.278  13.383  0.4612  1.6371  1.4926
 9090TIP3    H248686   1.002   1.144  13.448 -1.0781 -0.1489 -2.6158
 9091TIP3   OH248687   2.489   4.927   3.826 -0.6423 -0.6917 -0.0016
 9091TIP3    H148688   2.440   4.850   3.796 -1.0040 -0.2421 -0.5662
 9091TIP3    H248689   2.472   4.994   3.760  0.2467 -0.3431  0.1177
 9092TIP3   OH248690   1.942   5.434   6.307 -0.0329  0.2127 -0.3986
 9092TIP3    H148691   1.874   5.493   6.339  0.7134  0.1721  1.3091
 9092TIP3    H248692   1.966   5.468   6.221  0.5546  2.5331  0.6553
 9093TIP3   OH248693   5.339   4.299   5.266  0.1511  0.5459  0.2475
 9093TIP3    H148694   5.395   4.230   5.231 -1.3117 -1.5965  2.0723
 9093TIP3    H248695   5.283   4.324   5.192 -0.0564 -0.9797 -0.1149
 9094TIP3   OH248696   4.243   0.360  11.390 -0.4784 -0.6370 -0.4371
 9094TIP3    H148697   4.267   0.272  11.362  0.4727 -0.1840 -1.0823
 9094TIP3    H248698   4.326   0.398  11.420 -1.1785 -0.5475  1.4577
 9095TIP3   OH248699   6.019   3.972   5.735  0.3847 -0.9744 -0.0788
 9095TIP3    H148700   6.006   4.067   5.735  0.1668 -0.9815 -1.4320
 9095TIP3    H248701   5.945   3.938   5.785  0.4625 -0.4348  0.4185
 9096TIP3   OH248702   0.832   4.725   5.062 -0.3990 -0.7832  0.9687
 9096TIP3    H148703   0.824   4.811   5.022 -0.2196 -0.6098  1.3111
 9096TIP3    H248704   0.755   4.717   5.119 -0.1886 -0.6764  1.2682
 9097TIP3   OH248705   0.670   4.305   4.773  0.5746 -0.0003 -0.6932
 9097TIP3    H148706   0.643   4.393   4.745  0.9892  0.0735 -0.8663
 9097TIP3    H248707   0.728   4.320   4.848 -1.2120 -0.2380  0.7762
 9098TIP3   OH248708   6.661   3.477   5.382  0.2548 -0.0867 -0.3459
 9098TIP3    H148709   6.723   3.526   5.435  0.2170 -1.0398  0.6030
 9098TIP3    H248710   6.695   3.484   5.292  1.3348 -0.0145  0.0629
 9099TIP3   OH248711   4.323   1.393   6.214 -0.0731  0.2394 -0.3976
 9099TIP3    H148712   4.341   1.338   6.138 -0.2647  0.1751 -0.3967
 9099TIP3    H248713   4.386   1.364   6.280  1.4095  1.6125 -1.1677
 9100TIP3   OH248714   1.274   6.289   0.158 -0.2782  0.6674 -0.0765
 9100TIP3    H148715   1.296   6.204   0.195  0.1558  0.3574 -1.0466
 9100TIP3    H248716   1.180   6.298   0.173  0.1102  1.1340  2.2893
 9101TIP3   OH248717   0.121   1.773  11.620 -0.2775 -0.1337 -0.2207
 9101TIP3    H148718   0.031   1.789  11.649 -0.2409  2.2830 -1.3365
 9101TIP3    H248719   0.122   1.798  11.528  1.1641 -1.6749 -0.6496
 9102TIP3   OH248720   1.672   6.539  15.901  0.9565  0.4885  0.1961
 9102TIP3    H148721   1.576   6.540  15.892  0.8582 -2.0198  0.4071
 9102TIP3    H248722   1.704   6.550  15.812  0.4465  0.5043  0.0095
 9103TIP3   OH248723   4.126   3.569  14.145  0.0492 -0.2922 -0.1937
 9103TIP3    H148724   4.061   3.499  14.153  0.4832 -0.6859 -0.1120
 9103TIP3    H248725   4.193   3.547  14.209  0.8316 -0.5140 -1.0771
 9104TIP3   OH248726   4.581   1.259   3.812 -0.3747  0.5320  0.1292
 9104TIP3    H148727   4.507   1.199   3.797  0.6209 -1.0069  1.2112
 9104TIP3    H248728   4.562   1.299   3.896  0.0572  0.0485  0.4642
 9105TIP3   OH248729   2.479   2.625   1.751 -0.5334 -0.8057 -0.3306
 9105TIP3    H148730   2.438   2.676   1.682 -2.5237 -2.8110 -0.6781
 9105TIP3    H248731   2.557   2.588   1.710  0.4239  1.1571 -0.3379
 9106TIP3   OH248732   3.164   5.579  13.687 -0.2279 -0.2518 -0.4884
 9106TIP3    H148733   3.206   5.518  13.748 -0.3877 -0.2866 -0.4111
 9106TIP3    H248734   3.070   5.562  13.698 -0.4862  2.3045  1.9581
 9107TIP3   OH248735   5.402   5.534   1.672  0.1253  0.0031 -0.1062
 9107TIP3    H148736   5.320   5.517   1.627  0.1006  0.3606 -0.1954
 9107TIP3    H248737   5.400   5.476   1.748 -0.3775  0.2989  0.1015
 9108TIP3   OH248738   0.757   1.270  10.952 -0.5543  0.1155 -0.2833
 9108TIP3    H148739   0.779   1.188  10.996 -2.9898 -0.7730 -0.6005
 9108TIP3    H248740   0.818   1.275  10.879  0.4680 -0.7604  0.5017
 9109TIP3   OH248741   0.300   5.687  11.416  0.1889 -1.0968  0.2236
 9109TIP3    H148742   0.361   5.718  11.349  0.9947 -0.5306  1.2055
 9109TIP3    H248743   0.316   5.593  11.421  0.2574 -1.1117 -0.2442
 9110TIP3   OH248744   5.682   0.619   5.786  0.0595  0.0966  0.3347
 9110TIP3    H148745   5.613   0.583   5.731  1.1345  2.9917 -3.1270
 9110TIP3    H248746   5.638   0.686   5.839  0.0647  1.5982 -1.5177
 9111TIP3   OH248747   5.169   6.251   2.770  0.1798  0.4025 -0.9851
 9111TIP3    H148748   5.081   6.223   2.796 -0.3750  2.9828  0.1225
 9111TIP3    H248749   5.202   6.179   2.716 -2.0001 -1.2932 -0.1493
 9112TIP3   OH248750   2.759   6.032   5.345  0.3600 -0.2376 -0.0056
 9112TIP3    H148751   2.840   5.998   5.382  0.2659 -0.7910 -0.3000
 9112TIP3    H248752   2.788   6.086   5.271  0.3735 -2.2679 -1.5415
 9113TIP3   OH248753   6.576   0.050   5.462  0.1930 -0.0494 -0.4209
 9113TIP3    H148754   6.606  -0.032   5.422  0.9714  0.5977 -1.1971
 9113TIP3    H248755   6.653   0.107   5.460  0.1246  0.1538  1.6251
 9114TIP3   OH248756   1.048   3.093  15.776 -0.1329  0.0931  0.5658
 9114TIP3    H148757   0.955   3.080  15.791 -0.1913 -0.9877 -0.6241
 9114TIP3    H248758   1.060   3.073  15.683  1.5250 -1.3534  1.0551
 9115TIP3   OH248759   0.544   5.757   4.309  0.0945  0.3403  0.0402
 9115TIP3    H148760   0.499   5.729   4.389  1.9475 -1.4073  0.5083
 9115TIP3    H248761   0.517   5.693   4.243  1.4048 -0.3555  0.1767
 9116TIP3   OH248762   6.292   6.052   3.885 -0.3133 -0.5023 -1.2176
 9116TIP3    H148763   6.267   6.015   3.800 -1.1869  0.0734 -1.2237
 9116TIP3    H248764   6.211   6.090   3.919  0.1898 -0.1039 -0.4460
 9117TIP3   OH248765   5.469   3.985  16.288 -0.6999  0.0254 -0.1957
 9117TIP3    H148766   5.417   4.014  16.363 -0.2641  1.1250 -0.3136
 9117TIP3    H248767   5.445   3.893  16.277 -2.4898  0.4731 -0.1386
 9118TIP3   OH248768   3.585   5.420   0.480  0.0288  0.1907 -0.9960
 9118TIP3    H148769   3.536   5.352   0.433  2.2649 -1.0803 -1.5767
 9118TIP3    H248770   3.538   5.431   0.563 -1.3578 -0.8100 -1.6282
 9119TIP3   OH248771   3.109   3.565   1.265  0.1509  0.0910 -0.1614
 9119TIP3    H148772   3.187   3.607   1.302  0.0920 -1.4734  1.7966
 9119TIP3    H248773   3.143   3.514   1.191  0.6914  0.9324 -0.5063
 9120TIP3   OH248774   5.858   4.182   6.008  0.5736 -0.2584  0.1960
 9120TIP3    H148775   5.842   4.275   5.991  0.6938 -0.5316 -1.4791
 9120TIP3    H248776   5.783   4.155   6.061 -1.0256  0.1141 -1.8129
 9121TIP3   OH248777   6.404   1.960  14.877 -0.1261 -0.2664 -0.0511
 9121TIP3    H148778   6.347   2.037  14.872 -0.3050 -0.3346  0.8074
 9121TIP3    H248779   6.411   1.941  14.971  0.7962 -0.6444 -0.1873
 9122TIP3   OH248780   3.781   5.812   4.160 -0.5761  0.0390  0.1407
 9122TIP3    H148781   3.760   5.729   4.116 -0.3632  0.1732 -0.2134
 9122TIP3    H248782   3.876   5.809   4.173 -0.5001  0.4444 -0.3131
 9123TIP3   OH248783   6.206   2.970  12.707  0.0751  0.4846  0.3642
 9123TIP3    H148784   6.231   2.988  12.616 -1.2252 -1.5118 -0.4267
 9123TIP3    H248785   6.149   3.043  12.731  1.5673  1.7794  0.0932
 9124TIP3   OH248786   5.094   2.618  14.215  0.4207  0.1106  0.3273
 9124TIP3    H148787   5.132   2.679  14.153  0.7122  0.9983  1.3763
 9124TIP3    H248788   5.031   2.568  14.163  2.8818 -1.3175 -1.4198
 9125TIP3   OH248789   1.715   1.879  12.801 -0.0486  0.2473 -0.2926
 9125TIP3    H148790   1.630   1.881  12.844  0.2276 -1.2102  0.3672
 9125TIP3    H248791   1.770   1.938  12.852 -0.7991  1.5960 -1.0367
 9126TIP3   OH248792   5.167   2.420   0.337  0.9825  0.3317  0.2040
 9126TIP3    H148793   5.243   2.451   0.289  0.8703 -1.1263 -0.9503
 9126TIP3    H248794   5.190   2.330   0.361 -0.2731 -0.0257  0.0697
 9127TIP3   OH248795   3.073   5.063   6.582  0.1033  0.4195 -0.4965
 9127TIP3    H148796   3.079   4.984   6.636 -1.6808  0.2858 -0.4611
 9127TIP3    H248797   3.040   5.130   6.642 -2.5946  0.0958 -1.5266
 9128TIP3   OH248798   6.228   5.870   0.757 -0.4691 -0.1219  0.1164
 9128TIP3    H148799   6.296   5.810   0.727  0.5007  1.8668 -1.8589
 9128TIP3    H248800   6.152   5.850   0.702 -0.8106 -0.9014  0.8621
 9129TIP3   OH248801   2.637   1.604   5.719  0.1296  1.1144  0.3302
 9129TIP3    H148802   2.647   1.513   5.691 -1.5873  0.8779  0.4340
 9129TIP3    H248803   2.656   1.603   5.813  0.2273  0.8902  0.3092
 9130TIP3   OH248804   0.662   0.547   3.116 -0.1798 -0.2628 -0.1772
 9130TIP3    H148805   0.697   0.573   3.030  0.4556  0.3707  0.2586
 9130TIP3    H248806   0.731   0.493   3.154  0.0289  0.3852  0.3865
 9131TIP3   OH248807   0.706   0.102   5.479  0.4435  0.0973 -0.2127
 9131TIP3    H148808   0.680   0.149   5.399  1.6636  0.2882 -0.5037
 9131TIP3    H248809   0.797   0.078   5.464  1.0557  1.1974  1.6445
 9132TIP3   OH248810   1.060   6.198  12.070 -0.2780  0.2782 -0.7405
 9132TIP3    H148811   1.079   6.139  12.143 -1.4454 -0.4471 -1.0221
 9132TIP3    H248812   1.026   6.277  12.113  1.8388  1.0078 -0.3302
 9133TIP3   OH248813   6.619   2.934  14.876  0.5776  0.5105  0.5656
 9133TIP3    H148814   6.590   2.910  14.788  0.0877  1.8967  0.3290
 9133TIP3    H248815   6.710   2.904  14.880  0.0722 -1.1257  0.2188
 9134TIP3   OH248816   5.899   3.331   3.578  0.4061  0.1656 -0.0976
 9134TIP3    H148817   5.937   3.258   3.627  0.0503  1.0729  1.5653
 9134TIP3    H248818   5.811   3.340   3.613  0.2917  1.1053 -0.6101
 9135TIP3   OH248819   5.228   5.874   1.929 -0.0518 -0.3224  0.0744
 9135TIP3    H148820   5.238   5.805   1.864  1.4996  3.2804 -3.8253
 9135TIP3    H248821   5.147   5.919   1.905 -0.5746 -0.2334  1.9569
 9136TIP3   OH248822   2.899   4.364   5.897  0.8742  0.5240  0.3979
 9136TIP3    H148823   2.870   4.350   5.987 -1.8835 -0.0714 -0.5498
 9136TIP3    H248824   2.848   4.438   5.865  1.8602  0.7680 -0.6613
 9137TIP3   OH248825   0.079   6.659   4.391 -0.3523 -0.7523 -0.4409
 9137TIP3    H148826  -0.003   6.698   4.422  0.3059 -0.0426  0.4086
 9137TIP3    H248827   0.086   6.689   4.300 -0.7012 -0.2622 -0.3116
 9138TIP3   OH248828   6.071   5.517   5.235  0.1905  0.2011 -0.2041
 9138TIP3    H148829   6.143   5.578   5.226  0.4637 -0.3700 -2.1507
 9138TIP3    H248830   5.995   5.564   5.201  0.2259 -0.2018 -0.8558
 9139TIP3   OH248831   2.489   1.580   3.688  0.5495  0.3383  0.4401
 9139TIP3    H148832   2.562   1.614   3.636 -0.2921  1.5137 -0.0130
 9139TIP3    H248833   2.472   1.648   3.753 -1.0123  0.7195 -0.3233
 9140TIP3   OH248834   5.951   3.112  11.287  0.1015  0.2588 -0.0584
 9140TIP3    H148835   5.856   3.124  11.292 -0.0906 -1.1215  0.0529
 9140TIP3    H248836   5.988   3.200  11.295 -1.0766  0.5616  2.2445
 9141TIP3   OH248837   5.467   5.072  15.080  0.4217  0.3360 -0.2825
 9141TIP3    H148838   5.484   5.101  15.170 -1.1832  0.3067  0.0410
 9141TIP3    H248839   5.382   5.109  15.058  0.4385 -0.3194 -1.5190
 9142TIP3   OH248840   5.772   3.243  16.128 -0.1364 -0.0429  0.2952
 9142TIP3    H148841   5.844   3.232  16.065  0.0841  0.0115  0.5397
 9142TIP3    H248842   5.816   3.257  16.212 -0.4358 -1.0167  0.6240
 9143TIP3   OH248843   3.474   3.499  14.954 -0.8574  0.1057  0.3988
 9143TIP3    H148844   3.437   3.586  14.938 -1.4768  0.0702  1.5981
 9143TIP3    H248845   3.559   3.516  14.994  0.6564  0.1936 -2.6942
 9144TIP3   OH248846   2.301   1.183  12.935 -0.3011 -0.0430  0.5184
 9144TIP3    H148847   2.329   1.093  12.922 -3.2978 -1.5093  3.3841
 9144TIP3    H248848   2.362   1.218  13.001  0.1228 -0.3692  0.2959
 9145TIP3   OH248849   5.801   3.013  14.372 -0.0161 -0.1479 -0.3726
 9145TIP3    H148850   5.779   3.101  14.402 -2.4456 -1.3721  1.5675
 9145TIP3    H248851   5.848   2.974  14.445  0.9939 -0.4980 -1.2009
 9146TIP3   OH248852   2.195   5.925  10.270 -0.1049  0.1627  0.5104
 9146TIP3    H148853   2.138   5.921  10.193  1.7050 -1.1255 -0.8006
 9146TIP3    H248854   2.155   5.864  10.332 -0.0651 -0.8839 -0.4798
 9147TIP3   OH248855   2.406   4.750  14.768  0.2667  0.3178  0.2492
 9147TIP3    H148856   2.368   4.667  14.795 -0.7350  1.5408  2.7722
 9147TIP3    H248857   2.358   4.773  14.688 -0.1660 -1.0301  0.1101
 9148TIP3   OH248858   4.659   3.332   3.617 -0.6039 -0.4190  0.2762
 9148TIP3    H148859   4.570   3.303   3.596 -0.3081 -0.6516 -0.6713
 9148TIP3    H248860   4.715   3.264   3.581  0.0014  0.2193  0.0163
 9149TIP3   OH248861   4.537   2.814  13.697  0.2550 -0.0830 -0.3866
 9149TIP3    H148862   4.588   2.744  13.737  1.2880  0.7687 -0.2013
 9149TIP3    H248863   4.520   2.875  13.769  0.2055  0.3485 -0.7686
 9150TIP3   OH248864   1.857   1.711   0.658 -0.3373 -0.0293 -0.0948
 9150TIP3    H148865   1.854   1.691   0.565  0.0459  1.1668 -0.3763
 9150TIP3    H248866   1.943   1.680   0.687 -0.2160  0.1511 -0.2663
 9151TIP3   OH248867   5.722   3.538  13.289  0.0166  1.0182  0.3099
 9151TIP3    H148868   5.639   3.517  13.332 -0.5813  2.4857 -0.1072
 9151TIP3    H248869   5.789   3.510  13.352 -0.8227  1.5969  1.4859
 9152TIP3   OH248870   4.972   6.382  13.640  0.3409 -0.7276  0.0802
 9152TIP3    H148871   4.893   6.432  13.661 -0.4721 -1.9011 -0.1142
 9152TIP3    H248872   4.989   6.329  13.718  1.6837  0.4556  0.6106
 9153TIP3   OH248873   0.440   6.148   4.708 -0.1457  0.0778  0.2940
 9153TIP3    H148874   0.389   6.209   4.762 -2.0966  0.5241 -1.9561
 9153TIP3    H248875   0.526   6.190   4.700 -1.2627  2.2976 -0.7134
 9154TIP3   OH248876   4.106   5.689   5.733 -0.4552 -0.5396  0.2746
 9154TIP3    H148877   4.088   5.648   5.817 -0.5885 -4.2436 -1.4595
 9154TIP3    H248878   4.024   5.679   5.684 -0.0929  0.7400 -0.6205
 9155TIP3   OH248879   1.673   5.711  15.270 -0.4922 -0.3704 -0.6116
 9155TIP3    H148880   1.759   5.729  15.232 -0.4624  1.4700  0.2986
 9155TIP3    H248881   1.686   5.723  15.364 -1.9604  0.8545 -0.5492
 9156TIP3   OH248882   3.412   6.106   3.035  0.3014 -0.2573  0.0152
 9156TIP3    H148883   3.387   6.059   2.955  1.4122 -0.9346  0.0598
 9156TIP3    H248884   3.397   6.043   3.105 -2.6598  0.9952  0.6212
 9157TIP3   OH248885   1.567   2.267   4.150 -0.0996 -0.4350 -0.5123
 9157TIP3    H148886   1.661   2.286   4.155 -0.0653 -1.1991  2.3568
 9157TIP3    H248887   1.525   2.353   4.145  0.7240 -0.0821 -1.5051
 9158TIP3   OH248888   2.500   2.033   3.535  0.3094 -0.7344  0.1075
 9158TIP3    H148889   2.551   2.089   3.592  0.8240  0.3422 -1.3934
 9158TIP3    H248890   2.419   2.082   3.520  0.3328 -0.8421 -0.3784
 9159TIP3   OH248891   1.508   5.806   2.139 -0.0527 -0.0701  0.5725
 9159TIP3    H148892   1.590   5.848   2.163 -0.9647  1.5753  0.8584
 9159TIP3    H248893   1.511   5.798   2.044  0.4778 -0.1057  0.5942
 9160TIP3   OH248894   0.094   2.134  13.045  0.1936  0.5155  0.3735
 9160TIP3    H148895   0.142   2.054  13.066  0.7517  1.0662  1.2089
 9160TIP3    H248896   0.011   2.102  13.009  0.8187 -0.4340 -0.2441
 9161TIP3   OH248897   5.371   1.805   5.073 -0.0687 -0.3964  0.0766
 9161TIP3    H148898   5.339   1.843   4.991  0.0784  1.7195  0.9780
 9161TIP3    H248899   5.465   1.822   5.074 -0.1251 -0.0865  0.8467
 9162TIP3   OH248900   0.792   4.361   0.734  0.5531  0.0629  0.3196
 9162TIP3    H148901   0.805   4.448   0.698  1.6268  0.8762  2.5680
 9162TIP3    H248902   0.826   4.366   0.823  1.3961 -2.8705  0.2424
 9163TIP3   OH248903   3.408   4.717  11.360  0.6838 -0.2213  0.2074
 9163TIP3    H148904   3.417   4.739  11.453 -0.0378  0.3510  0.1503
 9163TIP3    H248905   3.351   4.786  11.325 -0.7978 -1.6339 -0.2137
 9164TIP3   OH248906   2.580   3.829  15.271 -0.2100  0.1091 -0.0421
 9164TIP3    H148907   2.591   3.812  15.177 -0.8037 -1.2289  0.1208
 9164TIP3    H248908   2.654   3.886  15.294 -1.1349  2.0787 -1.7347
 9165TIP3   OH248909   1.440   4.155   2.004 -0.3234  1.0265 -0.3954
 9165TIP3    H148910   1.517   4.107   2.035 -1.0947  0.5844  0.8664
 9165TIP3    H248911   1.410   4.105   1.928 -0.6527 -0.0410  0.4302
 9166TIP3   OH248912   1.892   3.590  16.815  0.1472 -0.3797  0.2611
 9166TIP3    H148913   1.865   3.559  16.728  0.4189 -1.3074  0.5087
 9166TIP3    H248914   1.876   3.516  16.873 -0.3692  0.3588  1.0727
 9167TIP3   OH248915   3.582   1.436   1.505  0.9563  0.3182 -0.5237
 9167TIP3    H148916   3.618   1.422   1.417 -0.9542 -1.5610 -1.0343
 9167TIP3    H248917   3.578   1.348   1.543 -1.7426  0.6473  0.0374
 9168TIP3   OH248918   1.010   1.786   2.404  0.7857  0.0242  0.0215
 9168TIP3    H148919   1.080   1.729   2.433  0.9921  0.4171  0.2953
 9168TIP3    H248920   0.935   1.764   2.460  0.1306 -1.6978 -1.4977
 9169TIP3   OH248921   3.787   2.961  11.938  0.4439  0.2885 -0.1332
 9169TIP3    H148922   3.785   3.026  11.867  1.5780 -0.4948 -0.8894
 9169TIP3    H248923   3.748   2.883  11.899  0.0795  0.1729  0.4536
 9170TIP3   OH248924   3.658   6.261  10.773  0.0906 -0.2168 -0.1453
 9170TIP3    H148925   3.636   6.218  10.690 -1.3183 -0.5523  0.3875
 9170TIP3    H248926   3.735   6.315  10.753  0.8969 -1.7205 -1.2219
 9171TIP3   OH248927   0.364   2.366   3.962 -0.7776 -0.4748 -0.0121
 9171TIP3    H148928   0.440   2.376   4.019 -0.3715  3.1315 -1.0952
 9171TIP3    H248929   0.373   2.277   3.927  4.4109  0.6641 -2.0758
 9172TIP3   OH248930   5.964   2.279  13.599 -0.6197  0.4842  0.3476
 9172TIP3    H148931   5.958   2.241  13.511 -0.2136  1.0933  0.0489
 9172TIP3    H248932   6.058   2.287  13.615 -0.6660 -1.1762  1.5187
 9173TIP3   OH248933   1.079   5.971  12.237 -0.3603 -0.4613  0.2231
 9173TIP3    H148934   1.129   6.004  12.311  1.7213 -1.1040 -0.8451
 9173TIP3    H248935   1.018   5.909  12.275 -1.4923  1.5337  1.7485
 9174TIP3   OH248936   0.252   0.290   3.520  0.1216  0.3042 -0.7068
 9174TIP3    H148937   0.331   0.236   3.518 -0.2056 -0.1379 -2.2674
 9174TIP3    H248938   0.229   0.303   3.428 -1.3617  0.8369 -0.2824
 9175TIP3   OH248939   3.268   3.276   3.796  0.4151  0.0564 -0.1806
 9175TIP3    H148940   3.206   3.211   3.830 -0.8708  0.7598 -1.1474
 9175TIP3    H248941   3.221   3.319   3.725  1.4057  1.7839  0.1860
 9176TIP3   OH248942   0.176   5.901   1.902 -0.4981  0.3696  0.1294
 9176TIP3    H148943   0.169   5.915   1.997 -2.5243 -0.0658  0.0681
 9176TIP3    H248944   0.121   5.824   1.885 -0.2007  0.4830 -1.4157
 9177TIP3   OH248945   1.281   4.897   1.737 -0.0065  0.2267  0.0464
 9177TIP3    H148946   1.220   4.824   1.749  1.6811 -1.4253 -1.0195
 9177TIP3    H248947   1.231   4.963   1.689 -2.0170  0.4240  2.3279
 9178TIP3   OH248948   1.536   4.875  12.924  0.1489  0.0331 -0.1505
 9178TIP3    H148949   1.628   4.848  12.930  0.0571 -0.2230  0.1267
 9178TIP3    H248950   1.496   4.811  12.865 -0.0921 -0.5066  0.5910
 9179TIP3   OH248951   6.023   5.892  13.858 -0.4443 -0.3455 -0.5394
 9179TIP3    H148952   6.001   5.957  13.792  2.4093  0.2319 -0.9833
 9179TIP3    H248953   6.043   5.943  13.936 -1.1496 -0.8637 -0.0190
 9180TIP3   OH248954   2.991   1.371  13.244  0.4979 -0.6018 -0.0984
 9180TIP3    H148955   3.046   1.447  13.226  0.2316 -0.2396  0.6118
 9180TIP3    H248956   3.024   1.337  13.327  1.2466 -1.8405 -0.8706
 9181TIP3   OH248957   1.556   4.682  12.502 -0.0288  0.2101  0.3091
 9181TIP3    H148958   1.504   4.715  12.429  0.3801 -1.6889 -0.8700
 9181TIP3    H248959   1.614   4.755  12.525  0.0936  0.7213 -1.5153
 9182TIP3   OH248960   0.745   2.405  17.238  0.5478 -0.3153 -0.7804
 9182TIP3    H148961   0.752   2.423  17.144 -0.0632 -1.5128 -1.0730
 9182TIP3    H248962   0.830   2.368  17.261  0.7509  0.1161 -0.8272
 9183TIP3   OH248963   3.156   3.713   3.915  0.4409 -0.0750  0.0778
 9183TIP3    H148964   3.242   3.724   3.956  0.0561  4.1336 -0.0125
 9183TIP3    H248965   3.174   3.669   3.832  2.3362 -0.4459  0.6672
 9184TIP3   OH248966   3.577   3.820  13.539 -0.2971  0.0907  0.0557
 9184TIP3    H148967   3.648   3.847  13.598  0.5167  0.9072 -1.2662
 9184TIP3    H248968   3.536   3.745  13.582  0.5935  0.3774  1.4182
 9185TIP3   OH248969   2.203   3.454   4.459  0.2321  0.0246  0.4596
 9185TIP3    H148970   2.224   3.540   4.421  0.4038  0.1427  0.8237
 9185TIP3    H248971   2.216   3.392   4.387  2.4302  0.0157  0.8516
 9186TIP3   OH248972   5.828   1.436  16.337 -0.6853  0.8373 -0.3099
 9186TIP3    H148973   5.901   1.449  16.398 -1.2044  0.4162  0.4167
 9186TIP3    H248974   5.761   1.392  16.390 -0.3767 -1.3839 -1.7344
 9187TIP3   OH248975   6.446   3.566   3.545 -0.2645 -0.1583 -0.3784
 9187TIP3    H148976   6.505   3.576   3.471 -0.6610  1.1131 -0.5296
 9187TIP3    H248977   6.475   3.632   3.608  0.2009 -1.3591  0.7021
 9188TIP3   OH248978   4.567   3.535   2.382 -0.0296  0.0844 -0.1423
 9188TIP3    H148979   4.504   3.604   2.402 -0.5817 -1.0497  2.2596
 9188TIP3    H248980   4.606   3.513   2.467  1.2133 -1.5173 -1.0983
 9189TIP3   OH248981   2.243   1.629  14.824  0.5189 -0.2464  0.3932
 9189TIP3    H148982   2.314   1.601  14.766  0.8686 -0.4776  0.9316
 9189TIP3    H248983   2.274   1.711  14.862  0.3285 -0.1414  0.3213
 9190TIP3   OH248984   4.268   1.658  16.343 -0.0486  0.2186 -0.3322
 9190TIP3    H148985   4.335   1.615  16.289  0.9006  0.2351  0.8081
 9190TIP3    H248986   4.205   1.589  16.363 -0.3902  0.2006 -1.4042
 9191TIP3   OH248987   5.815   2.130   4.002 -0.1447  0.3321 -0.0141
 9191TIP3    H148988   5.729   2.144   3.963 -1.0370 -0.6737  1.5418
 9191TIP3    H248989   5.856   2.064   3.945 -1.9120 -2.0392  1.3258
 9192TIP3   OH248990   4.094   2.621   5.158 -0.3278  0.2094  0.3258
 9192TIP3    H148991   4.166   2.661   5.110  0.3735 -0.5181  0.7542
 9192TIP3    H248992   4.103   2.655   5.247 -0.1276 -0.3832  0.5324
 9193TIP3   OH248993   4.262   4.945  12.044  0.4705 -0.2227 -0.1463
 9193TIP3    H148994   4.240   4.880  12.111  1.8799 -1.5293 -0.9166
 9193TIP3    H248995   4.244   4.901  11.961  0.3836  0.7686 -0.6627
 9194TIP3   OH248996   2.946   5.432   2.374  0.3998  0.2717  0.2302
 9194TIP3    H148997   2.884   5.500   2.401 -0.1711 -0.5166  0.9693
 9194TIP3    H248998   2.985   5.402   2.457 -0.2634 -1.1481  0.0317
 9195TIP3   OH248999   3.516   6.191   4.235 -0.2825 -0.0280 -0.0685
 9195TIP3    H149000   3.574   6.241   4.177 -0.0660  0.4815  0.5826
 9195TIP3    H249001   3.535   6.224   4.322  0.6821 -2.0702  0.5125
 9196TIP3   OH249002   6.145   6.202   4.343  0.0709  0.1943  0.2816
 9196TIP3    H149003   6.188   6.134   4.291 -1.9855 -0.7988 -0.1856
 9196TIP3    H249004   6.107   6.261   4.278 -3.0402 -1.3894  0.5799
 9197TIP3   OH249005   4.698   6.612   1.601  0.1486 -0.2582 -0.7794
 9197TIP3    H149006   4.719   6.575   1.516  1.0089 -1.2018 -0.1734
 9197TIP3    H249007   4.613   6.575   1.623 -0.7215  1.0788 -1.8359
 9198TIP3   OH249008   2.388   1.348  14.825 -0.5507  0.4476 -0.0068
 9198TIP3    H149009   2.460   1.344  14.888  0.1841 -3.1006 -0.9401
 9198TIP3    H249010   2.428   1.380  14.744 -0.3649 -0.0034 -0.0921
 9199TIP3   OH249011   5.703   6.159  12.179 -0.5346 -0.0560 -0.4263
 9199TIP3    H149012   5.746   6.074  12.178 -0.4206 -0.0134  0.5159
 9199TIP3    H249013   5.747   6.208  12.248 -0.9150  0.6049 -0.6421
 9200TIP3   OH249014   6.451   3.175  12.256 -0.2290  0.2348 -0.0332
 9200TIP3    H149015   6.472   3.134  12.340 -0.1196  0.4384  0.0374
 9200TIP3    H249016   6.361   3.204  12.265 -1.2836 -2.5584 -1.0739
 9201TIP3   OH249017   5.351   0.886  13.601  0.2984  0.4773 -0.2037
 9201TIP3    H149018   5.346   0.964  13.546  0.4697 -0.6616 -1.8840
 9201TIP3    H249019   5.264   0.879  13.639  0.2003  1.3373 -0.2515
 9202TIP3   OH249020   0.340   3.688  12.648 -0.0260 -0.5682 -0.3943
 9202TIP3    H149021   0.269   3.666  12.708 -0.4248 -1.0219 -1.0263
 9202TIP3    H249022   0.389   3.756  12.693  0.6046 -1.9862  1.1295
 9203TIP3   OH249023   1.980   2.040   1.531 -0.0522 -0.6190 -0.7734
 9203TIP3    H149024   1.943   2.047   1.619 -0.4452  1.5101 -1.0776
 9203TIP3    H249025   2.069   2.007   1.545 -0.4958 -1.3718  0.3272
 9204TIP3   OH249026   3.472   5.684  12.710 -0.9134  0.5709  0.0437
 9204TIP3    H149027   3.428   5.718  12.632 -0.9182 -0.2239 -0.3009
 9204TIP3    H249028   3.562   5.669  12.681 -1.2634 -1.1005 -0.2181
 9205TIP3   OH249029   2.184   3.896  12.959 -0.1395 -0.4673 -0.4115
 9205TIP3    H149030   2.212   3.863  13.044  1.1331 -2.7441 -1.6625
 9205TIP3    H249031   2.241   3.971  12.941  0.6306 -0.9450  0.0542
 9206TIP3   OH249032   3.175   0.155   3.076 -0.5503  0.4858 -0.3517
 9206TIP3    H149033   3.237   0.228   3.065  0.3836 -0.1040  0.9307
 9206TIP3    H249034   3.230   0.077   3.078 -1.4571 -0.1703 -0.5794
 9207TIP3   OH249035   2.397   3.791   1.786  0.3567 -0.1565  0.2826
 9207TIP3    H149036   2.304   3.771   1.772  0.3736 -1.6988  2.1676
 9207TIP3    H249037   2.403   3.885   1.772 -1.6905  0.1216  1.0184
 9208TIP3   OH249038   5.229   1.996   2.300  0.1410  0.8330 -0.4952
 9208TIP3    H149039   5.220   1.942   2.221 -2.0925  1.4878 -0.7033
 9208TIP3    H249040   5.185   1.945   2.368  1.3524  0.6560  0.1801
 9209TIP3   OH249041   6.155   1.557   0.939  0.2038 -0.4369  0.7705
 9209TIP3    H149042   6.123   1.630   0.887  0.5306 -0.6867  0.2102
 9209TIP3    H249043   6.087   1.491   0.934 -0.4728  0.1510  1.9832
 9210TIP3   OH249044   4.689   1.411  14.289 -0.0085 -0.1927  0.7691
 9210TIP3    H149045   4.772   1.370  14.263 -0.1453  0.1488 -0.2035
 9210TIP3    H249046   4.630   1.393  14.216 -0.1445  1.5248  0.4488
 9211TIP3   OH249047   4.486   0.342   3.945  0.1819  0.0317 -0.2383
 9211TIP3    H149048   4.408   0.365   3.996 -0.2963  1.8683 -1.7474
 9211TIP3    H249049   4.555   0.335   4.010 -0.9106 -0.0964  0.9408
 9212TIP3   OH249050   1.845   3.595   1.824 -0.5920 -0.0043 -0.1510
 9212TIP3    H149051   1.796   3.676   1.819  2.5368  1.8492 -3.2185
 9212TIP3    H249052   1.905   3.598   1.749  3.0839 -2.7951  2.4426
 9213TIP3   OH249053   1.497   4.979   3.856  0.2027 -0.2856 -0.1257
 9213TIP3    H149054   1.507   4.970   3.761  0.0420 -2.5927  0.0589
 9213TIP3    H249055   1.559   5.049   3.879 -0.8067  1.3362 -2.0895
 9214TIP3   OH249056   1.981   1.192  15.023 -0.2454  0.4813  0.3588
 9214TIP3    H149057   2.034   1.262  14.985  0.8054 -0.2472  0.4604
 9214TIP3    H249058   1.891   1.213  14.996  0.3008  0.7553 -1.3221
 9215TIP3   OH249059   3.442   6.362   6.283  0.0514 -0.0144  0.1863
 9215TIP3    H149060   3.387   6.291   6.250  0.7185 -0.5331  0.1802
 9215TIP3    H249061   3.420   6.437   6.226 -0.0682 -0.4315 -0.3238
 9216TIP3   OH249062   5.350   4.965  13.930 -0.2583  0.4757  0.1443
 9216TIP3    H149063   5.282   4.927  13.986 -1.4063  0.4174 -1.2386
 9216TIP3    H249064   5.389   5.034  13.983 -2.0194  1.1110  0.6646
 9217TIP3   OH249065   3.237   2.880   6.228 -0.0467 -0.4220 -0.6438
 9217TIP3    H149066   3.254   2.932   6.150  1.2270  1.9075  1.1411
 9217TIP3    H249067   3.147   2.903   6.252 -0.4479 -1.1580 -1.4184
 9218TIP3   OH249068   1.389   1.951   6.083  0.2879 -0.7486 -0.0687
 9218TIP3    H149069   1.323   2.020   6.076  0.1377 -0.8092  0.6595
 9218TIP3    H249070   1.425   1.961   6.171  0.2263 -1.6330  0.0659
 9219TIP3   OH249071   3.578   2.318  12.286 -0.1285  0.6683 -0.2268
 9219TIP3    H149072   3.583   2.400  12.237  2.2228  0.6725 -0.0268
 9219TIP3    H249073   3.604   2.251  12.223 -0.7425  0.2383 -0.0212
 9220TIP3   OH249074   0.792   3.977  15.658 -0.6138  0.5065  0.0057
 9220TIP3    H149075   0.833   3.959  15.574 -0.0916  2.0262 -0.0704
 9220TIP3    H249076   0.847   3.930  15.722 -0.8706 -0.4400 -0.4601
 9221TIP3   OH249077   2.227   2.978  14.251  0.6011  0.1434  0.0695
 9221TIP3    H149078   2.321   2.994  14.252  0.4612  0.9372  0.8086
 9221TIP3    H249079   2.195   3.025  14.174  0.8919 -0.6437 -0.5434
 9222TIP3   OH249080   2.859   4.028   4.712 -0.0751 -0.2521  0.1351
 9222TIP3    H149081   2.927   3.962   4.729  0.5747 -0.2367 -2.1954
 9222TIP3    H249082   2.907   4.105   4.683 -0.9838  0.3209  0.1394
 9223TIP3   OH249083   1.672   1.088   0.274 -0.4009  0.4302  0.2106
 9223TIP3    H149084   1.586   1.102   0.233 -1.0749  0.6341  1.6501
 9223TIP3    H249085   1.715   1.174   0.268  0.2889 -0.0404 -1.8026
 9224TIP3   OH249086   2.339   0.845   2.623  0.6343 -0.0483 -0.0300
 9224TIP3    H149087   2.247   0.871   2.631  0.2673 -0.9934 -1.0688
 9224TIP3    H249088   2.376   0.909   2.562  0.5972  0.1226  0.1228
 9225TIP3   OH249089   5.721   0.574  15.705  0.0036  0.2423  0.3305
 9225TIP3    H149090   5.676   0.520  15.771 -0.7527  1.0585  0.4967
 9225TIP3    H249091   5.806   0.594  15.745 -0.5714  0.9964  1.2119
 9226TIP3   OH249092   6.471   3.136   1.746 -0.1876 -0.0417  0.2345
 9226TIP3    H149093   6.541   3.115   1.807 -1.0436 -1.7258  0.6788
 9226TIP3    H249094   6.397   3.159   1.801 -0.6165 -0.4153 -0.1836
 9227TIP3   OH249095   1.645   5.183  17.138  0.0810 -0.3546  0.2818
 9227TIP3    H149096   1.682   5.271  17.126 -1.0936  0.4176  2.0968
 9227TIP3    H249097   1.563   5.185  17.088 -0.2391 -0.2106  0.8090
 9228TIP3   OH249098   5.478   5.955  10.922  0.5795  0.1980 -0.4884
 9228TIP3    H149099   5.468   5.861  10.929  1.6485  0.2304  1.9427
 9228TIP3    H249100   5.403   5.992  10.968 -0.6729  0.5631 -2.7801
 9229TIP3   OH249101   3.378   3.320  15.699 -0.4809  0.0723 -0.4024
 9229TIP3    H149102   3.362   3.388  15.764 -0.3835 -0.7812  0.5186
 9229TIP3    H249103   3.302   3.323  15.642  0.1711  1.9162 -1.2320
 9230TIP3   OH249104   3.436   1.650  13.367 -0.0930 -0.5715 -0.1268
 9230TIP3    H149105   3.352   1.658  13.320  0.9864  1.0773 -1.8697
 9230TIP3    H249106   3.498   1.623  13.300  1.4072  1.3915  0.4115
 9231TIP3   OH249107   2.461   3.877   1.367  0.2343  0.0780  0.0865
 9231TIP3    H149108   2.532   3.939   1.382  0.1495  0.4155 -0.8638
 9231TIP3    H249109   2.423   3.863   1.454  0.8237  0.6692  0.4463
 9232TIP3   OH249110   3.362   3.822   5.121  0.3361  0.0091 -0.2370
 9232TIP3    H149111   3.340   3.907   5.158 -2.1651 -0.6720 -0.0458
 9232TIP3    H249112   3.441   3.795   5.168  1.1114  2.1850 -0.2651
 9233TIP3   OH249113   5.938   1.810  11.033  0.1445 -0.2619  0.3087
 9233TIP3    H149114   5.891   1.840  10.955 -1.4359  0.8958  1.6643
 9233TIP3    H249115   6.029   1.837  11.019 -0.1827  0.1844 -1.0007
 9234TIP3   OH249116   0.909   0.535  17.233 -0.5624 -0.5468 -0.0203
 9234TIP3    H149117   0.952   0.504  17.153  2.4832  1.6277  0.6967
 9234TIP3    H249118   0.957   0.493  17.304  0.7160  2.2102  0.8081
 9235TIP3   OH249119   4.478   4.560   4.528  0.1779 -0.8813  0.0157
 9235TIP3    H149120   4.393   4.574   4.570 -0.5253 -2.0898 -0.9759
 9235TIP3    H249121   4.501   4.645   4.490 -1.1954 -0.8541 -0.7849
 9236TIP3   OH249122   4.444   4.320  13.924  0.2951 -0.7277  0.7494
 9236TIP3    H149123   4.389   4.326  14.002 -0.3469  1.2429  0.1752
 9236TIP3    H249124   4.387   4.278  13.859 -0.1683  0.3236  0.4726
 9237TIP3   OH249125   0.794   0.858   3.654 -0.0693  0.1428 -0.0860
 9237TIP3    H149126   0.850   0.832   3.727 -1.6985  0.9378  1.4960
 9237TIP3    H249127   0.796   0.954   3.655  2.0827  0.2132 -2.8668
 9238TIP3   OH249128   1.847   5.621  16.960 -0.1956  0.2299  0.7695
 9238TIP3    H149129   1.779   5.687  16.970  0.2418  0.6605  0.9140
 9238TIP3    H249130   1.877   5.631  16.869 -1.0583 -0.6733  0.3792
 9239TIP3   OH249131   6.420   6.298   0.713 -0.1909 -0.2848 -0.7878
 9239TIP3    H149132   6.445   6.212   0.681 -2.6518 -1.1983 -0.3709
 9239TIP3    H249133   6.337   6.284   0.759 -0.1451  2.1350  0.1440
 9240TIP3   OH249134   0.854   3.546  14.004 -0.4774  0.1609 -0.1969
 9240TIP3    H149135   0.947   3.557  14.023 -0.2848 -1.2406 -0.2672
 9240TIP3    H249136   0.810   3.558  14.088 -0.1985  0.5284 -0.1044
 9241TIP3   OH249137   3.680   6.319   3.781  0.0193 -0.2897  0.0503
 9241TIP3    H149138   3.657   6.401   3.736 -0.2990 -0.5832 -0.3229
 9241TIP3    H249139   3.651   6.250   3.722 -0.6131 -0.6817  0.8142
 9242TIP3   OH249140   4.359   0.238   3.329  0.1217  0.0510  0.0995
 9242TIP3    H149141   4.393   0.245   3.418  1.9709 -2.2792 -0.3826
 9242TIP3    H249142   4.436   0.225   3.274 -1.1528 -0.4974 -1.6254
 9243TIP3   OH249143   5.362   0.431   5.817  0.0174  0.3363 -0.3417
 9243TIP3    H149144   5.345   0.520   5.848 -1.5068 -0.3211  0.8244
 9243TIP3    H249145   5.409   0.389   5.890 -1.3691 -0.4918  0.0972
 9244TIP3   OH249146   1.518   2.872   4.573 -0.0801 -0.6929 -1.1710
 9244TIP3    H149147   1.450   2.897   4.511 -0.3244  5.0879  1.0776
 9244TIP3    H249148   1.472   2.859   4.656  1.2282  2.4728  0.1872
 9245TIP3   OH249149   2.529   2.777  14.369  0.3230 -0.0843 -0.0424
 9245TIP3    H149150   2.539   2.772  14.464  0.1030  0.4458  0.0107
 9245TIP3    H249151   2.507   2.868  14.352 -1.3379 -0.5279 -0.4388
 9246TIP3   OH249152   4.523   1.903   4.439  0.0399 -0.1522 -0.0749
 9246TIP3    H149153   4.557   1.827   4.393  0.1193  0.0097 -0.2817
 9246TIP3    H249154   4.494   1.869   4.524  1.7934 -0.0699  0.5608
 9247TIP3   OH249155   2.596   6.196   5.755  0.5216  0.0972  0.5723
 9247TIP3    H149156   2.667   6.140   5.784 -0.5119 -2.7849 -2.1923
 9247TIP3    H249157   2.527   6.184   5.820  0.2508 -2.0038 -0.0767
 9248TIP3   OH249158   5.510   4.791  13.392  0.8293  0.6637 -0.2449
 9248TIP3    H149159   5.460   4.805  13.311  1.0584  0.0451 -0.4981
 9248TIP3    H249160   5.536   4.699  13.388  0.5953  0.5582  0.6733
 9249TIP3   OH249161   2.153   0.713  11.141 -0.0291  0.1243  0.1967
 9249TIP3    H149162   2.146   0.784  11.078 -0.0087 -0.0615 -0.0147
 9249TIP3    H249163   2.066   0.674  11.145 -0.2597  0.6964  0.9437
 9250TIP3   OH249164   3.593   6.346   3.047  0.0735  0.1401 -0.1880
 9250TIP3    H149165   3.569   6.254   3.063  0.5205 -0.1355 -1.0512
 9250TIP3    H249166   3.681   6.341   3.010  1.1300  1.0680  2.0648
 9251TIP3   OH249167   0.948   5.657   5.641 -0.2645  0.2480  0.2113
 9251TIP3    H149168   0.983   5.709   5.569 -0.9933  0.7365  0.2139
 9251TIP3    H249169   0.884   5.599   5.600 -0.9706  0.8056  0.5301
 9252TIP3   OH249170   4.520   1.747   0.985 -0.2720  0.5148  0.0083
 9252TIP3    H149171   4.497   1.659   0.955 -3.1708  1.6490 -1.2710
 9252TIP3    H249172   4.437   1.785   1.015  1.2307  2.2072  2.1963
 9253TIP3   OH249173   1.133   0.975  16.163 -0.4028  0.4172  0.2281
 9253TIP3    H149174   1.043   0.952  16.142 -0.5238  1.0381  0.0516
 9253TIP3    H249175   1.126   1.057  16.212  0.0458  0.3175  0.4608
 9254TIP3   OH249176   5.673   0.335   5.570  0.2420 -0.3908  0.2734
 9254TIP3    H149177   5.673   0.282   5.650 -0.5398 -2.1732 -0.8718
 9254TIP3    H249178   5.598   0.394   5.580  0.7744  0.1182  1.3101
 9255TIP3   OH249179   6.646   2.226   5.239 -0.5193 -0.0554  0.1568
 9255TIP3    H149180   6.636   2.180   5.322 -2.3454 -0.7986 -0.4422
 9255TIP3    H249181   6.558   2.257   5.218 -0.0668  0.1859 -1.4490
 9256TIP3   OH249182   0.899   3.047   4.955 -0.4445 -0.3773  0.3007
 9256TIP3    H149183   0.869   2.959   4.931  2.2478 -1.7100  1.5254
 9256TIP3    H249184   0.962   3.032   5.026  0.3073  2.5249  0.3167
 9257TIP3   OH249185   2.016   2.019  10.690 -0.0144  0.1033  0.4743
 9257TIP3    H149186   2.085   2.060  10.742  0.5431  1.5916 -1.3834
 9257TIP3    H249187   2.059   1.943  10.650  0.6074  1.0878 -0.7656
 9258TIP3   OH249188   1.378   0.052  10.941 -0.4954  0.7674  0.1077
 9258TIP3    H149189   1.342   0.140  10.950  2.2859  2.0635 -0.7910
 9258TIP3    H249190   1.421   0.034  11.025 -0.9416  0.3142  0.2436
 9259TIP3   OH249191   3.010   3.023  16.184 -0.3264  0.1590  0.3977
 9259TIP3    H149192   2.923   3.043  16.149 -0.7864  2.0443  2.4987
 9259TIP3    H249193   2.996   2.946  16.240 -0.4789  0.0148  0.1676
 9260TIP3   OH249194   5.122   1.631   3.159  0.0643 -0.0375  0.0678
 9260TIP3    H149195   5.095   1.639   3.250  0.4490  1.0875  0.0889
 9260TIP3    H249196   5.075   1.554   3.127 -1.1574  0.3788  0.8180
 9261TIP3   OH249197   5.689   3.068  12.253 -0.3925 -0.2845  0.4141
 9261TIP3    H149198   5.723   3.021  12.177 -0.4015  0.8862 -0.3267
 9261TIP3    H249199   5.767   3.088  12.305 -0.2953 -0.3578  0.2975
 9262TIP3   OH249200   0.808   3.158  14.612  0.5782  0.1547  0.1064
 9262TIP3    H149201   0.739   3.098  14.640 -0.1147  1.6606  1.7446
 9262TIP3    H249202   0.820   3.139  14.519 -1.4233 -0.7425 -0.0004
 9263TIP3   OH249203   5.081   4.532   0.409 -0.4477  0.2725  0.2310
 9263TIP3    H149204   5.079   4.625   0.430 -2.4436  0.2534  0.2397
 9263TIP3    H249205   5.040   4.526   0.322 -0.6021 -0.6212  0.3589
 9264TIP3   OH249206   4.860   5.637  13.633 -0.5779 -0.5140  0.2194
 9264TIP3    H149207   4.849   5.641  13.728  2.2828 -0.2053  0.5679
 9264TIP3    H249208   4.856   5.544  13.612 -0.7429 -0.6120  0.6749
 9265TIP3   OH249209   5.092   0.296   4.837 -0.2191  0.2159  0.8888
 9265TIP3    H149210   5.142   0.240   4.778 -1.2279 -0.2309  0.4322
 9265TIP3    H249211   5.045   0.235   4.894 -2.0072  0.5370 -0.1845
 9266TIP3   OH249212   5.928   3.735  10.804  0.2441 -0.1092 -0.3577
 9266TIP3    H149213   5.862   3.802  10.786  2.2208  1.9124 -0.3248
 9266TIP3    H249214   5.940   3.689  10.721 -2.4395 -1.6861  0.0696
 9267TIP3   OH249215   3.610   4.695  11.840 -0.0802 -0.7589 -0.3180
 9267TIP3    H149216   3.571   4.725  11.758  0.6206  0.4441 -0.2241
 9267TIP3    H249217   3.680   4.758  11.858 -0.3628 -0.8748  1.3167
 9268TIP3   OH249218   1.727   3.445  17.197 -0.4236  0.1154 -0.1367
 9268TIP3    H149219   1.797   3.479  17.141  0.6668 -0.9535  0.5404
 9268TIP3    H249220   1.762   3.363  17.232 -1.1672  0.6258  1.8920
 9269TIP3   OH249221   5.430   4.841   2.449  0.0746 -0.2301  0.2230
 9269TIP3    H149222   5.388   4.917   2.407  0.3383 -0.6035 -0.7478
 9269TIP3    H249223   5.505   4.878   2.496  0.5539  0.0619 -0.7359
 9270TIP3   OH249224   1.500   6.511   0.778  0.2217  0.5914 -0.7992
 9270TIP3    H149225   1.471   6.421   0.764  0.4018  0.6539 -1.5902
 9270TIP3    H249226   1.425   6.554   0.819 -0.8955  0.8059 -3.0115
 9271TIP3   OH249227   0.645   2.021   2.692  0.2709 -0.2143 -0.0119
 9271TIP3    H149228   0.581   1.959   2.726  0.0116 -0.2236 -0.5017
 9271TIP3    H249229   0.692   2.054   2.769 -0.3032 -0.2304  0.3419
 9272TIP3   OH249230   3.579   6.504   2.808  0.2201 -0.1666 -0.2713
 9272TIP3    H149231   3.613   6.552   2.883 -0.5173  0.8881 -0.6035
 9272TIP3    H249232   3.652   6.449   2.780  0.4086 -0.8272  1.4188
 9273TIP3   OH249233   3.388   1.955   3.076  1.0093  0.1308  0.5104
 9273TIP3    H149234   3.341   1.874   3.053  2.0215 -0.2438 -0.2816
 9273TIP3    H249235   3.431   1.935   3.159  0.7993  0.0521  0.6013
 9274TIP3   OH249236   2.878   6.394  11.056  0.0655  0.0082  0.0335
 9274TIP3    H149237   2.907   6.353  10.975 -1.7093  1.0740 -1.1707
 9274TIP3    H249238   2.840   6.478  11.028 -0.5227  0.4045  1.9724
 9275TIP3   OH249239   0.774   4.334  11.144 -0.9502 -0.0595 -0.4272
 9275TIP3    H149240   0.813   4.378  11.069  0.3456 -0.3740  0.0486
 9275TIP3    H249241   0.683   4.321  11.120 -0.3465 -0.9711 -2.3233
 9276TIP3   OH249242   1.377   3.793  15.506 -0.4015  0.0893 -0.1978
 9276TIP3    H149243   1.415   3.777  15.592 -0.5216 -0.6107 -0.2735
 9276TIP3    H249244   1.298   3.740  15.504 -0.3147 -0.0247 -0.8019
 9277TIP3   OH249245   5.256   0.482  16.639 -0.1132 -0.5106 -0.1006
 9277TIP3    H149246   5.335   0.536  16.647 -0.3439 -0.0958 -0.6225
 9277TIP3    H249247   5.287   0.400  16.601  0.1738 -0.6071  0.3286
 9278TIP3   OH249248   6.365   1.121  10.807 -0.1884 -0.4661 -0.0527
 9278TIP3    H149249   6.452   1.123  10.847 -0.5978  1.5352  0.7759
 9278TIP3    H249250   6.327   1.039  10.838  1.4904 -1.5104 -0.6528
 9279TIP3   OH249251   1.875   5.574   4.238 -0.4348  0.8004  0.5398
 9279TIP3    H149252   1.904   5.586   4.328 -0.7392 -0.3973  0.7955
 9279TIP3    H249253   1.900   5.484   4.215 -0.0304  1.2050 -0.6956
 9280TIP3   OH249254   3.118   5.764  14.019  0.4521 -0.3761  0.2502
 9280TIP3    H149255   3.030   5.800  14.015  0.0114 -1.6322 -2.6149
 9280TIP3    H249256   3.106   5.673  14.045  0.6520 -1.2105 -2.4527
 9281TIP3   OH249257   3.968   0.397  16.804  0.0676 -0.1327 -0.2925
 9281TIP3    H149258   3.931   0.315  16.835  1.4634 -0.4460  0.5735
 9281TIP3    H249259   4.051   0.406  16.851 -0.1008  1.8080 -0.3143
 9282TIP3   OH249260   5.577   2.203  14.328  0.2912 -0.2673  0.1380
 9282TIP3    H149261   5.554   2.127  14.383 -1.4876  1.1546  1.4310
 9282TIP3    H249262   5.667   2.224  14.354  0.0981 -0.7129  1.2129
 9283TIP3   OH249263   1.393   0.366   1.295 -0.4323 -0.0040 -0.5432
 9283TIP3    H149264   1.349   0.376   1.211  0.1451  0.1666 -0.8242
 9283TIP3    H249265   1.404   0.456   1.327  0.2146 -0.0137 -0.7331
 9284TIP3   OH249266   0.425   1.544  14.600  0.6121  0.0371  0.1292
 9284TIP3    H149267   0.342   1.572  14.563  0.7217 -0.6973 -0.6714
 9284TIP3    H249268   0.477   1.517  14.525  0.4587 -2.4577  0.8868
 9285TIP3   OH249269   0.966   6.272  13.540 -0.2792  0.1555 -0.1794
 9285TIP3    H149270   0.960   6.354  13.490 -1.3082  0.9377  1.1908
 9285TIP3    H249271   1.047   6.281  13.591 -1.7602  1.5585  2.0378
 9286TIP3   OH249272   4.313   0.043   0.728 -0.0754 -0.0205 -0.3707
 9286TIP3    H149273   4.326   0.069   0.637  2.2193 -0.9312 -0.3328
 9286TIP3    H249274   4.263   0.114   0.767 -2.6573 -0.4118 -2.7612
 9287TIP3   OH249275   1.010   0.079   6.044 -0.1280 -0.4972 -0.2402
 9287TIP3    H149276   0.992   0.170   6.066  0.8931 -0.2955 -0.2167
 9287TIP3    H249277   1.005   0.076   5.949  1.2552 -0.0951 -0.3392
 9288TIP3   OH249278   2.417   0.117  13.826  0.1887 -0.4243  0.0320
 9288TIP3    H149279   2.476   0.125  13.751 -0.3843  0.5614 -0.3266
 9288TIP3    H249280   2.336   0.084  13.789 -0.5368  1.3696 -0.0132
 9289TIP3   OH249281   4.226   4.113   0.231 -0.0812 -0.3736  0.5519
 9289TIP3    H149282   4.272   4.072   0.305 -0.5228 -1.8362  0.0213
 9289TIP3    H249283   4.296   4.154   0.180  0.2116  0.8016  1.8730
 9290TIP3   OH249284   4.695   5.497  15.785  0.4523 -0.3114 -0.0989
 9290TIP3    H149285   4.646   5.449  15.718  2.0157  0.9560 -2.2245
 9290TIP3    H249286   4.754   5.431  15.823 -1.2611 -1.3125  0.8978
 9291TIP3   OH249287   2.500   6.376  11.307 -0.1747 -0.0767 -0.1856
 9291TIP3    H149288   2.489   6.309  11.239  0.1977 -2.6380  2.1750
 9291TIP3    H249289   2.476   6.332  11.389  0.0574  2.7017  1.4664
 9292TIP3   OH249290   5.837   6.657  14.710  0.3342 -0.0502  0.5280
 9292TIP3    H149291   5.768   6.591  14.722 -0.6482  0.9291  0.3654
 9292TIP3    H249292   5.897   6.642  14.782 -0.3451 -0.5809  0.9899
 9293TIP3   OH249293   0.876   2.928   0.200  0.6336 -0.3103  0.1132
 9293TIP3    H149294   0.964   2.965   0.192  1.0757 -1.8803 -3.2816
 9293TIP3    H249295   0.874   2.857   0.135 -3.4787  0.3554 -0.6287
 9294TIP3   OH249296   6.425   1.137  11.711  0.3303  0.1079 -0.4601
 9294TIP3    H149297   6.388   1.052  11.734  0.3363 -0.0484 -1.0307
 9294TIP3    H249298   6.450   1.175  11.795  1.1132 -0.8132 -0.2731
 9295TIP3   OH249299   1.626   6.751   0.703  0.8890  0.2074 -0.1308
 9295TIP3    H149300   1.596   6.662   0.720  1.4650  0.0207 -0.0684
 9295TIP3    H249301   1.650   6.785   0.789  0.3816  0.5291 -0.1165
 9296TIP3   OH249302   0.636   4.343  12.621 -0.2997 -0.6921 -0.1323
 9296TIP3    H149303   0.687   4.321  12.699  0.2624 -1.0369 -0.5935
 9296TIP3    H249304   0.551   4.301  12.635 -0.4558 -0.1367  0.6277
 9297TIP3   OH249305   2.998   6.436  14.669  0.4220 -0.0621  0.2499
 9297TIP3    H149306   2.991   6.410  14.760  1.2854 -0.3899  0.2244
 9297TIP3    H249307   2.981   6.530  14.669 -0.8738 -0.2806  0.5721
 9298TIP3   OH249308   4.421   4.575   2.778 -0.1338 -0.0766  0.4943
 9298TIP3    H149309   4.464   4.558   2.695  0.4898 -0.2407  0.8518
 9298TIP3    H249310   4.328   4.580   2.756  0.1779  1.6494 -0.4843
 9299TIP3   OH249311   6.579   1.361   1.430 -0.7103  0.2569 -0.1870
 9299TIP3    H149312   6.555   1.405   1.349 -0.9523  0.6565  0.1035
 9299TIP3    H249313   6.512   1.388   1.493  0.3996  1.2465  0.5877
 9300TIP3   OH249314   1.883   0.320  17.124 -0.0962 -0.2914  0.5425
 9300TIP3    H149315   1.834   0.353  17.199 -1.1839  1.7149 -1.0347
 9300TIP3    H249316   1.818   0.275  17.070  0.0519  1.1684 -0.8660
 9301TIP3   OH249317   1.783   3.827   2.438  0.5335 -0.5743  0.1402
 9301TIP3    H149318   1.818   3.739   2.422  0.3098 -0.6728  0.1845
 9301TIP3    H249319   1.689   3.813   2.453  0.6305 -0.4151  0.9138
 9302TIP3   OH249320   1.089   1.235  15.531 -0.4540  0.3603 -0.0792
 9302TIP3    H149321   1.129   1.307  15.578 -1.1516  1.0284 -0.4982
 9302TIP3    H249322   0.995   1.254  15.533 -0.5724 -0.0859 -0.9192
 9303TIP3   OH249323   0.907   6.109  14.051 -0.2462  0.2805 -0.8415
 9303TIP3    H149324   0.825   6.084  14.009 -0.7591 -0.1596  0.3865
 9303TIP3    H249325   0.889   6.099  14.145  0.5112  2.2769 -0.4545
 9304TIP3   OH249326   5.629   2.851   5.666  0.1943  0.6417  0.4954
 9304TIP3    H149327   5.541   2.888   5.668  0.2667  0.8118  0.5927
 9304TIP3    H249328   5.660   2.869   5.577  0.6033  1.7074  0.8400
 9305TIP3   OH249329   5.169   0.081   5.441  0.0166  0.1883 -0.1015
 9305TIP3    H149330   5.132   0.167   5.422 -2.1230 -0.6751 -0.0701
 9305TIP3    H249331   5.104   0.040   5.499  0.8936 -1.5317 -0.3012
 9306TIP3   OH249332   4.088   6.390  12.596 -0.3243 -0.2594  0.3980
 9306TIP3    H149333   4.105   6.398  12.502  0.5049  0.5833  0.6141
 9306TIP3    H249334   4.057   6.300  12.607  1.0684 -0.8560 -0.4415
 9307TIP3   OH249335   6.146   4.514  15.176 -0.3896 -0.1747  0.1210
 9307TIP3    H149336   6.220   4.472  15.131 -0.8698 -0.6455 -0.2338
 9307TIP3    H249337   6.121   4.587  15.119 -1.0535 -0.8241 -0.4225
 9308TIP3   OH249338   6.532   4.283  13.584  0.0707  0.0211 -0.1142
 9308TIP3    H149339   6.524   4.371  13.548  0.3999 -0.5971 -1.6990
 9308TIP3    H249340   6.552   4.227  13.509  1.4019 -1.1804  1.0997
 9309TIP3   OH249341   2.588   0.331  12.652 -0.1429 -0.1995  0.0416
 9309TIP3    H149342   2.625   0.402  12.600 -0.6139 -0.5433 -0.7843
 9309TIP3    H249343   2.584   0.365  12.741 -0.2138  0.7495 -0.3187
 9310TIP3   OH249344   6.505   1.607   2.435  0.6243  0.0218 -0.8364
 9310TIP3    H149345   6.526   1.592   2.527 -0.0975  1.0872 -0.4895
 9310TIP3    H249346   6.480   1.521   2.401 -1.4395  0.0230  0.5812
 9311TIP3   OH249347   6.390   6.024  14.673  0.7319 -0.1737 -0.1671
 9311TIP3    H149348   6.305   6.047  14.636  0.5423  0.1265  0.4518
 9311TIP3    H249349   6.424   6.106  14.708  1.7268 -0.0836 -1.2962
 9312TIP3   OH249350   4.657   5.384   1.640 -0.5025 -0.4175 -0.0008
 9312TIP3    H149351   4.638   5.462   1.692  0.8927 -0.6629  0.9078
 9312TIP3    H249352   4.610   5.313   1.685 -0.1218 -0.4519  0.3443
 9313TIP3   OH249353   0.735   6.122  16.674  0.0145  0.3264 -0.2571
 9313TIP3    H149354   0.788   6.167  16.608 -0.1855 -0.5554 -1.0295
 9313TIP3    H249355   0.774   6.035  16.680  1.2651  1.0277  2.2378
 9314TIP3   OH249356   0.500   2.324   1.764 -0.3168 -0.4160  0.0662
 9314TIP3    H149357   0.477   2.410   1.730 -0.0537 -0.0653  0.7599
 9314TIP3    H249358   0.456   2.262   1.705 -0.4579  0.1857 -0.4701
 9315TIP3   OH249359   6.228   0.022  17.005 -0.3820 -0.7527  0.0343
 9315TIP3    H149360   6.319   0.045  16.987 -0.6725  0.3696  0.0023
 9315TIP3    H249361   6.231  -0.022  17.090  0.1149 -0.1911  0.3096
 9316TIP3   OH249362   1.650   2.460  12.495 -0.1463 -0.9240  0.2069
 9316TIP3    H149363   1.578   2.398  12.485  0.3283 -1.3159 -0.8461
 9316TIP3    H249364   1.703   2.448  12.417  0.2156  0.4785  0.2238
 9317TIP3   OH249365   1.152   0.442   1.895  0.4282  0.6092 -0.1408
 9317TIP3    H149366   1.083   0.426   1.959 -1.2374  0.7454 -1.8340
 9317TIP3    H249367   1.150   0.364   1.838  0.8291  1.1634 -0.9258
 9318TIP3   OH249368   0.663   6.003  13.927  0.1565  0.5708  0.2383
 9318TIP3    H149369   0.567   6.002  13.924  0.2028  1.2694 -2.8831
 9318TIP3    H249370   0.688   5.912  13.914 -0.0572  0.4434  0.6942
 9319TIP3   OH249371   2.199   5.343   2.678 -0.1064  0.1351  0.4352
 9319TIP3    H149372   2.259   5.396   2.730 -0.3788  1.4857 -0.6022
 9319TIP3    H249373   2.252   5.309   2.606 -0.4362  0.8956 -0.1826
 9320TIP3   OH249374   4.371   4.243  11.175  0.2837 -0.6409 -0.0054
 9320TIP3    H149375   4.322   4.178  11.226  1.1595  0.2626  2.0640
 9320TIP3    H249376   4.384   4.316  11.236  1.0616  0.6339 -1.6595
 9321TIP3   OH249377   5.231   0.795   1.139  0.1167 -0.4525 -0.2086
 9321TIP3    H149378   5.151   0.809   1.189  1.5825 -2.4885  2.8592
 9321TIP3    H249379   5.268   0.883   1.128 -0.9259  0.1608  1.0911
 9322TIP3   OH249380   6.137   3.025  13.301 -0.1189  0.2288  0.6884
 9322TIP3    H149381   6.082   2.955  13.336  0.0856 -0.1487  0.2555
 9322TIP3    H249382   6.226   2.990  13.307 -0.0560  0.2762  0.0542
 9323TIP3   OH249383   6.175   2.159   3.412  0.0451  0.0521 -0.0149
 9323TIP3    H149384   6.246   2.138   3.350 -0.3313  1.4215 -0.9388
 9323TIP3    H249385   6.097   2.121   3.372 -0.0998  0.4169 -0.0748
 9324TIP3   OH249386   5.646   3.912   5.017 -0.3715 -0.0326  0.5069
 9324TIP3    H149387   5.695   3.909   5.099 -1.5988  0.7463  1.2851
 9324TIP3    H249388   5.712   3.925   4.950  0.6255 -0.4258  1.3940
 9325TIP3   OH249389   5.060   5.752  14.107 -0.3954 -0.1880 -0.4729
 9325TIP3    H149390   5.060   5.842  14.139 -1.2784 -0.3436 -0.0025
 9325TIP3    H249391   5.090   5.700  14.181 -0.9919 -0.3947 -0.3712
 9326TIP3   OH249392   6.487   0.753   5.649  0.1290 -0.1396  1.0781
 9326TIP3    H149393   6.531   0.708   5.721  0.7814  0.0143  0.7788
 9326TIP3    H249394   6.416   0.802   5.691  0.1289 -0.5310  1.5374
 9327TIP3   OH249395   6.040   6.137   3.476  0.6993 -0.0112 -0.1412
 9327TIP3    H149396   6.075   6.048   3.468  0.3070 -0.1741 -0.0292
 9327TIP3    H249397   5.995   6.152   3.393  1.4672  0.3905 -0.4950
 9328TIP3   OH249398   3.328   1.390   0.450  0.0534  0.7239 -0.4426
 9328TIP3    H149399   3.299   1.303   0.476  0.0755  0.6123 -0.7865
 9328TIP3    H249400   3.249   1.433   0.417 -0.2717  1.3686  1.1345
 9329TIP3   OH249401   2.318   4.341   5.665  0.1183 -0.4746  0.4734
 9329TIP3    H149402   2.341   4.251   5.643 -0.2932 -0.1208 -1.4927
 9329TIP3    H249403   2.403   4.384   5.679  0.3001 -1.2819  2.0529
 9330TIP3   OH249404   0.244   5.859  10.400 -0.3310  0.7767 -0.4659
 9330TIP3    H149405   0.180   5.926  10.377 -0.8459 -0.3040 -2.3019
 9330TIP3    H249406   0.206   5.815  10.476 -0.9044  1.3389 -0.4277
 9331TIP3   OH249407   1.202   4.022  15.644 -0.3657 -0.8148  0.2117
 9331TIP3    H149408   1.265   4.003  15.714  0.7030 -1.1349 -0.8257
 9331TIP3    H249409   1.150   4.095  15.678  0.9087 -0.1893  0.8769
 9332TIP3   OH249410   3.430   2.028   2.675 -0.0286 -0.2023 -0.1813
 9332TIP3    H149411   3.395   1.939   2.682 -1.7520  0.2882 -2.1093
 9332TIP3    H249412   3.523   2.015   2.655  0.1951 -1.5334  1.5984
 9333TIP3   OH249413   5.959   0.742   3.382 -0.4004 -0.1203 -0.0416
 9333TIP3    H149414   5.885   0.683   3.373 -0.8639  0.8443 -3.3370
 9333TIP3    H249415   6.035   0.690   3.356 -0.0434 -0.7346  2.1123
 9334TIP3   OH249416   0.315   3.301   3.012  0.4176  0.1071 -0.5389
 9334TIP3    H149417   0.408   3.279   3.018  0.2903 -0.0941  0.8154
 9334TIP3    H249418   0.270   3.219   3.036 -0.0957  0.3997 -0.5026
 9335TIP3   OH249419   3.738   6.038   1.545  0.7097  0.0331  0.7616
 9335TIP3    H149420   3.690   6.121   1.543  1.7548  0.6674  1.1995
 9335TIP3    H249421   3.751   6.016   1.453  1.3806  0.9395  0.6237
 9336TIP3   OH249422   4.483   4.261   1.422 -0.4514 -0.1676  0.7799
 9336TIP3    H149423   4.439   4.304   1.496  0.1006  0.4106  0.7779
 9336TIP3    H249424   4.413   4.213   1.377 -1.6096  2.6535 -0.6007
 9337TIP3   OH249425   0.123   5.017  13.384  0.5749 -0.4697  0.3537
 9337TIP3    H149426   0.046   5.061  13.348  1.2140  1.0858  0.8189
 9337TIP3    H249427   0.143   4.948  13.321 -0.1647  0.2311 -0.6670
 9338TIP3   OH249428   3.050   2.258  14.094  0.4315  0.1781 -0.6187
 9338TIP3    H149429   3.144   2.264  14.107  0.0004 -0.1610  3.5097
 9338TIP3    H249430   3.019   2.348  14.100  0.3183  0.0933  0.2767
 9339TIP3   OH249431   0.227   5.113   0.747 -0.2219 -0.0091  0.0504
 9339TIP3    H149432   0.158   5.084   0.687 -0.6674  1.0725  0.0167
 9339TIP3    H249433   0.235   5.207   0.730  0.8845 -0.0328  0.4450
 9340TIP3   OH249434   5.803   3.829  16.422  0.0965 -0.0562  0.2436
 9340TIP3    H149435   5.828   3.743  16.454 -0.0606 -0.0084  0.4978
 9340TIP3    H249436   5.717   3.815  16.381 -0.2361  0.1032  0.8715
 9341TIP3   OH249437   3.826   5.950  15.276 -0.5969 -0.0057 -0.4221
 9341TIP3    H149438   3.750   5.972  15.221 -1.2066 -0.7075  0.1310
 9341TIP3    H249439   3.788   5.918  15.358  0.3023  0.0368  0.0163
 9342TIP3   OH249440   3.699   2.654   3.662 -0.0209  0.2928 -0.2946
 9342TIP3    H149441   3.683   2.624   3.573  0.2835 -0.4476 -0.1034
 9342TIP3    H249442   3.704   2.574   3.714 -1.3405  0.7637  0.5763
 9343TIP3   OH249443   4.463   1.551   5.879  0.1727 -0.1910  0.1066
 9343TIP3    H149444   4.494   1.527   5.792  3.3973 -2.0245  1.6515
 9343TIP3    H249445   4.526   1.617   5.909 -0.5135 -0.0605  1.2840
 9344TIP3   OH249446   6.546   3.762   4.094 -0.1885 -0.2444 -0.5736
 9344TIP3    H149447   6.485   3.835   4.092 -1.5984 -1.3220  1.5705
 9344TIP3    H249448   6.633   3.803   4.099 -0.9232  1.2809 -0.1822
 9345TIP3   OH249449   6.331   6.116  11.158  0.1353 -0.1661  0.5542
 9345TIP3    H149450   6.368   6.032  11.129  2.2612  0.5837  0.9822
 9345TIP3    H249451   6.249   6.092  11.201  0.0493 -1.8984 -0.5153
 9346TIP3   OH249452   0.430   6.469  12.458  0.0168 -0.1799 -0.1793
 9346TIP3    H149453   0.517   6.427  12.453 -0.1883 -0.7455  0.7823
 9346TIP3    H249454   0.379   6.425  12.391  0.1623 -0.6324  0.0008
 9347TIP3   OH249455   3.081   3.228  12.383  0.7739  0.0980 -0.0003
 9347TIP3    H149456   3.020   3.219  12.456  0.4834 -0.2889 -0.2885
 9347TIP3    H249457   3.069   3.148  12.331  1.5367  0.0085 -0.0526
 9348TIP3   OH249458   2.435   0.445   4.463  0.0542  0.3147  0.1119
 9348TIP3    H149459   2.505   0.469   4.402  0.3146 -0.3456  0.1426
 9348TIP3    H249460   2.354   0.472   4.419  0.1989 -0.6787 -0.7933
 9349TIP3   OH249461   0.268   5.220  16.986 -0.0998  0.5626 -0.5227
 9349TIP3    H149462   0.354   5.184  16.966 -0.0211 -0.2344  1.1496
 9349TIP3    H249463   0.264   5.302  16.938  1.0828 -0.0224 -1.6479
 9350TIP3   OH249464   3.078   6.333  16.707  0.4021 -0.1809  0.4462
 9350TIP3    H149465   2.992   6.296  16.689 -1.2700  2.1131  3.3684
 9350TIP3    H249466   3.068   6.427  16.691  2.4809  0.0648  0.4592
 9351TIP3   OH249467   6.051   5.038  16.124  0.6829  0.8766 -0.3056
 9351TIP3    H149468   6.111   5.113  16.127  1.8274 -0.0886  3.1233
 9351TIP3    H249469   6.105   4.963  16.145 -1.1585 -0.4640 -0.2448
 9352TIP3   OH249470   3.715   3.605   3.330  0.5631 -0.1751  0.4317
 9352TIP3    H149471   3.677   3.521   3.304  1.1224 -0.3024  0.0146
 9352TIP3    H249472   3.732   3.650   3.247 -0.9915  0.9147  0.6857
 9353TIP3   OH249473   2.544   1.097  14.737  0.0762  0.2757  0.3189
 9353TIP3    H149474   2.477   1.164  14.743 -0.8245 -0.5854 -0.1140
 9353TIP3    H249475   2.507   1.021  14.782  0.0619 -0.7478 -1.3557
 9354TIP3   OH249476   0.735   1.327  16.656  0.1083  0.1753  0.4023
 9354TIP3    H149477   0.755   1.394  16.722  2.4155  0.0648 -0.1321
 9354TIP3    H249478   0.747   1.372  16.573  0.0405 -0.4591  0.0484
 9355TIP3   OH249479   0.090   6.435   5.875  0.4787 -0.0989 -0.0451
 9355TIP3    H149480   0.060   6.361   5.928 -1.0984 -0.7458 -1.7939
 9355TIP3    H249481   0.144   6.487   5.935  3.1098 -3.5450  0.7313
 9356TIP3   OH249482   3.449   1.646  16.128  0.2433  0.0596  0.3930
 9356TIP3    H149483   3.420   1.737  16.120  0.7098  0.0870 -1.0798
 9356TIP3    H249484   3.519   1.649  16.193 -0.7046  0.5244  1.4175
 9357TIP3   OH249485   0.622   0.740  13.031 -0.1078 -0.0730  0.1491
 9357TIP3    H149486   0.614   0.758  12.938  0.6743 -0.9639 -0.0957
 9357TIP3    H249487   0.632   0.827  13.071 -1.2355  0.3640 -0.5046
 9358TIP3   OH249488   0.284   0.580   0.072  0.2356  0.5300 -0.6301
 9358TIP3    H149489   0.345   0.589  -0.001  1.3515  1.9339  0.4458
 9358TIP3    H249490   0.215   0.643   0.054  1.0929  1.6882  0.0782
 9359TIP3   OH249491   0.316   4.335   3.092  0.8959  0.5456 -0.1355
 9359TIP3    H149492   0.235   4.294   3.060  1.3863  0.1505 -0.8718
 9359TIP3    H249493   0.339   4.398   3.024  2.0334 -0.4238 -0.6690
 9360TIP3   OH249494   3.174   1.778   5.007 -0.1144 -0.3646  0.6068
 9360TIP3    H149495   3.262   1.817   5.003  0.0462 -0.8410 -0.9989
 9360TIP3    H249496   3.126   1.833   5.069  1.1009  0.3537  0.9328
 9361TIP3   OH249497   3.783   3.109   1.176  0.1508  0.0307  0.1465
 9361TIP3    H149498   3.747   3.141   1.259  0.6435 -0.0540  0.3976
 9361TIP3    H249499   3.851   3.173   1.154  0.4890 -0.3183  0.1607
 9362TIP3   OH249500   4.647   0.880  11.649 -0.4075 -0.5743 -0.1990
 9362TIP3    H149501   4.622   0.791  11.672 -1.7367 -0.5724 -1.5649
 9362TIP3    H249502   4.647   0.927  11.733  1.5387 -2.1067  0.7159
 9363TIP3   OH249503   6.579   2.837  16.751 -0.0639 -0.0734 -0.0795
 9363TIP3    H149504   6.486   2.817  16.743  0.2651 -1.3308 -1.0043
 9363TIP3    H249505   6.588   2.880  16.836 -1.0590 -2.5554  1.3343
 9364TIP3   OH249506   0.926   0.487  12.705  0.3678 -0.1638 -0.7378
 9364TIP3    H149507   1.012   0.470  12.666  0.3582 -1.1070 -0.3395
 9364TIP3    H249508   0.927   0.581  12.722  0.7332  0.1065 -2.1512
 9365TIP3   OH249509   6.459   3.677   5.546 -0.1819  0.3304  0.5012
 9365TIP3    H149510   6.548   3.700   5.573  0.3221  1.3071 -1.8777
 9365TIP3    H249511   6.403   3.743   5.587  0.1430 -0.3390  2.0772
 9366TIP3   OH249512   2.147   5.996  11.191 -0.1919 -0.4862  0.0110
 9366TIP3    H149513   2.087   6.071  11.188  0.8275  0.3202 -1.4961
 9366TIP3    H249514   2.125   5.950  11.271 -0.8428  1.4611  0.9908
 9367TIP3   OH249515   2.045   1.207  12.935  0.2736  0.5743  0.3496
 9367TIP3    H149516   2.013   1.195  13.024 -0.4002 -1.2862 -0.1278
 9367TIP3    H249517   2.140   1.216  12.945  0.0729  1.8861  1.3620
 9368TIP3   OH249518   1.749   2.230   5.956  0.2757  0.2782  0.1224
 9368TIP3    H149519   1.698   2.310   5.971 -0.7083 -0.4888  0.9157
 9368TIP3    H249520   1.788   2.242   5.870  0.0439  1.5737  0.1928
 9369TIP3   OH249521   6.538   6.473   0.269 -0.7621 -0.2862  0.2646
 9369TIP3    H149522   6.452   6.460   0.230 -0.1442  2.1203 -2.0477
 9369TIP3    H249523   6.556   6.567   0.257  2.5402 -0.8952 -0.1446
 9370TIP3   OH249524   5.179   2.342  14.152 -0.6880 -0.2322 -0.3661
 9370TIP3    H149525   5.259   2.373  14.196 -0.0487 -0.4424 -1.3597
 9370TIP3    H249526   5.210   2.310  14.068 -1.5046 -2.6074  0.2276
 9371TIP3   OH249527   4.643   0.021  16.679 -0.6450 -0.5064  0.5431
 9371TIP3    H149528   4.709   0.084  16.649 -1.9128  0.1374 -0.9795
 9371TIP3    H249529   4.567   0.075  16.701 -1.2095 -1.3743  0.7221
 9372TIP3   OH249530   3.876   2.295  14.443 -0.0089 -0.2260  0.1060
 9372TIP3    H149531   3.888   2.388  14.463  0.5036 -0.6656  1.9855
 9372TIP3    H249532   3.965   2.260  14.442 -0.2984 -1.0292  1.2145
 9373TIP3   OH249533   0.980   3.987  16.766 -0.1152  0.0837 -0.0383
 9373TIP3    H149534   1.053   3.960  16.822 -0.3208 -0.9344 -0.2490
 9373TIP3    H249535   0.953   4.072  16.801  1.6966  0.8519 -0.4592
 9374TIP3   OH249536   0.826   2.349   0.564  0.3966  0.9056  0.0082
 9374TIP3    H149537   0.737   2.317   0.556  0.3352  1.0464  0.1171
 9374TIP3    H249538   0.881   2.271   0.557  0.3527  1.0310 -1.8404
 9375TIP3   OH249539   6.487   3.252   0.097 -0.4297  0.0356  0.2509
 9375TIP3    H149540   6.580   3.253   0.118 -0.1042 -1.5634 -1.0001
 9375TIP3    H249541   6.443   3.237   0.180  0.5882 -1.9176  0.4515
 9376TIP3   OH249542   1.562   0.112   5.010  0.2961 -0.7243 -0.1803
 9376TIP3    H149543   1.467   0.113   5.020  0.1360  2.3265 -1.5578
 9376TIP3    H249544   1.593   0.183   5.065  1.5548 -0.0957 -1.6753
 9377TIP3   OH249545   4.036   4.002   1.839 -0.2480 -0.3161 -0.2166
 9377TIP3    H149546   4.020   3.924   1.785  1.4511 -0.4009 -0.6202
 9377TIP3    H249547   4.077   3.968   1.918  1.1736  0.2254 -0.7091
 9378TIP3   OH249548   4.358   0.383   4.205 -0.7001 -0.3566 -0.4622
 9378TIP3    H149549   4.289   0.445   4.225  0.3429  0.9179 -0.7631
 9378TIP3    H249550   4.393   0.356   4.290  1.0281  1.9778 -0.3898
 9379TIP3   OH249551   0.854   5.450  17.195 -0.3406  0.1351 -0.5499
 9379TIP3    H149552   0.839   5.356  17.210  0.1220  0.4270  1.9008
 9379TIP3    H249553   0.790   5.493  17.251  0.3869  1.2999 -0.6180
 9380TIP3   OH249554   2.115   6.548  16.066  0.1094 -0.1617  0.3496
 9380TIP3    H149555   2.169   6.602  16.008  0.7164 -0.1668  0.9180
 9380TIP3    H249556   2.118   6.592  16.151  1.6270 -1.7676  1.1322
 9381TIP3   OH249557   2.477   2.736   4.795 -0.4346  0.1677 -0.3769
 9381TIP3    H149558   2.390   2.777   4.807 -0.2734  0.3839  0.0991
 9381TIP3    H249559   2.458   2.651   4.755 -0.9828 -0.3789  0.9983
 9382TIP3   OH249560   2.203   5.219   6.612 -0.5052  0.3618 -0.0156
 9382TIP3    H149561   2.211   5.168   6.693 -0.3729 -0.0983 -0.3188
 9382TIP3    H249562   2.292   5.248   6.592 -0.8221  2.1816  1.0987
 9383TIP3   OH249563   6.177   1.073  17.145 -0.2420 -0.1877 -0.0212
 9383TIP3    H149564   6.088   1.102  17.165 -0.2921  0.0203 -0.5353
 9383TIP3    H249565   6.187   0.992  17.194 -1.0416 -0.6963 -0.6799
 9384TIP3   OH249566   6.351   6.208   4.551 -0.0758 -0.0021 -0.5788
 9384TIP3    H149567   6.324   6.181   4.463 -1.0836 -0.1182 -0.2432
 9384TIP3    H249568   6.305   6.290   4.567  1.5688  0.9878 -0.8803
 9385TIP3   OH249569   2.591   3.222   3.312 -0.0683 -0.3566 -0.6739
 9385TIP3    H149570   2.535   3.249   3.385  2.8364 -0.7936  1.8222
 9385TIP3    H249571   2.607   3.302   3.263 -0.2520  0.3842  0.4600
 9386TIP3   OH249572   1.041   5.922  13.051  0.0388 -0.0542 -0.6130
 9386TIP3    H149573   1.030   5.869  12.973  0.2880 -0.3228 -0.4622
 9386TIP3    H249574   1.101   5.992  13.025  1.5402 -1.1684 -0.1530
 9387TIP3   OH249575   1.234   4.790  13.881  0.2477  0.2282 -0.3391
 9387TIP3    H149576   1.159   4.845  13.858  0.4327  0.5579 -0.1677
 9387TIP3    H249577   1.199   4.728  13.946  0.0726  0.2352 -0.4252
 9388TIP3   OH249578   4.942   4.980   5.304 -0.1360 -0.4442  0.2274
 9388TIP3    H149579   4.980   4.897   5.333  0.6732 -0.8202 -1.7803
 9388TIP3    H249580   4.848   4.967   5.310  0.0035 -0.9501  1.4165
 9389TIP3   OH249581   4.115   2.742   1.362  0.0968  0.0658 -0.1666
 9389TIP3    H149582   4.161   2.663   1.390  3.5824  1.4807 -1.6662
 9389TIP3    H249583   4.034   2.709   1.322  0.9728 -2.6663  0.1857
 9390TIP3   OH249584   4.631   0.399   3.700 -0.3968 -0.4536 -0.1378
 9390TIP3    H149585   4.575   0.331   3.662  0.9703 -1.8212  0.2748
 9390TIP3    H249586   4.636   0.377   3.793 -0.0613  0.3018  0.0274
 9391TIP3   OH249587   4.511   0.117  14.904  0.6539  0.3958  0.5173
 9391TIP3    H149588   4.512   0.058  14.829  0.0634  0.6643  0.2991
 9391TIP3    H249589   4.482   0.063  14.978  2.6158 -0.2280  0.8578
 9392TIP3   OH249590   2.355   1.608   3.385  0.0656 -0.0100  0.3799
 9392TIP3    H149591   2.404   1.536   3.347 -0.6918 -0.6883  0.6777
 9392TIP3    H249592   2.379   1.610   3.477  1.0352  0.9154  0.1144
 9393TIP3   OH249593   2.211   2.903  11.902  0.0363 -0.0649  0.0309
 9393TIP3    H149594   2.234   2.837  11.967  0.2785 -1.1754 -1.1451
 9393TIP3    H249595   2.294   2.926  11.860  0.0432  1.4509  0.8395
 9394TIP3   OH249596   5.454   1.354   6.158 -0.9783 -0.0702 -0.0043
 9394TIP3    H149597   5.400   1.384   6.085  0.3181  0.4530 -0.7664
 9394TIP3    H249598   5.481   1.434   6.203  2.7195  0.0385 -2.2173
 9395TIP3   OH249599   5.672   2.514   2.455 -0.4336  0.4111 -1.0828
 9395TIP3    H149600   5.762   2.531   2.425 -0.5281  0.6029 -1.2633
 9395TIP3    H249601   5.678   2.516   2.550  0.5477 -3.6419 -0.9650
 9396TIP3   OH249602   4.308   0.124  11.250 -0.3723  0.3565  0.8876
 9396TIP3    H149603   4.217   0.095  11.249 -0.6658  1.3137 -0.8407
 9396TIP3    H249604   4.353   0.062  11.192 -0.3417  1.2211 -0.0131
 9397TIP3   OH249605   1.842   0.340   1.510 -0.1466 -0.0319  0.2428
 9397TIP3    H149606   1.757   0.336   1.553  0.3689 -1.9390  1.1690
 9397TIP3    H249607   1.862   0.433   1.503 -1.6750  0.3878  1.3078
 9398TIP3   OH249608   1.381   2.764  14.804 -0.1627 -0.0646 -0.3341
 9398TIP3    H149609   1.321   2.837  14.822  0.8506  1.1972 -1.9229
 9398TIP3    H249610   1.457   2.782  14.859 -0.2702 -0.3943 -0.0787
 9399TIP3   OH249611   2.053   5.025   2.542 -0.3136  0.0353 -0.0333
 9399TIP3    H149612   1.991   5.074   2.596 -0.5153  0.5183 -0.7047
 9399TIP3    H249613   2.122   5.088   2.522  0.0915 -0.3309  0.2068
 9400TIP3   OH249614   2.450   6.136  10.586  0.0912 -0.1683  0.3630
 9400TIP3    H149615   2.441   6.161  10.494  0.1279  0.7135  0.5888
 9400TIP3    H249616   2.400   6.055  10.594  0.8074 -0.7098 -0.6247
 9401TIP3   OH249617   0.841   0.998  16.187  0.6392  0.0037  0.1135
 9401TIP3    H149618   0.803   1.085  16.176 -1.4807 -0.7963  0.8674
 9401TIP3    H249619   0.814   0.970  16.274  0.9983 -1.5571 -0.2493
 9402TIP3   OH249620   4.569   3.233   0.583  0.1110  0.3055 -0.1421
 9402TIP3    H149621   4.572   3.226   0.679  1.0714  2.1680 -0.0264
 9402TIP3    H249622   4.550   3.325   0.566  1.8810  0.3865 -1.7828
 9403TIP3   OH249623   2.190   5.559  15.391  0.1287  0.6743 -0.3498
 9403TIP3    H149624   2.212   5.648  15.364  0.0096  0.8127 -0.0021
 9403TIP3    H249625   2.126   5.529  15.327  0.4517  0.7044 -0.6852
 9404TIP3   OH249626   5.106   1.811  16.671  0.3045  0.5587  0.1446
 9404TIP3    H149627   5.042   1.853  16.728  2.1644 -0.1047  2.8111
 9404TIP3    H249628   5.121   1.725  16.710  2.7890  0.6941 -0.4005
 9405TIP3   OH249629   3.000   1.538   5.082 -0.5140  0.2080 -0.0066
 9405TIP3    H149630   3.045   1.617   5.050  1.7852 -1.2318 -0.4493
 9405TIP3    H249631   3.012   1.541   5.177 -1.3249  0.9017  0.0823
 9406TIP3   OH249632   1.105   5.780   3.180 -0.1801  0.2958  0.0134
 9406TIP3    H149633   1.175   5.816   3.235  1.2873  0.2645 -1.7827
 9406TIP3    H249634   1.103   5.837   3.104 -0.9413 -0.7352 -0.7528
 9407TIP3   OH249635   0.881   6.340   1.039 -0.2044  0.3870 -0.4442
 9407TIP3    H149636   0.812   6.367   0.978 -1.3636  1.9164  1.4810
 9407TIP3    H249637   0.834   6.306   1.115  1.2104 -0.5243  0.0483
 9408TIP3   OH249638   6.185   4.200  13.191  0.0569 -0.3488 -0.1342
 9408TIP3    H149639   6.196   4.127  13.252  1.2269 -0.0317  0.0501
 9408TIP3    H249640   6.264   4.198  13.137 -0.5243 -0.0327 -1.0022
 9409TIP3   OH249641   0.459   1.775   6.394  0.1322  0.3709  0.4996
 9409TIP3    H149642   0.523   1.704   6.399 -0.9192 -0.5296  1.5021
 9409TIP3    H249643   0.395   1.754   6.462  0.7466  3.2432  2.0509
 9410TIP3   OH249644   3.772   6.477   5.070  0.6046 -0.1817  0.4692
 9410TIP3    H149645   3.777   6.441   4.981  1.1535  1.5548 -0.2128
 9410TIP3    H249646   3.861   6.507   5.088  0.0363  1.2997  0.8267
 9411TIP3   OH249647   5.961   4.460   2.832 -0.1160  0.0869  0.2777
 9411TIP3    H149648   5.934   4.543   2.793  0.2704 -0.0217 -0.2194
 9411TIP3    H249649   6.010   4.484   2.910  0.4809  0.3380 -0.1743
 9412TIP3   OH249650   0.836   0.145   4.395 -0.5666 -0.3621 -0.3396
 9412TIP3    H149651   0.753   0.097   4.390 -0.3689 -0.6818 -0.5253
 9412TIP3    H249652   0.845   0.186   4.309  0.3277 -1.7422 -0.9108
 9413TIP3   OH249653   2.768   4.902   1.209  0.6605  0.7288 -0.3290
 9413TIP3    H149654   2.748   4.944   1.126 -0.6517  0.0595 -0.3623
 9413TIP3    H249655   2.752   4.809   1.194  1.2551  0.4988  0.4131
 9414TIP3   OH249656   4.031   2.445   3.614  0.2042  0.4995  0.2460
 9414TIP3    H149657   3.983   2.370   3.649 -0.5495  0.4516 -0.8755
 9414TIP3    H249658   4.059   2.494   3.691  0.8296 -1.0156  1.0034
 9415TIP3   OH249659   0.748   1.819   3.649 -0.4204  0.3952  0.9637
 9415TIP3    H149660   0.710   1.769   3.577 -1.4624  0.2896  1.5856
 9415TIP3    H249661   0.777   1.901   3.609  0.4482 -0.3160  0.1193
 9416TIP3   OH249662   3.332   2.083   3.613 -0.0590  0.1485  0.0899
 9416TIP3    H149663   3.396   2.021   3.646  1.0483  0.9741 -0.4747
 9416TIP3    H249664   3.282   2.034   3.548  0.6306 -0.2287 -0.1564
 9417TIP3   OH249665   5.764   2.978  15.083  0.5324 -0.0636 -0.2856
 9417TIP3    H149666   5.757   2.942  15.171 -0.7552 -0.7787 -0.6683
 9417TIP3    H249667   5.803   3.065  15.096 -1.7138  0.7705  1.2323
 9418TIP3   OH249668   0.259   4.551  11.397 -0.3194 -0.4961 -0.5155
 9418TIP3    H149669   0.168   4.528  11.418  0.2226 -0.1551  2.4637
 9418TIP3    H249670   0.290   4.480  11.342 -2.0737 -1.1583 -0.6867
 9419TIP3   OH249671   0.885   4.087   1.028 -0.1229  0.4685  0.0957
 9419TIP3    H149672   0.958   4.080   0.966 -0.2634  0.5649 -0.0835
 9419TIP3    H249673   0.863   3.997   1.050 -0.5520  0.4083 -0.5675
 9420TIP3   OH249674   2.901   5.145   1.478 -0.5087  0.5388 -0.0718
 9420TIP3    H149675   2.833   5.191   1.428  0.1764  1.3726 -0.2420
 9420TIP3    H249676   2.877   5.158   1.569 -2.6652 -2.3302 -0.1484
 9421TIP3   OH249677   5.599   0.076  16.352 -0.0699 -0.5226 -0.4720
 9421TIP3    H149678   5.662   0.046  16.285 -0.5172  1.0964 -1.6470
 9421TIP3    H249679   5.602   0.008  16.419  0.8724 -1.8724 -1.8373
 9422TIP3   OH249680   6.115   6.211  13.066  0.0827 -0.4351 -0.2800
 9422TIP3    H149681   6.095   6.258  13.147 -1.8812 -1.9813  0.1549
 9422TIP3    H249682   6.191   6.157  13.087 -1.2382 -1.8363  0.9391
 9423TIP3   OH249683   3.443   0.456  13.071  0.4617 -0.2356 -0.1476
 9423TIP3    H149684   3.385   0.473  13.145  0.6898 -0.4596  0.0838
 9423TIP3    H249685   3.388   0.413  13.006  0.3754 -0.4743  0.0845
 9424TIP3   OH249686   2.314   5.112   2.507 -0.3644  0.6049 -0.2502
 9424TIP3    H149687   2.364   5.087   2.429 -1.8488  0.3069 -1.1423
 9424TIP3    H249688   2.360   5.070   2.579 -0.0093 -0.6680 -1.1910
 9425TIP3   OH249689   0.755   2.538  11.459 -0.3745 -0.1810 -0.0528
 9425TIP3    H149690   0.801   2.467  11.502  1.0763  0.8971  0.1997
 9425TIP3    H249691   0.756   2.610  11.522  0.3097  0.8685 -1.2301
 9426TIP3   OH249692   5.205   2.631   5.234 -0.4516 -0.1909  0.0073
 9426TIP3    H149693   5.268   2.695   5.267 -0.4251  0.3962 -1.1882
 9426TIP3    H249694   5.251   2.585   5.164 -1.0094 -0.4417 -0.2005
 9427TIP3   OH249695   4.565   3.641   4.365  0.5186  0.3552  0.1069
 9427TIP3    H149696   4.643   3.632   4.419  0.0332  1.1673  0.9750
 9427TIP3    H249697   4.571   3.730   4.329 -0.2442  0.6181  0.5935
 9428TIP3   OH249698   1.221   1.980  17.040 -0.1931  0.2491  0.6789
 9428TIP3    H149699   1.255   1.934  17.116  0.3547  0.7772  0.7580
 9428TIP3    H249700   1.166   1.916  16.995  1.0674 -0.6736  0.4347
 9429TIP3   OH249701   5.545   0.609  16.314  0.5184  0.1310  0.4183
 9429TIP3    H149702   5.601   0.602  16.391  0.4761  3.1014  0.7680
 9429TIP3    H249703   5.524   0.702  16.307 -0.0581 -0.1609 -2.7831
 9430TIP3   OH249704   2.185   6.356  16.491  0.3717  0.2223 -0.1931
 9430TIP3    H149705   2.177   6.442  16.449  4.1899  1.2047  0.8090
 9430TIP3    H249706   2.141   6.366  16.575 -0.4948  0.7239 -0.7013
 9431TIP3   OH249707   4.503   2.385   0.265 -0.4664 -0.0562  0.4131
 9431TIP3    H149708   4.559   2.319   0.225 -0.8554 -1.5754  2.3114
 9431TIP3    H249709   4.528   2.467   0.223  1.8591 -0.9994 -0.0923
 9432TIP3   OH249710   2.769   2.093  15.421 -0.1863 -0.0145 -0.0035
 9432TIP3    H149711   2.745   2.002  15.439 -1.5319  0.3056 -0.1206
 9432TIP3    H249712   2.863   2.091  15.406 -0.0692 -1.2605  0.8522
 9433TIP3   OH249713   1.130   4.450  13.744  0.3055 -0.1596  0.1437
 9433TIP3    H149714   1.043   4.486  13.759  0.4338  0.9414 -1.5277
 9433TIP3    H249715   1.135   4.440  13.648  1.0398 -2.7096  0.4190
 9434TIP3   OH249716   1.045   0.259   4.543 -0.4529  0.0962 -0.9537
 9434TIP3    H149717   0.995   0.191   4.498  1.4708 -0.4398 -2.3397
 9434TIP3    H249718   1.089   0.213   4.615  0.1924  0.0257 -1.3894
 9435TIP3   OH249719   0.401   3.253  16.648  0.0165  0.3222 -0.0137
 9435TIP3    H149720   0.461   3.196  16.598 -1.3260 -0.5009 -0.7388
 9435TIP3    H249721   0.315   3.234  16.611 -0.4445  3.0489 -0.4457
 9436TIP3   OH249722   3.976   3.706  16.026 -0.3499 -0.4275  0.7872
 9436TIP3    H149723   3.917   3.770  15.987  0.5144  0.7223  1.3183
 9436TIP3    H249724   4.059   3.719  15.979  0.2658 -0.0616  1.9515
 9437TIP3   OH249725   0.779   3.694   4.102 -0.9772 -0.0530  0.4075
 9437TIP3    H149726   0.744   3.660   4.020  0.0583  2.4288 -1.1360
 9437TIP3    H249727   0.808   3.617   4.150 -0.8909 -1.5073 -1.8978
 9438TIP3   OH249728   1.678   6.304   0.242  0.8117  0.2531  0.4156
 9438TIP3    H149729   1.720   6.385   0.270  0.2858  0.4320  0.6864
 9438TIP3    H249730   1.733   6.272   0.170  0.6610  1.1847 -0.1143
 9439TIP3   OH249731   1.532   6.150   4.487  0.3020 -0.2240 -0.2144
 9439TIP3    H149732   1.541   6.243   4.467  0.0675  0.0264  0.7872
 9439TIP3    H249733   1.537   6.146   4.583 -1.2222 -1.0556 -0.1429
 9440TIP3   OH249734   6.506   1.230   0.068 -0.0806  0.7458  0.5407
 9440TIP3    H149735   6.421   1.256   0.104 -0.1562 -0.5211  1.3349
 9440TIP3    H249736   6.490   1.141   0.034  0.5925  1.0233 -0.5084
 9441TIP3   OH249737   2.943   5.401  16.140 -0.4636 -0.5073  0.2574
 9441TIP3    H149738   2.907   5.378  16.054  0.3493  1.7561 -0.7370
 9441TIP3    H249739   2.969   5.317  16.178 -0.3531 -1.5074 -1.9186
 9442TIP3   OH249740   5.267   0.994   2.402 -0.8123  0.3315  0.0652
 9442TIP3    H149741   5.288   0.905   2.430  0.3837  0.4931 -0.2833
 9442TIP3    H249742   5.285   0.994   2.308  1.1726  1.4922  0.4146
 9443TIP3   OH249743   2.640   1.722  14.236 -0.1831 -0.2972 -0.1698
 9443TIP3    H149744   2.565   1.663  14.243  0.4184 -1.0271  0.2231
 9443TIP3    H249745   2.681   1.700  14.152  0.1957 -0.6435  0.0978
 9444TIP3   OH249746   0.704   2.844   4.915  0.6464 -0.2849  0.4513
 9444TIP3    H149747   0.677   2.866   4.825 -0.0402  0.6513  0.8761
 9444TIP3    H249748   0.631   2.873   4.969  1.2991 -0.3521  1.3746
 9445TIP3   OH249749   2.761   1.035  11.533  0.1135  0.1305  0.6880
 9445TIP3    H149750   2.850   1.040  11.498  0.3334  1.4417  1.3742
 9445TIP3    H249751   2.718   0.967  11.482  1.5862 -0.6782  0.5030
 9446TIP3   OH249752   6.165   0.116   3.767 -0.1074  0.5849 -0.5759
 9446TIP3    H149753   6.202   0.076   3.846  0.0285  0.1849 -0.8384
 9446TIP3    H249754   6.098   0.176   3.800 -0.3549  0.0969 -0.1728
 9447TIP3   OH249755   6.068   4.817   2.190 -0.4560  0.0314  0.5398
 9447TIP3    H149756   6.114   4.888   2.146 -0.2279 -0.6758 -0.3709
 9447TIP3    H249757   6.001   4.861   2.243 -1.1411  0.8638 -0.9876
 9448TIP3   OH249758   0.965   1.239  13.039 -0.0436  0.3712 -0.1063
 9448TIP3    H149759   1.017   1.318  13.022  1.1113 -0.3668 -0.0805
 9448TIP3    H249760   1.027   1.179  13.081 -0.9419 -0.5075 -0.0332
 9449TIP3   OH249761   0.046   6.150   5.099 -0.0232 -0.0001  0.6485
 9449TIP3    H149762   0.069   6.194   5.181  3.4115 -1.4858  0.5667
 9449TIP3    H249763   0.101   6.191   5.033 -2.1390  0.5808 -0.8016
 9450TIP3   OH249764   1.322   2.129   5.551  0.3471 -0.1915 -0.2746
 9450TIP3    H149765   1.249   2.079   5.587 -0.1606  0.4092 -0.4442
 9450TIP3    H249766   1.378   2.148   5.626  2.0058 -3.3952 -0.6559
 9451TIP3   OH249767   1.461   6.733  10.373 -0.6664 -0.0023 -0.0162
 9451TIP3    H149768   1.448   6.826  10.352 -1.3430  0.0048  0.4291
 9451TIP3    H249769   1.387   6.689  10.333 -0.1869 -0.3926 -0.4807
 9452TIP3   OH249770   0.709   5.147   2.159  0.2600  0.2596 -0.1940
 9452TIP3    H149771   0.630   5.102   2.187 -0.4298  2.1853  1.0488
 9452TIP3    H249772   0.776   5.122   2.224  0.4309 -0.6203 -0.7059
 9453TIP3   OH249773   3.076   4.412   0.553  0.2253 -0.6453  0.5341
 9453TIP3    H149774   3.003   4.452   0.600  0.9225  0.9728  0.2857
 9453TIP3    H249775   3.154   4.447   0.597  0.8604 -0.3238 -0.8280
 9454TIP3   OH249776   5.010   2.137   5.630 -0.3819  0.0115  0.0389
 9454TIP3    H149777   5.102   2.129   5.656 -0.9883 -0.9489  1.9438
 9454TIP3    H249778   4.961   2.132   5.712 -2.1976 -0.4741 -1.0496
 9455TIP3   OH249779   4.358   2.360  14.451  0.2191  0.1096 -0.2219
 9455TIP3    H149780   4.315   2.445  14.443  0.6395  0.5519  1.9553
 9455TIP3    H249781   4.337   2.314  14.369 -1.0270  1.8286 -0.8799
 9456TIP3   OH249782   6.138   3.052   4.323 -0.5101 -0.0990  0.0461
 9456TIP3    H149783   6.067   3.111   4.296 -0.2396  1.0398  1.6686
 9456TIP3    H249784   6.124   3.041   4.417 -0.5195 -2.6274 -0.2372
 9457TIP3   OH249785   6.267   2.100  16.269 -0.2061  0.3463  0.1364
 9457TIP3    H149786   6.344   2.044  16.258 -0.2373  0.6037 -1.4878
 9457TIP3    H249787   6.193   2.047  16.241 -0.4422  0.6225  0.2281
 9458TIP3   OH249788   0.581   4.511   4.353 -0.1056 -0.0184  0.4232
 9458TIP3    H149789   0.567   4.601   4.322 -1.0124  0.4063  2.0175
 9458TIP3    H249790   0.663   4.515   4.401 -0.4203  0.0787  0.9535
 9459TIP3   OH249791   4.266   3.401   3.977 -0.2220 -0.0837  0.0050
 9459TIP3    H149792   4.207   3.367   3.910 -1.2851  2.3937 -0.3693
 9459TIP3    H249793   4.309   3.476   3.935  2.2930 -1.0699  0.6861
 9460TIP3   OH249794   5.877   4.257  13.303 -0.3189  0.1030 -0.2885
 9460TIP3    H149795   5.887   4.256  13.208 -0.3846  0.2677 -0.2961
 9460TIP3    H249796   5.841   4.343  13.323 -0.4390  0.0159 -0.1273
 9461TIP3   OH249797   3.431   1.515  14.010  0.0092 -0.2965  0.0824
 9461TIP3    H149798   3.435   1.527  13.916 -0.7989  0.4903  0.1363
 9461TIP3    H249799   3.354   1.566  14.037 -0.8064 -1.9465  0.9374
 9462TIP3   OH249800   6.035   4.918  14.347 -0.1298  0.2851  0.2144
 9462TIP3    H149801   6.118   4.876  14.322  0.2945  1.3004 -0.0792
 9462TIP3    H249802   5.983   4.846  14.384  0.6233 -0.4957 -0.2091
 9463TIP3   OH249803   5.030   0.454  13.146  0.1746 -0.2805  1.1377
 9463TIP3    H149804   5.072   0.443  13.232 -0.1906  0.3313  1.3984
 9463TIP3    H249805   5.081   0.398  13.087  0.3497 -0.8030  1.7775
 9464TIP3   OH249806   3.527   4.531   3.678  0.2062  0.9228 -0.2925
 9464TIP3    H149807   3.599   4.593   3.690  0.8425 -0.0623  1.1379
 9464TIP3    H249808   3.566   4.455   3.635  0.0733  0.3237  0.6266
 9465TIP3   OH249809   3.156   4.875   2.299  0.2068 -0.0469  0.0105
 9465TIP3    H149810   3.138   4.934   2.372 -1.6238 -0.4660 -0.0759
 9465TIP3    H249811   3.173   4.790   2.340  0.8661  0.0874  0.0255
 9466TIP3   OH249812   2.781   0.059   2.946 -0.2928  0.0943  0.3155
 9466TIP3    H149813   2.705   0.037   2.891  0.2323  1.9424 -1.2082
 9466TIP3    H249814   2.782   0.154   2.948  0.3267  0.0759  2.7320
 9467TIP3   OH249815   5.106   4.985   4.113  0.5088  0.5206  0.0755
 9467TIP3    H149816   5.064   4.918   4.167  1.0204  0.0745 -0.0765
 9467TIP3    H249817   5.036   5.046   4.090  0.0953  0.1717  0.4214
 9468TIP3   OH249818   0.354   1.227  13.274  0.3694  1.0852 -0.4233
 9468TIP3    H149819   0.399   1.311  13.270  1.0046  0.6488 -3.7251
 9468TIP3    H249820   0.402   1.170  13.213 -0.4506 -1.4845  1.2240
 9469TIP3   OH249821   6.570   4.720   5.329  0.5261 -0.0195 -0.0269
 9469TIP3    H149822   6.599   4.723   5.237  2.1870 -0.8145  0.4383
 9469TIP3    H249823   6.629   4.657   5.370 -0.4884  0.0012  1.5030
 9470TIP3   OH249824   2.496   3.828  14.348  0.5551  0.3907  0.5456
 9470TIP3    H149825   2.414   3.833  14.298  0.2028  0.9854  1.1709
 9470TIP3    H249826   2.550   3.765  14.300 -1.6486 -2.8016  2.1087
 9471TIP3   OH249827   5.825   4.815  14.703  0.7511  0.1684 -0.4735
 9471TIP3    H149828   5.733   4.826  14.730  1.3147  0.9922  1.1967
 9471TIP3    H249829   5.835   4.721  14.690  0.6047 -0.4128  3.0032
 9472TIP3   OH249830   1.152   1.932  14.161 -0.2235 -0.2876  0.1241
 9472TIP3    H149831   1.244   1.940  14.136  0.3261 -2.0002  1.5371
 9472TIP3    H249832   1.122   1.852  14.118 -2.2089  2.2595 -3.5661
 9473TIP3   OH249833   2.783   4.093   3.777 -0.1720 -0.7430  0.1918
 9473TIP3    H149834   2.793   4.002   3.750  0.7376 -0.8606  0.9180
 9473TIP3    H249835   2.871   4.121   3.801 -0.4922  0.2462  0.2477
 9474TIP3   OH249836   5.100   5.967  13.224  0.1163  0.1281  0.1434
 9474TIP3    H149837   5.104   5.950  13.130  0.7267 -0.4891  0.2760
 9474TIP3    H249838   5.192   5.976  13.251  0.0345 -1.3137  0.9633
 9475TIP3   OH249839   2.411   3.691  15.794 -0.6030 -0.4254 -0.8564
 9475TIP3    H149840   2.473   3.738  15.739  2.3324 -1.2088  1.6777
 9475TIP3    H249841   2.378   3.757  15.855  0.1323 -0.6658 -0.1892
 9476TIP3   OH249842   1.243   6.727  13.863 -0.0531 -0.1170  0.3276
 9476TIP3    H149843   1.203   6.644  13.890  1.0522 -0.5572  0.6629
 9476TIP3    H249844   1.226   6.787  13.936 -2.1812  0.4076 -0.5765
 9477TIP3   OH249845   2.995   6.598   2.899  0.5356 -0.3026  0.0313
 9477TIP3    H149846   2.948   6.674   2.932 -1.5391 -2.0364  1.1999
 9477TIP3    H249847   3.044   6.566   2.975 -0.1472 -1.2573  0.0777
 9478TIP3   OH249848   1.461   6.481  14.419  0.5911  0.4446 -0.4717
 9478TIP3    H149849   1.451   6.480  14.515 -1.3060 -0.9477 -0.6728
 9478TIP3    H249850   1.451   6.390  14.393  0.0203  0.9692 -2.1136
 9479TIP3   OH249851   3.863   4.369   4.376 -0.5273 -0.5574 -0.4500
 9479TIP3    H149852   3.868   4.275   4.392 -2.0735 -0.9781 -2.2709
 9479TIP3    H249853   3.925   4.385   4.305  0.9772  0.0992  0.9858
 9480TIP3   OH249854   2.325   2.097   4.363  0.2674  0.5960  0.1998
 9480TIP3    H149855   2.270   2.098   4.285 -0.5452  2.3178  0.7593
 9480TIP3    H249856   2.414   2.102   4.329  0.1730 -3.0125 -0.7383
 9481TIP3   OH249857   5.171   0.700  17.192 -0.6611  0.1348 -0.4542
 9481TIP3    H149858   5.162   0.613  17.153 -1.6476  0.1748 -0.3354
 9481TIP3    H249859   5.085   0.718  17.230 -0.2283  0.8305  0.2133
 9482TIP3   OH249860   0.192   2.063   2.807 -0.4860 -0.5937 -0.1620
 9482TIP3    H149861   0.158   1.995   2.748 -1.2290 -0.3542 -0.0199
 9482TIP3    H249862   0.208   2.016   2.889 -0.1275 -0.7845 -0.3418
 9483TIP3   OH249863   5.298   6.012  11.186  0.3448  0.5364  0.0569
 9483TIP3    H149864   5.303   6.094  11.235  1.1432 -0.1627  1.1801
 9483TIP3    H249865   5.216   5.971  11.216  0.8191  0.1222  0.8165
 9484TIP3   OH249866   2.291   5.786  12.141 -0.2483  0.1166  0.2928
 9484TIP3    H149867   2.217   5.840  12.169  1.1038  1.3386  1.5473
 9484TIP3    H249868   2.340   5.842  12.082  0.1803 -0.3913  0.1660
 9485TIP3   OH249869   6.477   2.600   1.346  0.3609 -0.4026  0.2049
 9485TIP3    H149870   6.529   2.660   1.293 -2.4815  0.8129 -1.3647
 9485TIP3    H249871   6.525   2.592   1.428  1.7839  2.5502 -0.2712
 9486TIP3   OH249872   0.061   0.738   4.078 -0.1501  0.0517 -0.3053
 9486TIP3    H149873  -0.028   0.765   4.056 -1.0722 -3.9676 -1.9635
 9486TIP3    H249874   0.051   0.654   4.123  2.8074 -0.7098 -0.9380
 9487TIP3   OH249875   0.842   1.904   5.381 -0.0112 -0.3125  0.4140
 9487TIP3    H149876   0.844   1.961   5.458  0.1360 -2.2078  1.8679
 9487TIP3    H249877   0.925   1.857   5.384 -0.8953 -1.9380  0.3429
 9488TIP3   OH249878   2.643   5.782   0.461 -0.3358  0.7033  0.2784
 9488TIP3    H149879   2.647   5.688   0.475 -0.3062  1.0084  2.4731
 9488TIP3    H249880   2.709   5.799   0.393 -0.0422 -0.7977  0.1814
 9489TIP3   OH249881   2.464   1.074   0.805  0.2095 -1.1221  0.0022
 9489TIP3    H149882   2.398   1.123   0.854  1.4751  0.2056  0.4022
 9489TIP3    H249883   2.418   0.996   0.774 -1.6930  0.0569 -0.2004
 9490TIP3   OH249884   6.086   0.253  15.089  0.7462 -0.4227 -0.1413
 9490TIP3    H149885   6.170   0.208  15.090  1.2694  0.5431  0.0295
 9490TIP3    H249886   6.086   0.303  15.008 -0.1393 -1.2772 -0.6862
 9491TIP3   OH249887   0.070   1.567  13.792  0.1763  0.0050  0.3310
 9491TIP3    H149888   0.015   1.580  13.715  0.9468  2.4127  0.1329
 9491TIP3    H249889   0.008   1.553  13.864 -0.5279 -3.0671 -0.8077
 9492TIP3   OH249890   3.559   0.335  16.199 -0.3954 -0.1900  0.0596
 9492TIP3    H149891   3.639   0.304  16.241 -1.5244 -0.0704  2.4005
 9492TIP3    H249892   3.572   0.317  16.106  2.6052  0.4251  0.3127
 9493TIP3   OH249893   6.626   0.929  13.296  0.3708  0.2914  0.5607
 9493TIP3    H149894   6.601   0.932  13.389 -1.9554 -0.8850  0.0266
 9493TIP3    H249895   6.554   0.975  13.251  1.3422  0.6071 -0.6881
 9494TIP3   OH249896   4.485   2.377  13.424  0.2936  0.1298  0.2873
 9494TIP3    H149897   4.565   2.414  13.462  0.5206  0.4826 -0.5303
 9494TIP3    H249898   4.479   2.290  13.463  1.2385 -0.0153  0.1392
 9495TIP3   OH249899   0.116   4.675  14.758 -0.5728 -0.0819 -0.3699
 9495TIP3    H149900   0.046   4.682  14.824 -0.1611 -0.4582  0.1118
 9495TIP3    H249901   0.174   4.749  14.777 -1.8631  1.3967 -2.0046
 9496TIP3   OH249902   5.591   4.046  14.633 -0.2522  0.1695  0.0912
 9496TIP3    H149903   5.659   4.113  14.647  1.0678 -1.2225  0.4760
 9496TIP3    H249904   5.591   3.995  14.714 -1.3222 -0.2398 -0.1640
 9497TIP3   OH249905   0.897   1.734   4.048  0.0233 -0.1930  0.0361
 9497TIP3    H149906   0.821   1.679   4.067  0.9301 -1.1305  1.0125
 9497TIP3    H249907   0.908   1.787   4.127 -0.5641  1.0727 -0.7194
 9498TIP3   OH249908   4.467   6.573  13.886 -0.0777  0.4372 -0.2390
 9498TIP3    H149909   4.427   6.487  13.886  0.0838  0.3421  1.5684
 9498TIP3    H249910   4.393   6.634  13.895 -0.3254  0.6033 -2.8525
 9499TIP3   OH249911   4.879   6.438   2.978 -0.2162  0.2058  0.4476
 9499TIP3    H149912   4.962   6.390   2.978 -1.7041 -2.5152  0.6843
 9499TIP3    H249913   4.816   6.376   2.942 -2.9063  0.7086  3.9554
 9500TIP3   OH249914   0.120   1.774  11.322  0.2978 -0.0046 -0.4146
 9500TIP3    H149915   0.072   1.702  11.280  0.8833  0.9541 -2.8131
 9500TIP3    H249916   0.055   1.843  11.334  0.5414  0.4410 -1.5673
 9501TIP3   OH249917   0.845   5.079   4.547  0.0690  0.4335 -0.2232
 9501TIP3    H149918   0.833   5.008   4.484  0.6643 -0.6528  0.8657
 9501TIP3    H249919   0.934   5.111   4.530 -0.3801  1.2509 -1.0444
 9502TIP3   OH249920   2.087   3.705  13.889 -0.2662 -0.7802 -0.5148
 9502TIP3    H149921   2.013   3.665  13.843 -1.1432 -0.7907  0.8563
 9502TIP3    H249922   2.048   3.782  13.932  0.0020 -2.0882  2.1378
 9503TIP3   OH249923   4.097   1.971  15.950  0.5165  0.2765 -0.0015
 9503TIP3    H149924   4.191   1.981  15.960  0.1509  2.8326  0.9719
 9503TIP3    H249925   4.060   2.056  15.973 -2.1490 -1.1151  1.0838
 9504TIP3   OH249926   1.052   4.730   5.907  0.1803  0.4986 -0.1929
 9504TIP3    H149927   1.056   4.729   5.811  1.6442 -0.8444 -0.1360
 9504TIP3    H249928   0.966   4.766   5.927 -1.2886 -1.9158 -2.0441
 9505TIP3   OH249929   4.716   6.114   0.482  0.3527 -0.6775 -0.2542
 9505TIP3    H149930   4.694   6.113   0.575  1.1376 -1.4346 -0.0754
 9505TIP3    H249931   4.757   6.200   0.468  0.0799 -0.4961  0.0565
 9506TIP3   OH249932   0.882   0.678   4.506  0.0107  0.2254  0.0056
 9506TIP3    H149933   0.891   0.701   4.598  1.4956 -0.5004  0.0420
 9506TIP3    H249934   0.925   0.593   4.497  1.4660  1.1088 -1.7017
 9507TIP3   OH249935   1.388   3.303  15.983 -0.5021  0.2038 -0.5817
 9507TIP3    H149936   1.328   3.233  15.956 -1.0656  0.1090  0.9013
 9507TIP3    H249937   1.342   3.350  16.053  0.5865  0.9808 -0.3676
 9508TIP3   OH249938   5.036   6.637   2.143  0.1517  0.0285  1.0866
 9508TIP3    H149939   5.006   6.723   2.113  1.4602 -0.5850 -2.2470
 9508TIP3    H249940   5.119   6.654   2.188  0.7384  0.4640 -0.1450
 9509TIP3   OH249941   1.340   2.327   0.950  0.1305 -0.3016  0.0649
 9509TIP3    H149942   1.293   2.362   0.874  0.5538 -0.1117 -0.1139
 9509TIP3    H249943   1.394   2.257   0.914 -0.1703 -0.6509  0.3022
 9510TIP3   OH249944   1.444   1.743   2.563 -0.2786  0.3142 -0.3189
 9510TIP3    H149945   1.401   1.808   2.620 -0.6453  1.0132 -1.3709
 9510TIP3    H249946   1.468   1.672   2.622  0.0203  1.3525  0.8394
 9511TIP3   OH249947   6.398   2.285   1.696  0.4155  0.2206 -0.0757
 9511TIP3    H149948   6.378   2.379   1.693  1.5422  0.4733  0.1135
 9511TIP3    H249949   6.390   2.262   1.788 -0.6696 -0.0497 -0.2377
 9512TIP3   OH249950   1.767   1.703  16.947  0.3395  0.9413  0.1765
 9512TIP3    H149951   1.854   1.690  16.910  0.8738  0.4019  1.6334
 9512TIP3    H249952   1.750   1.625  17.000 -1.3313  0.7029 -0.6677
 9513TIP3   OH249953   0.432   3.354  14.193  0.0724 -0.1234  0.1815
 9513TIP3    H149954   0.407   3.391  14.278  0.6201 -0.5981  0.5499
 9513TIP3    H249955   0.527   3.352  14.194  0.1045  0.5975 -0.7625
 9514TIP3   OH249956   2.819   0.188  15.870  0.0160 -0.4384  0.0776
 9514TIP3    H149957   2.891   0.174  15.932  0.2942 -0.4082 -0.2433
 9514TIP3    H249958   2.817   0.283  15.858 -0.1769 -0.4259  0.2040
 9515TIP3   OH249959   6.676   3.346  15.919 -0.5457  0.0958 -0.0471
 9515TIP3    H149960   6.635   3.337  16.005 -0.7832  1.8503  0.0551
 9515TIP3    H249961   6.607   3.382  15.863 -0.0850  0.0003 -0.6842
 9516TIP3   OH249962   3.832   0.391  13.998  0.1077 -0.1646 -0.3179
 9516TIP3    H149963   3.888   0.342  14.059  0.4110 -0.7091 -1.0221
 9516TIP3    H249964   3.810   0.471  14.045  1.2400 -0.0824  0.0944
 9517TIP3   OH249965   5.228   2.140  11.043  0.2616 -0.7951  0.1362
 9517TIP3    H149966   5.279   2.216  11.014 -0.5673 -0.5289 -0.6484
 9517TIP3    H249967   5.244   2.074  10.975 -0.6538 -0.6172 -0.2492
 9518TIP3   OH249968   3.123   2.813  14.252  0.1054  0.3636 -0.1478
 9518TIP3    H149969   3.179   2.791  14.327  0.1092 -1.1229 -0.5687
 9518TIP3    H249970   3.117   2.908  14.254  3.7158  0.6986 -0.8041
 9519TIP3   OH249971   6.404   6.036   3.188 -0.0726  0.1011  0.1807
 9519TIP3    H149972   6.352   6.111   3.217  1.4292  1.1645  0.1707
 9519TIP3    H249973   6.493   6.069   3.183  0.6607 -1.7810  0.4524
 9520TIP3   OH249974   0.967   6.585  15.872 -0.2142  0.5090  0.3252
 9520TIP3    H149975   0.956   6.513  15.810  1.0807  0.6588 -0.0995
 9520TIP3    H249976   1.024   6.647  15.827 -1.7995  2.0922  0.4540
 9521TIP3   OH249977   1.069   2.606   2.924  0.1809  0.2726 -0.7801
 9521TIP3    H149978   1.056   2.655   3.005 -0.2669  1.6918 -1.6823
 9521TIP3    H249979   1.046   2.516   2.946  0.9211  0.4773  0.8903
 9522TIP3   OH249980   4.262   2.344  16.015  0.0526 -0.3880 -0.0996
 9522TIP3    H149981   4.232   2.268  16.066  2.0240 -0.4706  0.9997
 9522TIP3    H249982   4.219   2.419  16.057  2.3595 -0.3559  2.3652
 9523TIP3   OH249983   2.524   5.407   3.872 -0.1651  0.3670  0.4290
 9523TIP3    H149984   2.442   5.424   3.826 -0.2145  0.1356  0.4328
 9523TIP3    H249985   2.501   5.341   3.938  0.5583 -1.4915 -1.1543
 9524TIP3   OH249986   1.326   0.449  15.154  0.7438 -0.3275  0.1411
 9524TIP3    H149987   1.236   0.420  15.170  0.3419  0.4169 -0.7097
 9524TIP3    H249988   1.359   0.390  15.086  0.5934 -0.0501 -0.1766
 9525TIP3   OH249989   4.842   3.398  14.475 -0.4539 -0.2214  0.1186
 9525TIP3    H149990   4.877   3.424  14.390  1.3162 -2.2364  0.1998
 9525TIP3    H249991   4.778   3.330  14.454  0.3541 -1.0793  0.4260
 9526TIP3   OH249992   1.924   4.815  16.702 -0.0361  0.8569  0.2275
 9526TIP3    H149993   1.948   4.852  16.617 -0.8473  0.9732  0.0453
 9526TIP3    H249994   1.830   4.799  16.695  0.2796 -1.1151  0.3548
 9527TIP3   OH249995   3.677   5.993   3.887 -0.1479  0.5159 -0.4167
 9527TIP3    H149996   3.752   5.990   3.945 -1.0794  1.2766  0.8560
 9527TIP3    H249997   3.603   6.017   3.944 -1.4964 -0.9527 -1.4755
 9528TIP3   OH249998   2.284   0.759   1.919 -0.2790  0.0720 -0.2103
 9528TIP3    H149999   2.368   0.795   1.947 -1.3823  1.9638  0.8155
 9528TIP3    H250000   2.269   0.684   1.977 -0.0791  0.7666  0.7597
 9529TIP3   OH250001   0.939   0.444  16.409  0.8103 -0.5288 -0.4810
 9529TIP3    H150002   0.947   0.408  16.497  0.7621  1.9651  0.6055
 9529TIP3    H250003   0.962   0.372  16.350  4.1367 -1.3078  1.6476
 9530TIP3   OH250004   1.563   1.246  10.162 -0.1778 -0.5276 -0.4843
 9530TIP3    H150005   1.477   1.217  10.193  0.0147 -1.3556 -0.7009
 9530TIP3    H250006   1.585   1.320  10.218 -1.2153 -0.0515 -0.6974
 9531TIP3   OH250007   0.690   5.570   3.432 -0.9908  0.4224 -0.0450
 9531TIP3    H150008   0.748   5.624   3.486 -1.6594  0.8422  0.2530
 9531TIP3    H250009   0.684   5.617   3.349  0.0891 -0.2559 -0.5235
 9532TIP3   OH250010   6.786   1.340   5.262 -0.4645  0.2562 -0.0716
 9532TIP3    H150011   6.877   1.365   5.243 -0.1845  0.0645  0.9603
 9532TIP3    H250012   6.734   1.412   5.227  0.1134  0.5731 -0.2997
 9533TIP3   OH250013   4.955   6.275   0.194 -0.2689  0.3123  0.4823
 9533TIP3    H150014   4.983   6.363   0.218 -0.9976  0.4090  0.9980
 9533TIP3    H250015   5.021   6.217   0.232  0.3017  0.6444 -0.0001
 9534TIP3   OH250016   6.582   3.010  13.730 -0.1702 -0.2064  0.3081
 9534TIP3    H150017   6.603   3.089  13.680  1.3134 -1.3139 -0.8400
 9534TIP3    H250018   6.661   2.991  13.779 -0.4866 -1.0491  0.4952
 9535TIP3   OH250019   6.657   1.315  16.099 -0.2295  0.2392 -0.2319
 9535TIP3    H150020   6.726   1.295  16.036  0.0340 -2.7310  0.9483
 9535TIP3    H250021   6.702   1.360  16.170 -0.0772  1.1743 -0.9094
 9536TIP3   OH250022   4.028   2.816  15.670  0.0664 -0.2813 -0.2421
 9536TIP3    H150023   3.998   2.739  15.718  0.2664  0.0348  0.3911
 9536TIP3    H250024   4.102   2.849  15.721  0.2594  0.0756 -0.7474
 9537TIP3   OH250025   5.689   6.667  16.580 -0.1741  0.6465 -0.4312
 9537TIP3    H150026   5.700   6.583  16.536  0.8979  0.4110  0.2593
 9537TIP3    H250027   5.656   6.645  16.667 -0.1717  0.9582 -0.3488
 9538TIP3   OH250028   4.369   2.038   6.185  0.0154 -0.0538 -0.8723
 9538TIP3    H150029   4.367   2.114   6.242  2.7316 -0.0077 -0.7721
 9538TIP3    H250030   4.385   1.964   6.245 -0.4300 -0.4250 -1.2086
 9539TIP3   OH250031   6.285   2.646  11.646 -0.9695  0.4376  0.5075
 9539TIP3    H150032   6.248   2.639  11.734  0.3873  2.3085  1.2608
 9539TIP3    H250033   6.375   2.615  11.656 -0.6668  1.1108 -0.1252
 9540TIP3   OH250034   5.900   5.135   4.321  0.1146  0.0742 -1.0154
 9540TIP3    H150035   5.896   5.231   4.328 -1.5548  0.0830 -1.8620
 9540TIP3    H250036   5.902   5.105   4.412  0.4525  0.9003 -0.7387
 9541TIP3   OH250037   3.927   5.801   0.522  0.2100  0.2634 -0.5319
 9541TIP3    H150038   3.929   5.881   0.468  2.1280 -0.4649 -1.5828
 9541TIP3    H250039   4.017   5.790   0.551  0.0038 -1.6689 -0.5953
 9542TIP3   OH250040   1.422   3.579   1.216 -0.3466  0.5173  0.2071
 9542TIP3    H150041   1.427   3.673   1.232 -0.2508  0.5590 -0.0759
 9542TIP3    H250042   1.334   3.555   1.244 -0.1700  0.5882  0.8348
 9543TIP3   OH250043   4.836   4.418   0.725 -0.0856 -0.6814  0.4481
 9543TIP3    H150044   4.833   4.490   0.662 -0.4725 -1.0303  0.0665
 9543TIP3    H250045   4.923   4.380   0.713  0.2480 -0.0786  0.8801
 9544TIP3   OH250046   3.158   5.364   3.047 -0.0597  0.0622 -0.2830
 9544TIP3    H150047   3.145   5.317   2.965  0.1028 -3.2023  1.4668
 9544TIP3    H250048   3.069   5.378   3.081 -0.0297 -2.0060  0.7572
 9545TIP3   OH250049   0.734   5.564   0.434  0.1404 -0.3901 -0.0176
 9545TIP3    H150050   0.827   5.553   0.453  0.3567  2.3055  0.7018
 9545TIP3    H250051   0.690   5.538   0.514  0.1266 -2.9968 -0.8020
 9546TIP3   OH250052   3.489   3.367  14.281 -0.2242  0.0893 -0.4941
 9546TIP3    H150053   3.566   3.397  14.330 -0.4582 -0.8080  0.4466
 9546TIP3    H250054   3.511   3.385  14.190  1.6149 -1.2146 -0.3492
 9547TIP3   OH250055   6.650   6.608  15.292  0.4900  0.1853 -0.6816
 9547TIP3    H150056   6.595   6.539  15.328 -0.0039  1.2183  0.5852
 9547TIP3    H250057   6.727   6.609  15.349  0.3642  0.8744 -0.5221
 9548TIP3   OH250058   0.228   0.351   2.603  0.1822  0.0323  0.7358
 9548TIP3    H150059   0.306   0.344   2.659 -0.6311  1.8680  2.1517
 9548TIP3    H250060   0.158   0.310   2.654 -0.0291 -0.6627 -0.0899
 9549TIP3   OH250061   1.617   0.790  10.535 -0.1175  0.3249  0.6055
 9549TIP3    H150062   1.654   0.711  10.497 -2.2359 -0.2631 -0.2641
 9549TIP3    H250063   1.679   0.860  10.511 -0.4118 -0.3585 -2.2465
 9550TIP3   OH250064   1.700   3.522   1.030 -0.1627 -0.3042  0.6841
 9550TIP3    H150065   1.661   3.502   0.945 -0.6729  2.6412  0.1867
 9550TIP3    H250066   1.626   3.520   1.091 -0.2008 -0.0570  0.6472
 9551TIP3   OH250067   1.619   0.619   4.398  0.2659  0.0793  0.6877
 9551TIP3    H150068   1.709   0.634   4.369  0.0680  0.2643  0.1600
 9551TIP3    H250069   1.621   0.637   4.492  0.4736  1.4565  0.4328
 9552TIP3   OH250070   6.461   5.539   6.353 -0.4719  0.3072 -0.1882
 9552TIP3    H150071   6.500   5.471   6.407  1.0118  0.9021 -0.5023
 9552TIP3    H250072   6.475   5.511   6.263 -1.3192  0.2256 -0.3042
 9553TIP3   OH250073   4.995   6.136  14.209 -0.1287 -0.4421  0.4184
 9553TIP3    H150074   5.019   6.215  14.160 -1.2406 -0.3067  0.0941
 9553TIP3    H250075   5.063   6.128  14.277  0.4737  0.2989 -0.0893
 9554TIP3   OH250076   4.951   1.507  12.280 -0.4758  0.0274 -1.1396
 9554TIP3    H150077   4.899   1.464  12.349 -1.3632  0.6982 -1.3789
 9554TIP3    H250078   4.985   1.435  12.228  0.8981 -0.5335  0.4894
 9555TIP3   OH250079   1.595   1.482  10.303 -0.0075 -0.0227  0.1397
 9555TIP3    H150080   1.582   1.518  10.390  1.4930 -0.0997  0.3954
 9555TIP3    H250081   1.520   1.515  10.253  0.0733  1.4825  0.9782
 9556TIP3   OH250082   0.984   1.336  12.435  0.1749 -0.2241 -0.0804
 9556TIP3    H150083   0.987   1.315  12.528 -0.3017 -0.8639 -0.2046
 9556TIP3    H250084   1.071   1.315  12.402  0.8205  1.4473  0.5136
 9557TIP3   OH250085   2.419   0.898   5.763  0.6220 -0.1087  0.2794
 9557TIP3    H150086   2.394   0.984   5.797  0.8033  0.0162  0.0962
 9557TIP3    H250087   2.483   0.865   5.826 -0.2367 -0.5678  0.9271
 9558TIP3   OH250088   6.689   3.659   4.984 -0.8573  0.3988  0.1007
 9558TIP3    H150089   6.752   3.605   5.031  0.7757  2.2365  0.0791
 9558TIP3    H250090   6.622   3.598   4.953  1.0303 -1.6065 -0.0615
 9559TIP3   OH250091   4.324   6.227  13.659 -0.5332  0.7210  0.3270
 9559TIP3    H150092   4.374   6.303  13.687 -0.6117  0.8580  0.0930
 9559TIP3    H250093   4.306   6.242  13.566 -3.4147  2.0380  1.0533
 9560TIP3   OH250094   2.212   5.266  14.903  0.3216 -0.0269  0.4049
 9560TIP3    H150095   2.289   5.213  14.881 -0.2220  0.2048 -2.1950
 9560TIP3    H250096   2.153   5.206  14.947  1.0259 -0.8010  0.2958
 9561TIP3   OH250097   5.770   6.051  14.692 -0.1177  0.1635 -0.4995
 9561TIP3    H150098   5.693   6.013  14.650 -0.6287  0.0669  0.4930
 9561TIP3    H250099   5.794   6.125  14.636 -2.0427  1.3293  0.1418
 9562TIP3   OH250100   5.329   5.306   0.075 -0.1696  0.6236  0.2653
 9562TIP3    H150101   5.246   5.322   0.029 -0.7229 -1.0644  0.6102
 9562TIP3    H250102   5.313   5.334   0.164  0.7812  3.5505 -0.4509
 9563TIP3   OH250103   6.537   5.047   3.685  0.9303  0.1524  0.2742
 9563TIP3    H150104   6.585   5.119   3.645 -0.3473  1.6524  1.3606
 9563TIP3    H250105   6.522   5.077   3.775 -1.0476 -0.7567  0.2580
 9564TIP3   OH250106   1.235   2.585   5.495 -0.1204 -0.8100  0.2387
 9564TIP3    H150107   1.277   2.599   5.410 -1.4028  0.2392 -0.2353
 9564TIP3    H250108   1.165   2.522   5.478  1.1909 -2.5163  1.0198
 9565TIP3   OH250109   0.473   4.017  14.891  0.5646 -0.3711 -0.0682
 9565TIP3    H150110   0.411   4.088  14.903  2.2165  1.0861  0.0508
 9565TIP3    H250111   0.524   4.041  14.813  0.8949 -1.6061 -0.2571
 9566TIP3   OH250112   5.815   1.429  16.929 -0.7301 -0.3540 -0.0313
 9566TIP3    H150113   5.819   1.365  16.858 -0.5841 -3.2195  2.4577
 9566TIP3    H250114   5.885   1.491  16.910 -1.3600 -0.4827 -2.9108
 9567TIP3   OH250115   1.442   2.641   3.132  0.0522 -0.0407  0.1976
 9567TIP3    H150116   1.347   2.634   3.121  0.2207 -2.1592 -0.2726
 9567TIP3    H250117   1.477   2.609   3.049  1.1910 -1.7287  1.2937
 9568TIP3   OH250118   5.881   5.146  12.478  0.0528 -0.4246 -0.4392
 9568TIP3    H150119   5.963   5.189  12.503 -1.0900  1.3052  0.3913
 9568TIP3    H250120   5.893   5.124  12.385  1.0952  0.6653 -0.5722
 9569TIP3   OH250121   2.506   0.860  14.203  0.0035  0.5895  0.5107
 9569TIP3    H150122   2.578   0.885  14.261 -0.7948  1.3717  1.1797
 9569TIP3    H250123   2.543   0.792  14.146  1.5302  1.6099  0.2577
 9570TIP3   OH250124   6.310   2.124  11.739  0.2429  0.3594 -0.2060
 9570TIP3    H150125   6.303   2.115  11.644 -2.6150 -0.3068 -0.0003
 9570TIP3    H250126   6.220   2.111  11.771  0.7601  2.7493  2.4178
 9571TIP3   OH250127   3.354   1.572   1.596 -0.2258  0.7529  0.6858
 9571TIP3    H150128   3.303   1.588   1.517  1.0180  0.4773 -0.1915
 9571TIP3    H250129   3.432   1.526   1.566  0.3243  0.7385  2.0650
 9572TIP3   OH250130   1.576   0.386  15.762  0.3830 -0.1083  0.0457
 9572TIP3    H150131   1.630   0.325  15.811  2.0273  0.7020 -0.7459
 9572TIP3    H250132   1.488   0.373  15.798  0.9248 -2.0331  0.7426
 9573TIP3   OH250133   3.486   6.744   2.629 -0.4748 -0.2871 -0.2764
 9573TIP3    H150134   3.452   6.701   2.550 -3.9682  0.4668  0.7090
 9573TIP3    H250135   3.438   6.703   2.701 -1.1462  2.6038  1.0028
 9574TIP3   OH250136   5.469   1.756   5.408 -0.4164  0.3391 -0.3297
 9574TIP3    H150137   5.432   1.835   5.367  1.0381  1.1275 -0.1628
 9574TIP3    H250138   5.408   1.735   5.478 -0.9395  1.1899 -0.5127
 9575TIP3   OH250139   2.779   1.737  16.078 -0.3589 -0.2437 -0.2622
 9575TIP3    H150140   2.834   1.799  16.124 -2.0086  0.1026  1.2960
 9575TIP3    H250141   2.832   1.707  16.004  0.6182  2.6467 -0.7659
 9576TIP3   OH250142   4.622   3.599   5.271 -0.0944 -0.1985 -0.0959
 9576TIP3    H150143   4.704   3.591   5.222 -0.2987  1.2149 -0.7075
 9576TIP3    H250144   4.645   3.647   5.350 -0.7179  2.2712 -1.3586
 9577TIP3   OH250145   0.422   1.630   0.793 -0.4341  0.5031  0.1574
 9577TIP3    H150146   0.403   1.723   0.782  3.0644  0.9907 -2.5936
 9577TIP3    H250147   0.367   1.585   0.729  1.5807  1.1883 -2.1171
 9578TIP3   OH250148   2.916   2.015  14.048 -0.4135  0.0854  0.1648
 9578TIP3    H150149   2.828   2.043  14.073 -0.6297 -1.6021  1.3823
 9578TIP3    H250150   2.974   2.081  14.085 -0.9705 -0.4918  2.1309
 9579TIP3   OH250151   2.758   6.203   3.653 -0.0740 -0.1158 -0.2765
 9579TIP3    H150152   2.806   6.121   3.643 -0.4039 -0.5828  1.7651
 9579TIP3    H250153   2.707   6.191   3.733 -2.3031  1.0217 -1.4847
 9580TIP3   OH250154   4.225   4.593   2.238 -0.0421  0.3763 -0.0942
 9580TIP3    H150155   4.247   4.667   2.295 -1.6378 -0.2529  1.3571
 9580TIP3    H250156   4.142   4.560   2.271 -1.1324  0.1192 -2.9380
 9581TIP3   OH250157   4.236   3.958  13.297 -0.1297  0.4145 -0.2135
 9581TIP3    H150158   4.313   3.958  13.355 -0.9708  1.6855  0.9392
 9581TIP3    H250159   4.241   3.875  13.250  0.9691 -0.3210  1.1704
 9582TIP3   OH250160   3.994   4.062   3.265  0.1472 -0.4042 -0.2835
 9582TIP3    H150161   4.032   4.137   3.311 -0.0920 -1.0046  0.9031
 9582TIP3    H250162   3.906   4.090   3.241  1.2944  1.0160 -3.0901
 9583TIP3   OH250163   3.319   0.977   0.605 -0.0922 -0.3023  0.0586
 9583TIP3    H150164   3.291   0.933   0.525 -0.8767 -0.8751  0.6434
 9583TIP3    H250165   3.274   0.931   0.675  2.2891 -1.2357  1.0391
 9584TIP3   OH250166   1.093   4.885   2.248  0.7828  0.8988  0.2281
 9584TIP3    H150167   1.184   4.857   2.237  0.5616  0.0458  0.5754
 9584TIP3    H250168   1.074   4.933   2.167  1.1155 -0.0879 -0.4502
 9585TIP3   OH250169   2.292   6.697  15.938 -0.0813 -0.0671 -0.5445
 9585TIP3    H150170   2.280   6.758  16.011 -2.4506 -1.5030  0.2974
 9585TIP3    H250171   2.351   6.743  15.878  0.5355  1.8270  1.4625
 9586TIP3   OH250172   1.949   0.075   4.170  0.4718  0.3841  0.4601
 9586TIP3    H150173   1.875   0.131   4.148  0.6706  0.5742  0.2603
 9586TIP3    H250174   1.911  -0.001   4.212  0.3423  1.6680  2.7854
 9587TIP3   OH250175   6.067   4.918  15.720  0.1332 -0.7577  0.1877
 9587TIP3    H150176   6.160   4.897  15.724  0.2710 -0.2575 -0.3174
 9587TIP3    H250177   6.034   4.867  15.646  0.0150 -0.8882  0.3280
 9588TIP3   OH250178   0.938   2.645  16.679  0.1158 -0.1016 -0.7623
 9588TIP3    H150179   0.924   2.610  16.767  3.5271  2.4201  0.9407
 9588TIP3    H250180   0.991   2.579  16.635 -0.2588 -0.6614 -0.3835
 9589TIP3   OH250181   4.725   0.651  13.760  0.9087  0.4186  0.0794
 9589TIP3    H150182   4.635   0.619  13.759  0.1146  2.5273 -1.3101
 9589TIP3    H250183   4.722   0.729  13.817  1.0281  2.5501 -2.7181
 9590TIP3   OH250184   2.763   2.419  16.997  0.8031  0.3461  0.0837
 9590TIP3    H150185   2.667   2.420  16.999  0.7813  3.3534  1.3882
 9590TIP3    H250186   2.787   2.329  17.015 -1.7796 -0.2313  0.8276
 9591TIP3   OH250187   2.467   5.200   5.901 -0.8118 -0.2082  0.0654
 9591TIP3    H150188   2.416   5.280   5.897  1.0734  1.0002 -0.5750
 9591TIP3    H250189   2.462   5.172   5.993 -0.1191  1.5653  0.6586
 9592TIP3   OH250190   0.628   6.550   6.547  0.3028 -0.0799 -0.3512
 9592TIP3    H150191   0.588   6.565   6.461 -0.7335 -0.3212  0.0804
 9592TIP3    H250192   0.619   6.633   6.593  0.0385 -0.2191 -0.1491
 9593TIP3   OH250193   2.964   2.616   1.754  0.4030  0.4778 -0.2390
 9593TIP3    H150194   3.014   2.554   1.806 -0.4689  0.0960  0.1627
 9593TIP3    H250195   2.953   2.573   1.669 -1.9777 -0.8617  0.6936
 9594TIP3   OH250196   2.931   1.369   5.411  0.4098  0.9862  0.6717
 9594TIP3    H150197   2.877   1.409   5.343  0.5830  1.4851  0.8228
 9594TIP3    H250198   2.884   1.290   5.436  0.7886  0.3351 -0.6515
 9595TIP3   OH250199   0.375   6.572   0.517 -0.4776  0.0525  0.0528
 9595TIP3    H150200   0.328   6.534   0.442  0.0837 -0.9448  0.1934
 9595TIP3    H250201   0.443   6.626   0.478  0.3305 -1.1102 -0.1755
 9596TIP3   OH250202   6.098   5.197  13.185 -0.1486 -0.0211  0.4499
 9596TIP3    H150203   6.123   5.167  13.098  0.0090 -2.0928  1.1656
 9596TIP3    H250204   6.181   5.225  13.225  0.0671 -0.7616  0.5411
 9597TIP3   OH250205   1.638   0.281   1.745  0.5696 -0.0748  0.1314
 9597TIP3    H150206   1.557   0.250   1.784  1.6466 -0.3784  2.1729
 9597TIP3    H250207   1.687   0.201   1.725  1.3429  0.1507  1.0699
 9598TIP3   OH250208   0.861   1.978  12.736  0.5067 -0.4271  0.4242
 9598TIP3    H150209   0.955   1.969  12.716  0.7529  0.8627  0.9558
 9598TIP3    H250210   0.820   1.905  12.689  1.5379  0.1706 -1.4559
 9599TIP3   OH250211   2.003   3.543   4.620  0.3543 -0.6634  0.5320
 9599TIP3    H150212   1.987   3.599   4.544  0.9701 -1.3680 -0.1234
 9599TIP3    H250213   2.082   3.494   4.598 -0.4029 -2.0951  0.9183
 9600TIP3   OH250214   0.169   0.698  14.695  0.3757  0.0251 -0.2074
 9600TIP3    H150215   0.147   0.634  14.762  0.6633  0.3270  0.1819
 9600TIP3    H250216   0.165   0.782  14.741 -0.0362  0.2879 -0.7216
 9601TIP3   OH250217   3.248   1.195  12.399  0.7844 -0.2968  0.2593
 9601TIP3    H150218   3.266   1.279  12.357 -1.5959  0.3102  0.3892
 9601TIP3    H250219   3.298   1.198  12.481  1.3281  0.6624 -0.0913
 9602TIP3   OH250220   5.700   1.109  14.309  0.1617  0.2680 -0.1551
 9602TIP3    H150221   5.666   1.186  14.355 -1.4831 -1.5773  1.8190
 9602TIP3    H250222   5.629   1.083  14.250  1.1786  0.9539 -1.7011
 9603TIP3   OH250223   5.468   5.227   3.413  0.4540 -0.2276 -0.4757
 9603TIP3    H150224   5.491   5.238   3.505 -0.4545 -1.6577 -0.0719
 9603TIP3    H250225   5.492   5.136   3.393 -3.3022 -1.2751 -0.4849
 9604TIP3   OH250226   5.213   1.676   2.106  0.0546  0.2547  0.4195
 9604TIP3    H150227   5.170   1.754   2.141 -1.1349 -0.1466 -0.1262
 9604TIP3    H250228   5.146   1.634   2.053  0.3361 -1.7945  1.6638
 9605TIP3   OH250229   4.840   5.214  11.379  0.2632  0.2300  0.1966
 9605TIP3    H150230   4.871   5.205  11.289 -0.5010  0.8694 -0.1272
 9605TIP3    H250231   4.749   5.185  11.377  0.8618 -1.7535  1.1817
 9606TIP3   OH250232   6.717   1.446  11.359  0.5241  0.1157 -0.2878
 9606TIP3    H150233   6.791   1.397  11.322 -0.1179 -0.5447 -0.7249
 9606TIP3    H250234   6.680   1.387  11.425  1.1974  0.9850  0.8671
 9607TIP3   OH250235   5.757   2.954  12.010  0.2178 -0.1806  0.2280
 9607TIP3    H150236   5.776   3.033  11.959  0.9202 -0.6833 -0.2900
 9607TIP3    H250237   5.839   2.905  12.010 -0.2837 -1.0237  0.3462
 9608TIP3   OH250238   1.870   6.117   2.111 -0.0132 -0.0766  0.7260
 9608TIP3    H150239   1.900   6.081   2.028 -1.9693 -1.1149  0.4275
 9608TIP3    H250240   1.942   6.173   2.141  1.0905 -0.4297 -1.1892
 9609TIP3   OH250241   2.661   0.260   5.588 -0.1103  0.0876 -0.3499
 9609TIP3    H150242   2.705   0.210   5.658 -1.0183  0.4690  0.5008
 9609TIP3    H250243   2.723   0.257   5.515  0.6480 -0.7301  0.3046
 9610TIP3   OH250244   3.738   3.129  15.464  0.5462 -0.1774  0.7375
 9610TIP3    H150245   3.781   3.211  15.488  1.4002 -0.1234 -0.8971
 9610TIP3    H250246   3.759   3.068  15.535  2.6920  0.0790  0.3434
 9611TIP3   OH250247   0.251   5.904  13.550 -0.2636 -0.1156  1.0707
 9611TIP3    H150248   0.188   5.868  13.487  1.0662 -1.5689  0.5397
 9611TIP3    H250249   0.219   5.874  13.635 -0.6326 -0.3195  0.8629
 9612TIP3   OH250250   5.442   5.091   6.163  0.0595  0.6354  0.0697
 9612TIP3    H150251   5.375   5.153   6.133 -0.0994  0.4099 -0.0472
 9612TIP3    H250252   5.458   5.034   6.088 -0.1540  0.2297  0.3269
 9613TIP3   OH250253   4.862   0.069   1.650 -0.6246 -0.0465 -0.2932
 9613TIP3    H150254   4.816   0.153   1.637  1.2129  0.8428 -1.3290
 9613TIP3    H250255   4.806   0.005   1.607 -1.9922  0.6602  0.3784
 9614TIP3   OH250256   2.479   4.870   0.418 -0.3898  0.1410 -0.0650
 9614TIP3    H150257   2.499   4.821   0.337 -0.0521  0.6540 -0.2969
 9614TIP3    H250258   2.514   4.815   0.488 -0.2505 -0.0789 -0.3041
 9615TIP3   OH250259   4.990   3.178  13.255 -0.2780  0.1698  0.2793
 9615TIP3    H150260   4.938   3.167  13.176  0.5883 -1.7491 -0.0644
 9615TIP3    H250261   4.932   3.222  13.317 -2.1166 -1.4287 -0.2770
 9616TIP3   OH250262   3.121   0.632  11.323 -0.3770  0.0092  0.0470
 9616TIP3    H150263   3.079   0.601  11.243 -0.2898 -0.6635  0.2572
 9616TIP3    H250264   3.179   0.561  11.349 -0.2429  0.3103  0.5906
 9617TIP3   OH250265   2.776   1.047   1.846  0.2268  0.4891  0.6347
 9617TIP3    H150266   2.813   0.960   1.866 -0.3543  0.1754  0.3665
 9617TIP3    H250267   2.683   1.030   1.832  0.6166  0.6551 -2.5625
 9618TIP3   OH250268   1.638   4.314  17.159 -0.3410 -0.1038 -0.7023
 9618TIP3    H150269   1.730   4.294  17.142  0.2296  1.1066  0.8293
 9618TIP3    H250270   1.606   4.353  17.078  0.4763 -0.5656 -1.2589
 9619TIP3   OH250271   6.377   6.438  12.272  0.2148 -0.0014 -0.0149
 9619TIP3    H150272   6.401   6.531  12.279 -0.3372  0.0172  1.9891
 9619TIP3    H250273   6.293   6.438  12.226  1.2147  0.3266 -1.8914
 9620TIP3   OH250274   1.392   2.415   3.396 -0.1298 -0.3989  0.4262
 9620TIP3    H150275   1.330   2.435   3.466 -1.1104 -1.3808 -0.1385
 9620TIP3    H250276   1.425   2.328   3.416  1.3082  0.2368  0.8795
 9621TIP3   OH250277   0.381   4.318   1.024  0.0224  0.7978 -0.1107
 9621TIP3    H150278   0.355   4.326   0.932 -0.5588  0.4198  0.0213
 9621TIP3    H250279   0.334   4.389   1.069  0.8596  1.4335 -0.2169
 9622TIP3   OH250280   5.874   2.846   1.668 -0.0481 -0.0033 -0.4819
 9622TIP3    H150281   5.868   2.755   1.639  0.8986  0.1376 -1.1298
 9622TIP3    H250282   5.791   2.885   1.642 -0.5405 -0.7298 -0.0194
 9623TIP3   OH250283   5.490   2.296   6.577  0.0638  0.5535 -0.9965
 9623TIP3    H150284   5.542   2.321   6.654 -0.1725 -0.4036 -0.5190
 9623TIP3    H250285   5.409   2.346   6.586 -0.1060  0.1823 -0.4369
 9624TIP3   OH250286   4.395   5.304   3.404 -0.3714  0.0223 -0.3447
 9624TIP3    H150287   4.308   5.305   3.365 -0.0845  2.4335 -0.9811
 9624TIP3    H250288   4.452   5.344   3.338  1.1329 -0.9586  0.3079
 9625TIP3   OH250289   5.458   4.424   5.661  0.5364 -0.5735 -0.0655
 9625TIP3    H150290   5.486   4.333   5.661 -1.5026 -1.2206  1.1651
 9625TIP3    H250291   5.374   4.424   5.617  1.3098  1.0071 -1.6300
 9626TIP3   OH250292   3.204   2.485  16.304 -0.0534  0.2221 -0.2787
 9626TIP3    H150293   3.225   2.561  16.358 -1.8098 -0.0299  0.8011
 9626TIP3    H250294   3.119   2.505  16.267  0.2579 -0.4765 -1.3899
 9627TIP3   OH250295   2.884   2.467  11.620  0.2646 -0.2503  0.1730
 9627TIP3    H150296   2.858   2.531  11.554 -0.4784 -1.5107 -0.7543
 9627TIP3    H250297   2.910   2.521  11.695 -0.8379  1.1392 -0.4115
 9628TIP3   OH250298   0.336   4.067   1.207 -0.0929  0.0108  0.3023
 9628TIP3    H150299   0.294   4.081   1.122  0.3748  1.1264  0.2457
 9628TIP3    H250300   0.430   4.079   1.190  0.1229 -0.9762  0.7332
 9629TIP3   OH250301   6.007   2.728  12.754 -0.0944 -0.0215 -0.5656
 9629TIP3    H150302   6.020   2.822  12.764 -0.7206  0.2346 -2.0679
 9629TIP3    H250303   5.943   2.720  12.683 -0.2234 -1.5711 -0.2925
 9630TIP3   OH250304   3.639   1.036  11.309 -0.8690 -0.6147 -0.3106
 9630TIP3    H150305   3.577   1.056  11.379  0.2583  2.9129 -0.2374
 9630TIP3    H250306   3.707   0.985  11.352  0.2739  2.2861  1.4704
 9631TIP3   OH250307   2.400   4.842  12.113 -0.1625 -0.1102  0.1697
 9631TIP3    H150308   2.374   4.774  12.051 -0.4107  0.2438 -0.1212
 9631TIP3    H250309   2.351   4.920  12.085  1.1757  0.5517 -0.3450
 9632TIP3   OH250310   0.919   3.530   1.102  0.4015 -0.7273 -0.3259
 9632TIP3    H150311   0.885   3.458   1.156 -0.8967  0.3896  0.3801
 9632TIP3    H250312   0.891   3.507   1.013  0.0820 -1.1475 -0.1215
 9633TIP3   OH250313   6.274   1.681   1.583 -0.3159  0.2796  0.4146
 9633TIP3    H150314   6.210   1.717   1.644 -1.1479 -0.6511  0.1022
 9633TIP3    H250315   6.233   1.689   1.497 -0.8697 -2.1047  0.4132
 9634TIP3   OH250316   1.311   0.930  14.530  0.0003 -0.1011  0.1332
 9634TIP3    H150317   1.349   0.878  14.460 -0.9209 -0.5230 -0.0616
 9634TIP3    H250318   1.311   1.020  14.496 -1.1324 -0.4110 -0.7208
 9635TIP3   OH250319   5.395   6.424   4.948 -0.1688 -0.0328 -0.0914
 9635TIP3    H150320   5.411   6.506   4.901 -0.2444 -0.7844 -1.4680
 9635TIP3    H250321   5.319   6.442   5.003  0.2166  1.0140  0.1163
 9636TIP3   OH250322   3.671   5.135   6.336  0.1624  0.5475  0.5603
 9636TIP3    H150323   3.738   5.173   6.280  1.5373  0.8384  2.3676
 9636TIP3    H250324   3.592   5.186   6.317  0.2830 -0.1840 -1.9911
 9637TIP3   OH250325   2.526   5.718  15.394  0.1372 -0.1835 -0.2592
 9637TIP3    H150326   2.592   5.779  15.361  1.6727 -0.8967  1.4688
 9637TIP3    H250327   2.547   5.706  15.486 -1.0884 -2.1265 -0.2017
 9638TIP3   OH250328   0.489   5.724   2.947  0.3733 -0.1542  0.0850
 9638TIP3    H150329   0.489   5.677   2.864 -1.4901  0.6535 -0.3950
 9638TIP3    H250330   0.505   5.815   2.924 -1.2017  0.2385  0.4935
 9639TIP3   OH250331   3.656   0.976   3.624 -0.0054 -0.2669 -0.0086
 9639TIP3    H150332   3.634   1.058   3.668 -0.1101 -0.2296 -0.1313
 9639TIP3    H250333   3.714   0.930   3.686  0.5525  0.1680 -0.2089
 9640TIP3   OH250334   1.075   2.398  14.030  0.4187  0.3275  0.2864
 9640TIP3    H150335   1.113   2.388  13.942  0.9609 -1.7492  0.7524
 9640TIP3    H250336   1.026   2.317  14.045  2.0387 -0.2432  2.7365
 9641TIP3   OH250337   5.893   2.157   3.024 -0.2463  0.2156  0.1382
 9641TIP3    H150338   5.863   2.127   2.938 -0.6200 -0.9824  0.6738
 9641TIP3    H250339   5.930   2.078   3.066  2.6091  1.3800 -0.0426
 9642TIP3   OH250340   5.440   2.657   1.681  0.6395  0.2744  0.0751
 9642TIP3    H150341   5.393   2.607   1.615  0.9559  2.4179 -1.8289
 9642TIP3    H250342   5.528   2.621   1.681 -0.0006 -1.3935  1.1640
 9643TIP3   OH250343   4.290   5.754  15.483  0.5218  0.4268  0.1458
 9643TIP3    H150344   4.279   5.659  15.489 -1.8316  0.7226  1.2149
 9643TIP3    H250345   4.352   5.766  15.412 -0.7651 -1.8524 -1.4537
 9644TIP3   OH250346   1.141   5.309   5.424  0.0298 -0.2633  0.0334
 9644TIP3    H150347   1.118   5.383   5.368  0.7030  0.4041  0.6360
 9644TIP3    H250348   1.159   5.238   5.363  2.3932  0.9105 -0.7017
 9645TIP3   OH250349   4.082   6.261   2.505 -0.3208 -0.1136 -0.3942
 9645TIP3    H150350   3.987   6.270   2.504 -0.1370  2.8398  1.3944
 9645TIP3    H250351   4.111   6.306   2.425 -0.3873 -0.3388 -0.5451
 9646TIP3   OH250352   1.815   2.723   2.367 -0.4029 -0.4684 -0.1414
 9646TIP3    H150353   1.835   2.680   2.451  1.0543 -1.9584 -1.2136
 9646TIP3    H250354   1.851   2.812   2.377  0.4790 -0.8908  0.5292
 9647TIP3   OH250355   1.198   3.132  12.943  0.0876 -0.0100  0.7681
 9647TIP3    H150356   1.227   3.040  12.945  2.0966  0.5605 -0.3010
 9647TIP3    H250357   1.150   3.144  13.024 -1.3466 -2.3773  0.3267
 9648TIP3   OH250358   1.558   5.959  14.927  0.0599  0.1146 -0.3263
 9648TIP3    H150359   1.639   5.943  14.879 -1.3842 -1.3201 -2.3470
 9648TIP3    H250360   1.548   6.054  14.928  1.2502  0.2455 -0.9027
 9649TIP3   OH250361   6.737   0.690  15.719 -0.0418  0.0836  0.0604
 9649TIP3    H150362   6.662   0.723  15.769 -0.0175  1.9601 -1.1090
 9649TIP3    H250363   6.699   0.659  15.637  0.4212  0.8581 -0.4549
 9650TIP3   OH250364   4.022   1.072  14.653  0.3833  0.2230  0.0501
 9650TIP3    H150365   3.964   1.094  14.725  0.8327 -0.1809  0.5464
 9650TIP3    H250366   4.081   1.005  14.690  0.4384 -0.1884 -0.7672
 9651TIP3   OH250367   4.575   5.991  14.529  0.1796 -0.5941 -0.5013
 9651TIP3    H150368   4.633   6.066  14.520 -0.9170  0.5178  1.4060
 9651TIP3    H250369   4.633   5.916  14.537  1.3007  0.2013 -1.1077
 9652TIP3   OH250370   1.861   3.962  17.224  0.5562 -0.2178 -0.6166
 9652TIP3    H150371   1.859   3.882  17.277 -0.6462  0.0195 -0.2813
 9652TIP3    H250372   1.884   4.031  17.286  2.0945 -0.3626 -1.0048
 9653TIP3   OH250373   1.048   6.380   3.203 -0.0268  0.6522  0.5320
 9653TIP3    H150374   0.958   6.404   3.180  0.3109  2.1105  0.7432
 9653TIP3    H250375   1.098   6.396   3.123  0.0736 -0.1229  0.4284
 9654TIP3   OH250376   1.627   4.102   1.378  0.0750 -0.3652 -0.9853
 9654TIP3    H150377   1.606   4.035   1.313 -0.4597 -1.8873  0.6845
 9654TIP3    H250378   1.721   4.091   1.394 -0.1053 -1.0860 -0.3557
 9655TIP3   OH250379   4.172   5.345  14.832  0.0621  0.4997  0.1674
 9655TIP3    H150380   4.187   5.377  14.744  1.4023 -0.5245  0.0127
 9655TIP3    H250381   4.097   5.395  14.863 -1.1228  0.1053 -1.9538
 9656TIP3   OH250382   3.403   5.443   6.021 -0.4658 -0.3191 -0.0749
 9656TIP3    H150383   3.343   5.518   6.015  0.0761 -0.0258 -2.2584
 9656TIP3    H250384   3.407   5.408   5.932  0.9741 -1.6375  0.4786
 9657TIP3   OH250385   0.573   0.568   4.045  0.2346  0.1131 -0.2621
 9657TIP3    H150386   0.587   0.596   4.135  0.6703  2.1942 -0.9525
 9657TIP3    H250387   0.505   0.627   4.012 -1.1636 -1.7445 -0.7880
 9658TIP3   OH250388   4.235   3.077  11.862 -0.2896 -0.3654 -0.4912
 9658TIP3    H150389   4.163   3.136  11.842 -0.9948  0.6173  4.2902
 9658TIP3    H250390   4.314   3.128  11.847 -0.8350  0.9724  1.0451
 9659TIP3   OH250391   1.558   6.035  10.732 -0.2527 -0.1758  0.3638
 9659TIP3    H150392   1.605   5.956  10.703 -1.6715 -0.5127 -1.0689
 9659TIP3    H250393   1.607   6.107  10.692  0.3249 -0.3865  0.6767
 9660TIP3   OH250394   4.641   3.226   3.168  0.6792  0.0803  0.2553
 9660TIP3    H150395   4.657   3.214   3.074  0.4422  0.8250  0.1216
 9660TIP3    H250396   4.653   3.320   3.183 -0.1919  0.1039  0.8059
 9661TIP3   OH250397   5.388   5.349  16.694 -0.3748 -1.3608  0.3758
 9661TIP3    H150398   5.431   5.408  16.631 -1.7287 -0.0761  0.6240
 9661TIP3    H250399   5.348   5.282  16.639 -1.3146 -0.4029 -0.1338
 9662TIP3   OH250400   4.901   3.241  11.721 -0.0458  0.2647 -0.3796
 9662TIP3    H150401   4.977   3.232  11.779  0.2953  1.5051 -0.6033
 9662TIP3    H250402   4.925   3.192  11.643  0.4291  0.4394 -0.3486
 9663TIP3   OH250403   0.240   3.867  14.051 -1.2033  0.0507  0.1051
 9663TIP3    H150404   0.218   3.955  14.080 -2.2779 -0.3051  0.3947
 9663TIP3    H250405   0.173   3.846  13.985 -2.2240 -1.3325  1.5316
 9664TIP3   OH250406   2.854   0.220  16.151  0.4352  0.0120 -0.0129
 9664TIP3    H150407   2.814   0.306  16.134 -0.9229 -0.8406 -1.2716
 9664TIP3    H250408   2.921   0.237  16.217 -1.1616  1.7118  1.2126
 9665TIP3   OH250409   1.640   2.271  16.662  0.5991 -0.1935  0.3527
 9665TIP3    H150410   1.555   2.248  16.626  0.8319 -0.5998  0.0592
 9665TIP3    H250411   1.696   2.284  16.586  0.8962 -0.3022  0.5489
 9666TIP3   OH250412   4.219   0.058  14.170 -0.1756 -0.0455 -0.2034
 9666TIP3    H150413   4.296   0.101  14.207 -1.0322  1.0391  0.3409
 9666TIP3    H250414   4.198  -0.011  14.232 -0.2035  0.2525  0.1170
 9667TIP3   OH250415   2.609   4.298   3.851  0.4668  0.0124  0.0382
 9667TIP3    H150416   2.688   4.245   3.844 -0.1932 -1.0189  0.2433
 9667TIP3    H250417   2.537   4.237   3.833 -0.2210  1.1822 -1.2498
 9668TIP3   OH250418   2.786   0.134   2.314  0.2332  0.5458 -0.2382
 9668TIP3    H150419   2.824   0.071   2.252 -0.9054  0.6206 -1.0141
 9668TIP3    H250420   2.803   0.219   2.274 -0.4727  0.5964 -0.4298
 9669TIP3   OH250421   0.685   2.777  16.599 -0.0947 -0.4623 -0.5937
 9669TIP3    H150422   0.633   2.697  16.595 -1.0929  0.1774 -0.8916
 9669TIP3    H250423   0.774   2.748  16.615 -0.5001 -1.6092 -0.3859
 9670TIP3   OH250424   6.512   0.626  17.169 -0.6119  0.6409 -0.3640
 9670TIP3    H150425   6.590   0.657  17.124  0.0267  0.4478  0.5844
 9670TIP3    H250426   6.458   0.586  17.101  0.4197  0.1793 -0.9175
 9671TIP3   OH250427   1.274   6.425   1.003  0.2381 -0.3541 -0.5495
 9671TIP3    H150428   1.237   6.379   0.928  1.2408  0.1268 -1.3400
 9671TIP3    H250429   1.228   6.388   1.079  1.2006 -2.8225 -1.1329
 9672TIP3   OH250430   4.565   4.934   0.140 -0.0856 -0.2711  0.5763
 9672TIP3    H150431   4.660   4.938   0.127 -0.1840 -1.4558 -0.6078
 9672TIP3    H250432   4.551   4.857   0.195 -0.6215 -2.1904 -2.1739
 9673TIP3   OH250433   4.050   1.719   5.320 -0.4070  0.1969 -0.7995
 9673TIP3    H150434   3.996   1.781   5.370 -0.3964  0.4659 -1.1196
 9673TIP3    H250435   4.048   1.753   5.231  0.2317  0.1679 -0.8285
 9674TIP3   OH250436   6.479   2.213  15.243  0.8258  0.0119 -0.2783
 9674TIP3    H150437   6.539   2.231  15.171  1.9797 -2.1204  0.1327
 9674TIP3    H250438   6.531   2.162  15.306 -0.2110  1.6285  1.9687
 9675TIP3   OH250439   5.810   4.571  16.278  0.0423  0.3491  0.1404
 9675TIP3    H150440   5.850   4.650  16.241  0.4941  0.0872  0.0741
 9675TIP3    H250441   5.801   4.511  16.205 -0.6754  0.4819  0.1100
 9676TIP3   OH250442   4.955   5.330  14.932 -0.1539 -0.0566  0.1638
 9676TIP3    H150443   4.989   5.241  14.946  0.1342  0.0476  0.1105
 9676TIP3    H250444   4.908   5.350  15.013 -0.4272 -0.3523  0.0823
 9677TIP3   OH250445   0.384   5.428   5.583  0.0402 -0.1104 -0.0417
 9677TIP3    H150446   0.477   5.450   5.587 -0.3553  1.5635  0.7555
 9677TIP3    H250447   0.354   5.462   5.498  0.0489 -0.1413 -0.0571
 9678TIP3   OH250448   1.989   3.519   1.561  0.1166 -0.5505  0.0315
 9678TIP3    H150449   2.032   3.579   1.500 -0.0905 -0.6452 -0.2112
 9678TIP3    H250450   2.047   3.443   1.564  0.6385 -0.1341  0.7328
 9679TIP3   OH250451   0.259   3.520  11.797 -0.2826  0.2588  0.2071
 9679TIP3    H150452   0.226   3.609  11.808 -2.1018 -0.5637  1.6265
 9679TIP3    H250453   0.271   3.488  11.887  0.5734 -0.8604 -0.2912
 9680TIP3   OH250454   1.724   5.132   3.887 -0.3259  0.2998  0.1854
 9680TIP3    H150455   1.786   5.083   3.941 -1.0801 -0.0763  0.7244
 9680TIP3    H250456   1.779   5.188   3.832  0.4694  0.3511  1.0154
 9681TIP3   OH250457   0.650   3.346   2.520 -0.7871  0.4683 -0.2022
 9681TIP3    H150458   0.597   3.314   2.446 -0.7160  0.6313 -0.3245
 9681TIP3    H250459   0.593   3.335   2.596 -0.4818 -0.6693 -0.1240
 9682TIP3   OH250460   5.400   3.379  14.773  0.0937 -0.2009 -0.6299
 9682TIP3    H150461   5.385   3.294  14.733 -1.4072  0.5001 -1.5774
 9682TIP3    H250462   5.323   3.395  14.827  0.8942  0.0502  0.4596
 9683TIP3   OH250463   2.499   1.670   4.364 -0.8471 -0.2674  0.5831
 9683TIP3    H150464   2.562   1.597   4.364 -1.4382 -0.7850 -0.1785
 9683TIP3    H250465   2.506   1.706   4.276 -0.9628  0.2462  0.7867
 9684TIP3   OH250466   5.428   1.922  12.016  0.3017  0.2207  0.3712
 9684TIP3    H150467   5.521   1.915  12.037  0.2474 -1.6896  0.0908
 9684TIP3    H250468   5.383   1.898  12.098  0.0729 -1.0555 -0.1214
 9685TIP3   OH250469   4.822   1.732  12.824  0.3004  0.2830 -0.2930
 9685TIP3    H150470   4.905   1.695  12.794 -0.7666 -0.6614 -2.2148
 9685TIP3    H250471   4.841   1.824  12.840  1.5285  0.2813 -1.6287
 9686TIP3   OH250472   5.277   1.452  11.969  0.0360 -0.0696  0.0809
 9686TIP3    H150473   5.227   1.384  12.015  0.8536  1.0392  2.6727
 9686TIP3    H250474   5.363   1.414  11.955 -0.1840 -0.3705 -0.4875
 9687TIP3   OH250475   0.180   0.622  12.524 -0.1494  0.8477 -0.3717
 9687TIP3    H150476   0.114   0.621  12.593  1.5027 -2.7683  1.2968
 9687TIP3    H250477   0.241   0.691  12.549 -0.8955  1.2171  0.4330
 9688TIP3   OH250478   3.085   0.015   0.322  1.1874  0.5129  0.0029
 9688TIP3    H150479   3.073  -0.068   0.368  0.1042 -0.0321 -1.2428
 9688TIP3    H250480   3.031   0.077   0.371  0.6869  0.1140 -0.0357
 9689TIP3   OH250481   6.683   1.695  13.128 -0.2723 -0.3752 -0.6550
 9689TIP3    H150482   6.700   1.698  13.222  3.3832  1.8249 -1.2966
 9689TIP3    H250483   6.618   1.764  13.113  0.2615  0.2868  0.0601
 9690TIP3   OH250484   2.327   4.502  17.052  0.1376  0.1602 -0.1906
 9690TIP3    H150485   2.354   4.579  17.003  1.3217 -0.9426 -1.3159
 9690TIP3    H250486   2.409   4.459  17.075 -0.5477 -1.6811 -1.0724
 9691TIP3   OH250487   0.566   5.397  13.306  0.0852 -0.7948 -0.8026
 9691TIP3    H150488   0.487   5.451  13.313  0.7754  0.0718  0.5488
 9691TIP3    H250489   0.538   5.310  13.333 -0.3913 -0.4477 -0.1500
 9692TIP3   OH250490   1.623   5.495   4.324 -0.0731  0.1130 -0.0451
 9692TIP3    H150491   1.639   5.413   4.276  1.6383 -0.6581  1.7835
 9692TIP3    H250492   1.704   5.545   4.312  0.1155  0.1853  1.4862
 9693TIP3   OH250493   5.257   2.660   1.879  0.3496 -0.0660 -0.9684
 9693TIP3    H150494   5.283   2.591   1.940 -0.0616  0.4946 -0.1449
 9693TIP3    H250495   5.310   2.645   1.801  0.4882 -1.1187 -0.6698
 9694TIP3   OH250496   4.727   2.108  14.902 -0.0682 -0.6146  0.1859
 9694TIP3    H150497   4.711   2.038  14.965 -0.8598  0.4476  1.1864
 9694TIP3    H250498   4.822   2.111  14.893  0.1391 -0.1082  2.1471
 9695TIP3   OH250499   5.820   6.157   5.131 -0.3939 -0.2232  0.0510
 9695TIP3    H150500   5.761   6.225   5.163 -0.2697 -0.3759  0.6032
 9695TIP3    H250501   5.899   6.204   5.105 -0.1266 -0.2081  0.8808
 9696TIP3   OH250502   5.350   5.746   2.329 -0.4343 -0.7292  0.3503
 9696TIP3    H150503   5.263   5.720   2.299 -0.8711 -1.1594  1.9407
 9696TIP3    H250504   5.409   5.679   2.295 -0.9691 -1.4223  0.8004
 9697TIP3   OH250505   4.219   5.339  13.879 -0.3509 -0.4000  0.3625
 9697TIP3    H150506   4.213   5.394  13.957  0.1612 -1.1302  0.9258
 9697TIP3    H250507   4.220   5.249  13.913 -0.4727 -0.7329 -0.5070
 9698TIP3   OH250508   2.442   4.882   4.456  0.1183 -0.0922 -0.1949
 9698TIP3    H150509   2.497   4.889   4.534 -0.6309 -1.3973  0.4864
 9698TIP3    H250510   2.359   4.923   4.481  0.8782  2.1994 -1.3407
 9699TIP3   OH250511   2.563   0.831   1.832  0.1909  0.0764  0.4472
 9699TIP3    H150512   2.554   0.744   1.793 -0.2651  1.0006 -1.5608
 9699TIP3    H250513   2.600   0.815   1.919  2.3111 -1.9641 -0.7923
 9700TIP3   OH250514   3.971   1.644  12.181 -0.6153 -0.2371 -0.0892
 9700TIP3    H150515   4.047   1.699  12.163  0.4588 -1.8221 -0.4521
 9700TIP3    H250516   3.937   1.677  12.264 -1.0893  2.1535 -1.1731
 9701TIP3   OH250517   1.183   5.491  11.995  0.4033 -0.6619 -0.2050
 9701TIP3    H150518   1.118   5.551  11.958  0.7510  0.4169  0.9181
 9701TIP3    H250519   1.263   5.543  12.002  0.8427 -1.4029  0.3294
 9702TIP3   OH250520   5.194   1.994  16.077  0.1238 -0.0282 -0.1676
 9702TIP3    H150521   5.277   2.035  16.101  0.3437 -0.0619 -0.8607
 9702TIP3    H250522   5.212   1.900  16.082 -0.1644 -0.0465  0.6724
 9703TIP3   OH250523   0.877   4.512   4.162  0.1972  0.3049 -0.1942
 9703TIP3    H150524   0.972   4.526   4.170  0.1991 -0.2646  0.7586
 9703TIP3    H250525   0.863   4.424   4.196 -0.9946  1.2984  1.9472
 9704TIP3   OH250526   4.377   2.147  14.987  0.0170  0.0329  0.3911
 9704TIP3    H150527   4.394   2.180  14.899  0.2093 -0.4628  0.2419
 9704TIP3    H250528   4.375   2.051  14.978 -0.9356  0.0100  0.7467
 9705TIP3   OH250529   0.573   2.956  12.901 -0.4330  0.2929 -0.6186
 9705TIP3    H150530   0.530   2.874  12.927 -1.0558  1.0100  0.6551
 9705TIP3    H250531   0.501   3.013  12.876  0.1082 -0.1273 -3.2814
 9706TIP3   OH250532   0.589   4.744  16.430 -0.0418  0.5812 -0.2111
 9706TIP3    H150533   0.627   4.830  16.446 -0.2524  0.4563  1.0228
 9706TIP3    H250534   0.662   4.690  16.402  0.1961  1.0212 -0.4436
 9707TIP3   OH250535   0.285   5.722  15.485  0.0051 -0.0118 -0.3674
 9707TIP3    H150536   0.202   5.721  15.532  0.6832 -2.0124  0.8732
 9707TIP3    H250537   0.296   5.632  15.453  0.2662  0.9572 -3.1493
 9708TIP3   OH250538   3.401   2.266  13.061 -0.2135 -0.1617 -0.1121
 9708TIP3    H150539   3.328   2.262  13.123  1.3242 -0.1091  1.7384
 9708TIP3    H250540   3.406   2.178  13.025 -1.0384 -0.2273 -0.0860
 9709TIP3   OH250541   6.709   1.552  14.032  0.1694 -0.0625  0.0845
 9709TIP3    H150542   6.642   1.487  14.009  0.2082  0.6418 -2.1290
 9709TIP3    H250543   6.668   1.605  14.100 -1.8372  0.8394 -1.7707
 9710TIP3   OH250544   1.509   1.187   4.088 -0.6195 -0.1926  0.1817
 9710TIP3    H150545   1.516   1.149   4.000  0.3215  1.4615 -0.4827
 9710TIP3    H250546   1.533   1.116   4.147 -0.0326 -0.9609 -0.9705
 9711TIP3   OH250547   0.474   4.493   1.905  0.1794 -0.3790 -0.4133
 9711TIP3    H150548   0.393   4.500   1.955 -0.3635 -0.4942 -1.2713
 9711TIP3    H250549   0.536   4.452   1.966 -0.3475 -0.1124  0.3077
 9712TIP3   OH250550   5.017   2.538  15.163  0.5807 -1.0636 -0.2228
 9712TIP3    H150551   4.932   2.515  15.202  0.4854 -0.9114 -0.3412
 9712TIP3    H250552   4.996   2.567  15.074  0.7521 -0.9798 -0.2355
 9713TIP3   OH250553   4.167   5.726  15.003 -0.4106 -0.7005  0.4255
 9713TIP3    H150554   4.176   5.704  14.911  0.5587 -2.3683  0.8833
 9713TIP3    H250555   4.257   5.727  15.036 -0.7959 -0.9810  1.5189
 9714TIP3   OH250556   0.062   5.881   2.158  0.2240 -0.0949 -0.0623
 9714TIP3    H150557  -0.018   5.932   2.172  0.0565 -0.9221  2.1809
 9714TIP3    H250558   0.056   5.808   2.220  2.4135 -0.5244 -0.2920
 9715TIP3   OH250559   4.090   6.436   0.968  0.1045  0.0899  0.3555
 9715TIP3    H150560   4.005   6.418   0.926 -0.6452 -0.8273  2.2117
 9715TIP3    H250561   4.098   6.368   1.035  1.5379  1.1820  1.3116
 9716TIP3   OH250562   4.311   5.795   2.639 -0.2015 -0.0278  0.2023
 9716TIP3    H150563   4.364   5.830   2.567 -1.1570 -0.8615 -0.9233
 9716TIP3    H250564   4.345   5.839   2.717 -0.4760  2.4118 -0.9874
 9717TIP3   OH250565   2.302   4.229   2.679 -0.4662  0.0932 -0.1205
 9717TIP3    H150566   2.336   4.317   2.661 -0.6475  0.3468  0.7457
 9717TIP3    H250567   2.314   4.218   2.774 -1.3848 -0.4087 -0.0570
 9718TIP3   OH250568   2.956   2.219   0.470 -0.2400 -0.0534 -0.1908
 9718TIP3    H150569   2.956   2.307   0.432  0.0925  0.7639  1.6516
 9718TIP3    H250570   2.864   2.195   0.476 -0.3322  0.1839 -0.6482
 9719TIP3   OH250571   0.302   2.933   4.797 -0.3877  0.0713  0.0349
 9719TIP3    H150572   0.280   2.928   4.890 -1.9033 -1.7612 -0.3985
 9719TIP3    H250573   0.259   3.013   4.767  0.8837  1.1652  1.1081
 9720TIP3   OH250574   2.860   1.316  15.869  0.2179 -0.2410 -0.1509
 9720TIP3    H150575   2.783   1.371  15.875  0.4138 -0.0182  0.3325
 9720TIP3    H250576   2.898   1.337  15.784  0.3432  0.4347  0.0717
 9721TIP3   OH250577   5.808   5.627  13.595 -0.1985  0.4024  1.3480
 9721TIP3    H150578   5.851   5.543  13.614 -0.0715  0.6272  2.0591
 9721TIP3    H250579   5.880   5.685  13.570 -0.4808 -0.1937 -0.9205
 9722TIP3   OH250580   2.303   1.775   0.495  0.8829 -0.3778 -0.3758
 9722TIP3    H150581   2.396   1.754   0.503  1.2899  1.6862  0.6410
 9722TIP3    H250582   2.300   1.871   0.492 -1.2305 -0.4107 -0.2595
 9723TIP3   OH250583   4.669   6.032  14.949  0.2707 -0.1900 -0.0935
 9723TIP3    H150584   4.613   6.059  14.876  0.6738 -2.9311 -1.4561
 9723TIP3    H250585   4.616   6.048  15.027 -0.9883  0.7501 -1.1142
 9724TIP3   OH250586   1.579   4.211   1.624 -0.0819 -0.1811  0.4008
 9724TIP3    H150587   1.543   4.151   1.559 -1.6996  0.0625  1.0272
 9724TIP3    H250588   1.662   4.240   1.588 -0.0113 -1.6169 -0.6131
 9725TIP3   OH250589   1.630   2.877  13.225 -0.4487 -0.3717 -0.0311
 9725TIP3    H150590   1.598   2.815  13.290  1.5991 -0.0074  1.3686
 9725TIP3    H250591   1.693   2.932  13.272  0.8508  0.1024 -2.2104
 9726TIP3   OH250592   5.449   3.723   5.885 -0.6713 -0.0755  0.1735
 9726TIP3    H150593   5.412   3.638   5.863 -1.7608 -0.1095  2.0045
 9726TIP3    H250594   5.376   3.773   5.920  0.2944  1.0628  0.6214
 9727TIP3   OH250595   6.605   0.863   2.379 -0.3647 -0.3716  0.0732
 9727TIP3    H150596   6.608   0.769   2.361  1.4891 -0.4338  0.6377
 9727TIP3    H250597   6.634   0.904   2.298 -0.9154 -0.2852 -0.0838
 9728TIP3   OH250598   0.154   4.722   5.456 -0.1354  0.1789  0.4950
 9728TIP3    H150599   0.101   4.768   5.392  0.5903 -1.9314 -1.7206
 9728TIP3    H250600   0.228   4.781   5.473  0.3366  0.2569 -1.6436
 9729TIP3   OH250601   0.177   6.410   2.830  0.0035  0.1976  0.5409
 9729TIP3    H150602   0.238   6.362   2.885 -1.5872 -0.7468  1.5405
 9729TIP3    H250603   0.114   6.343   2.801 -1.7312  1.5104  1.2070
 9730TIP3   OH250604   6.672   1.353  11.013  0.0508 -0.5961  0.4899
 9730TIP3    H150605   6.760   1.369  10.978  0.2833 -0.7157  1.0055
 9730TIP3    H250606   6.627   1.437  11.004  0.3342 -0.4345  0.5430
 9731TIP3   OH250607   6.123   6.125  15.653  0.1461  0.3556  0.3665
 9731TIP3    H150608   6.161   6.163  15.732  2.4003  1.2052 -1.0547
 9731TIP3    H250609   6.198   6.089  15.606 -1.3325 -1.3560 -0.7377
 9732TIP3   OH250610   1.949   5.441   2.592 -0.1326  0.4812  0.3761
 9732TIP3    H150611   1.912   5.386   2.660 -0.0784  1.0231  0.8454
 9732TIP3    H250612   2.042   5.418   2.590 -0.2894 -0.1266 -0.0852
 9733TIP3   OH250613   3.179   5.469   1.058  0.0316  0.6452 -0.1370
 9733TIP3    H150614   3.193   5.551   1.105  0.6043 -0.2940  1.3390
 9733TIP3    H250615   3.232   5.405   1.104 -2.3871 -1.1383  0.2692
 9734TIP3   OH250616   2.899   3.611  13.800 -0.9899  0.4274  0.3551
 9734TIP3    H150617   2.954   3.557  13.856  0.0784  0.1506 -0.9375
 9734TIP3    H250618   2.953   3.687  13.779 -0.9971  0.0514 -1.0906
 9735TIP3   OH250619   1.010   3.837  15.512  0.3285 -0.1562 -0.0280
 9735TIP3    H150620   1.029   3.743  15.525 -1.4776 -0.3808  1.1517
 9735TIP3    H250621   1.089   3.881  15.543 -0.9070 -1.0825  4.8070
 9736TIP3   OH250622   6.285   3.768  13.137  0.1062 -0.2707  0.3295
 9736TIP3    H150623   6.208   3.796  13.187 -0.1117 -0.9721  0.3907
 9736TIP3    H250624   6.251   3.746  13.050  0.2992 -0.2354  0.2423
 9737TIP3   OH250625   5.438   0.261   4.505  0.2071 -0.9418  0.0068
 9737TIP3    H150626   5.529   0.277   4.479  0.4249 -0.8658  0.8087
 9737TIP3    H250627   5.426   0.313   4.585 -0.2762 -1.6643  0.4047
 9738TIP3   OH250628   2.861   2.353  11.313  0.1405 -0.4047  0.6959
 9738TIP3    H150629   2.908   2.377  11.233  0.0311 -1.3424  0.3327
 9738TIP3    H250630   2.925   2.303  11.364  0.3388  0.5596  1.3903
 9739TIP3   OH250631   4.669   2.512   1.706 -0.7505 -0.8579  0.2550
 9739TIP3    H150632   4.703   2.499   1.617 -0.3622  0.0705  0.2599
 9739TIP3    H250633   4.737   2.477   1.763 -1.4563 -2.3965  0.1590
 9740TIP3   OH250634   1.079   3.008   2.829  0.0920 -0.3630  0.2933
 9740TIP3    H150635   1.058   2.982   2.919 -2.5271 -1.1552 -0.5043
 9740TIP3    H250636   1.053   2.934   2.776  1.2587  0.2630 -1.1929
 9741TIP3   OH250637   3.279   5.548  12.858 -0.2436 -0.1400 -0.0228
 9741TIP3    H150638   3.262   5.589  12.943 -0.5977 -0.4408  0.0564
 9741TIP3    H250639   3.327   5.614  12.808  1.7120 -0.6765  1.0883
 9742TIP3   OH250640   6.304   6.765   5.420  0.6187  0.3840 -0.2946
 9742TIP3    H150641   6.382   6.820   5.424  1.6853 -0.9880 -1.4739
 9742TIP3    H250642   6.338   6.679   5.394 -1.0203 -0.7932  1.3706
 9743TIP3   OH250643   3.564   5.940  15.688 -0.0754  0.3703  0.2462
 9743TIP3    H150644   3.611   6.002  15.633 -1.2009  2.8724  2.0055
 9743TIP3    H250645   3.627   5.917  15.757 -0.0466  0.4841  0.2571
 9744TIP3   OH250646   3.488   1.629   0.354  0.4205 -0.4086  0.7263
 9744TIP3    H150647   3.445   1.609   0.271 -0.3689  1.9603  0.5326
 9744TIP3    H250648   3.445   1.572   0.417  1.0926 -2.2952 -0.4845
 9745TIP3   OH250649   0.533   2.416   2.714 -0.4878  0.3193 -0.1137
 9745TIP3    H150650   0.502   2.506   2.728  1.9388  0.9697  1.5480
 9745TIP3    H250651   0.473   2.361   2.763 -0.9890  1.2036  0.2671
 9746TIP3   OH250652   2.385   3.182  16.624  0.7056  0.3550 -0.4912
 9746TIP3    H150653   2.312   3.150  16.678  0.9444 -0.0240 -0.3870
 9746TIP3    H250654   2.455   3.200  16.687  1.2474 -0.8350 -0.7435
 9747TIP3   OH250655   0.243   5.234   6.246 -0.2810 -0.2256 -0.4254
 9747TIP3    H150656   0.166   5.284   6.273 -0.6660 -0.6032 -0.8190
 9747TIP3    H250657   0.292   5.219   6.327 -0.7481 -0.1992 -0.1408
 9748TIP3   OH250658   2.704   5.565   1.419 -0.4097 -0.1163 -0.2121
 9748TIP3    H150659   2.612   5.556   1.395 -0.3555 -0.0748 -0.4346
 9748TIP3    H250660   2.730   5.650   1.383 -0.4325  0.1178  0.3225
 9749TIP3   OH250661   3.536   4.388   5.809 -0.3226  0.4460 -0.1237
 9749TIP3    H150662   3.458   4.362   5.857 -0.1059  0.6897  0.3616
 9749TIP3    H250663   3.541   4.327   5.736 -0.1414 -0.5107  0.6798
 9750TIP3   OH250664   2.418   1.891   5.139 -0.2826 -0.4910 -0.0819
 9750TIP3    H150665   2.405   1.925   5.051 -0.7701 -0.5631 -0.0340
 9750TIP3    H250666   2.416   1.969   5.195  1.6957 -0.2482 -0.3102
 9751TIP3   OH250667   3.325   4.435   5.470 -0.6238 -0.0689  0.4422
 9751TIP3    H150668   3.393   4.371   5.449  1.4493  2.1604  0.0695
 9751TIP3    H250669   3.264   4.431   5.396 -0.9915 -2.1653  0.8319
 9752TIP3   OH250670   1.064   5.740  11.996 -0.4347  0.6760 -0.3029
 9752TIP3    H150671   1.093   5.821  12.039 -1.3996  0.7799  0.1727
 9752TIP3    H250672   1.125   5.728  11.924 -0.1416  1.7160 -0.2415
 9753TIP3   OH250673   5.629   5.329   0.956 -0.0112 -0.5571  0.4933
 9753TIP3    H150674   5.589   5.269   0.894 -0.4451 -1.6750  1.8143
 9753TIP3    H250675   5.723   5.322   0.940 -0.2099  0.4850 -1.1954
 9754TIP3   OH250676   4.216   4.863   4.442  0.4506  0.1891  0.5054
 9754TIP3    H150677   4.262   4.874   4.525  0.6534 -1.6407  0.6640
 9754TIP3    H250678   4.146   4.801   4.462  0.3552 -0.0719 -0.6458
 9755TIP3   OH250679   1.078   4.570  12.250 -0.6286  0.1219  0.4467
 9755TIP3    H150680   1.034   4.594  12.332 -0.1212  2.5105  0.0643
 9755TIP3    H250681   1.142   4.640  12.236 -0.9652 -0.0569 -2.2002
 9756TIP3   OH250682   5.819   0.372   1.383 -0.2180  0.0551  0.0449
 9756TIP3    H150683   5.847   0.319   1.458 -1.3665 -1.4840 -0.5923
 9756TIP3    H250684   5.885   0.355   1.316  0.1218  0.4431  0.2823
 9757TIP3   OH250685   5.397   6.193   0.136  0.4880 -0.0786 -0.6591
 9757TIP3    H150686   5.320   6.230   0.092 -0.0378  0.0618  0.3514
 9757TIP3    H250687   5.384   6.215   0.229 -0.0331 -3.1239  0.0280
 9758TIP3   OH250688   5.312   0.014  11.345 -0.1654  0.3774  0.2071
 9758TIP3    H150689   5.272   0.094  11.378 -1.4456  0.9305 -2.4834
 9758TIP3    H250690   5.355   0.041  11.264  1.9531 -1.0994  0.8059
 9759TIP3   OH250691   0.046   5.712   0.983 -0.1495 -0.1715  0.3754
 9759TIP3    H150692   0.001   5.660   1.049 -0.1147 -0.3378  0.2668
 9759TIP3    H250693  -0.017   5.781   0.960  0.6730  1.2729  2.2621
 9760TIP3   OH250694   0.173   3.583  14.082  0.0750 -0.7004  0.4635
 9760TIP3    H150695   0.085   3.590  14.119 -0.2537 -1.3757 -0.1666
 9760TIP3    H250696   0.209   3.671  14.089 -1.0843 -0.1484 -0.3125
 9761TIP3   OH250697   5.328   2.265  17.076  0.5952 -0.2371  0.0258
 9761TIP3    H150698   5.252   2.285  17.022  0.6029 -0.5170 -0.0905
 9761TIP3    H250699   5.335   2.338  17.137 -0.1342 -0.5090  0.4404
 9762TIP3   OH250700   0.244   2.811  12.358  0.1221  0.2785  0.5222
 9762TIP3    H150701   0.184   2.781  12.427  1.6169  2.5933  2.9080
 9762TIP3    H250702   0.222   2.904  12.347  1.1209  0.3574 -0.8853
 9763TIP3   OH250703   1.827   3.714  13.241 -0.4989  0.1189  0.2373
 9763TIP3    H150704   1.770   3.752  13.308 -3.0401 -0.1943 -1.6784
 9763TIP3    H250705   1.852   3.628  13.276  2.0627  1.8436  2.8267
 9764TIP3   OH250706   5.863   4.282   4.693  0.5982 -0.1819  0.6133
 9764TIP3    H150707   5.839   4.227   4.767 -2.3403  0.7063  0.3890
 9764TIP3    H250708   5.921   4.228   4.640  0.1444 -1.9857  1.9332
 9765TIP3   OH250709   3.905   5.845  16.494  0.8583 -0.5063 -0.1500
 9765TIP3    H150710   3.991   5.854  16.451  0.1214 -0.7576 -1.7088
 9765TIP3    H250711   3.860   5.927  16.473  0.3308 -0.8131 -0.1932
 9766TIP3   OH250712   0.685   0.939   3.978 -0.2920 -0.1635 -0.3481
 9766TIP3    H150713   0.773   0.946   3.940 -0.3776 -0.2190 -0.5581
 9766TIP3    H250714   0.626   0.954   3.905 -0.4603 -1.1301 -0.4215
 9767TIP3   OH250715   1.215   1.645  15.468  0.5061  0.3022 -0.2438
 9767TIP3    H150716   1.218   1.559  15.510 -0.8409  0.2219 -0.2850
 9767TIP3    H250717   1.275   1.699  15.520  0.2704 -0.2867  0.6559
 9768TIP3   OH250718   1.458   2.382  10.999 -0.3054  0.0590  0.2017
 9768TIP3    H150719   1.370   2.363  10.968 -1.6374  3.1131  1.8581
 9768TIP3    H250720   1.464   2.338  11.084 -0.1553 -0.3041  0.0040
 9769TIP3   OH250721   5.778   1.112  13.006 -0.1909 -1.0315 -0.1843
 9769TIP3    H150722   5.804   1.117  13.098 -0.5510  0.1678 -0.1304
 9769TIP3    H250723   5.715   1.041  13.003  0.0815 -1.3064  0.4307
 9770TIP3   OH250724   4.782   3.227  13.472 -0.0483  0.0538 -0.5852
 9770TIP3    H150725   4.837   3.233  13.550 -1.7743  1.0253  0.6106
 9770TIP3    H250726   4.742   3.140  13.477  0.0920 -0.0079 -0.5523
 9771TIP3   OH250727   4.464   0.611  17.117  0.0471 -0.0579 -0.6653
 9771TIP3    H150728   4.424   0.557  17.185  2.6820 -0.7821  0.3887
 9771TIP3    H250729   4.480   0.695  17.159 -3.4080  1.4224 -2.1021
 9772TIP3   OH250730   5.238   2.181   0.136  0.6831  0.2924 -0.8729
 9772TIP3    H150731   5.259   2.186   0.229  0.2013  1.6027 -0.8286
 9772TIP3    H250732   5.323   2.179   0.092  0.9124 -0.3382 -0.4173
 9773TIP3   OH250733   3.614   3.910   2.844 -0.0163  0.7756 -0.2336
 9773TIP3    H150734   3.531   3.930   2.886  0.2358  0.3683  0.4684
 9773TIP3    H250735   3.636   3.990   2.795 -1.0641  0.6953 -0.8354
 9774TIP3   OH250736   4.418   2.512  16.926  0.4426  0.5063 -0.4873
 9774TIP3    H150737   4.457   2.490  17.011  0.3816 -0.9683 -0.8435
 9774TIP3    H250738   4.492   2.536  16.871  0.8532 -2.1580 -1.1245
 9775TIP3   OH250739   5.757   3.203   1.779 -0.1791  0.3633 -0.6284
 9775TIP3    H150740   5.776   3.220   1.687 -0.2437 -1.4684 -1.0106
 9775TIP3    H250741   5.838   3.227   1.825  0.6315 -0.7362 -1.4324
 9776TIP3   OH250742   0.408   6.530  10.603 -0.2607  0.1743 -0.1101
 9776TIP3    H150743   0.353   6.581  10.662 -1.0104  1.4382 -1.8678
 9776TIP3    H250744   0.425   6.589  10.529  1.9941 -0.8007 -0.4277
 9777TIP3   OH250745   5.861   0.508   3.258 -0.2039  0.3232 -0.1460
 9777TIP3    H150746   5.897   0.510   3.169  2.0376 -0.7906  0.7062
 9777TIP3    H250747   5.885   0.421   3.291 -0.9748  0.7515  1.5600
 9778TIP3   OH250748   4.084   0.471   0.335  0.2332  0.1991  0.3469
 9778TIP3    H150749   4.030   0.550   0.330  0.1692  0.1405  0.1101
 9778TIP3    H250750   4.110   0.454   0.245 -0.6248 -0.6423  0.2509
 9779TIP3   OH250751   4.623   2.705   5.056  0.5176  0.5309 -0.4834
 9779TIP3    H150752   4.592   2.615   5.045  1.5628  0.1961 -0.7694
 9779TIP3    H250753   4.596   2.729   5.145 -1.5510  0.6633 -1.1263
 9780TIP3   OH250754   5.224   6.736  12.380 -0.3174 -0.6661 -0.3228
 9780TIP3    H150755   5.221   6.644  12.406  2.1621 -0.6826 -0.0035
 9780TIP3    H250756   5.302   6.744  12.325 -1.7235  0.7984 -2.1641
 9781TIP3   OH250757   2.430   2.470  16.157 -0.6339  0.3876 -0.2881
 9781TIP3    H150758   2.439   2.534  16.086 -1.5690  0.5408 -0.2772
 9781TIP3    H250759   2.519   2.437  16.171 -0.0557  2.0594  0.0557
 9782TIP3   OH250760   6.009   2.004   4.216 -0.3945 -0.5521  0.8496
 9782TIP3    H150761   5.955   1.937   4.174 -0.8758  0.2232  0.2387
 9782TIP3    H250762   5.965   2.087   4.197  2.0829  0.3244 -1.4192
 9783TIP3   OH250763   5.751   0.388  10.813 -0.2628 -0.0138  0.5791
 9783TIP3    H150764   5.833   0.412  10.769 -0.4792 -1.5830 -0.7574
 9783TIP3    H250765   5.778   0.363  10.902  0.8286 -1.2189 -0.0717
 9784TIP3   OH250766   0.738   4.842  16.918 -0.0280 -0.0582  0.0151
 9784TIP3    H150767   0.761   4.798  16.999  0.1432  0.8247  0.4560
 9784TIP3    H250768   0.642   4.840  16.916 -0.0665  0.7562  0.7220
 9785TIP3   OH250769   2.724   6.169  12.824 -0.4218 -0.1351 -0.3245
 9785TIP3    H150770   2.673   6.107  12.876  0.0698  0.4424  0.8358
 9785TIP3    H250771   2.813   6.133  12.825 -0.1683  0.4985  0.2153
 9786TIP3   OH250772   1.094   1.551   4.124  0.4524 -0.5809  0.4270
 9786TIP3    H150773   1.044   1.627   4.094  1.4812 -0.6427 -1.5278
 9786TIP3    H250774   1.031   1.478   4.120  0.3457 -0.4309 -0.8506
 9787TIP3   OH250775   1.060   3.591   1.654 -0.7480  0.3123  0.3986
 9787TIP3    H150776   0.983   3.550   1.693 -0.5668  1.0988  1.6142
 9787TIP3    H250777   1.133   3.534   1.678 -0.8473 -0.0794 -0.1998
 9788TIP3   OH250778   1.798   4.336   4.183 -0.1710  0.3642  0.1454
 9788TIP3    H150779   1.771   4.355   4.094 -0.7234  1.3973  0.5214
 9788TIP3    H250780   1.717   4.335   4.234  0.1927  0.3940  0.7422
 9789TIP3   OH250781   4.633   1.870   0.041  0.0279  0.7780  0.0352
 9789TIP3    H150782   4.576   1.798   0.071  0.0074  0.2887 -1.1445
 9789TIP3    H250783   4.722   1.838   0.057  0.0030  0.7540  0.1266
 9790TIP3   OH250784   4.856   0.831   3.577  0.3239  0.3307 -0.0845
 9790TIP3    H150785   4.868   0.747   3.622 -0.6422  0.8106  1.1105
 9790TIP3    H250786   4.782   0.816   3.518 -0.4632  0.6050  0.8235
 9791TIP3   OH250787   0.522   1.268   3.350  0.2089  0.0878  0.3823
 9791TIP3    H150788   0.576   1.229   3.418  1.8846 -0.5398 -1.2802
 9791TIP3    H250789   0.467   1.196   3.319  0.7944 -0.1005 -0.2313
 9792TIP3   OH250790   3.654   3.784   3.115 -0.4869  0.0298  0.0118
 9792TIP3    H150791   3.636   3.837   3.038  0.8894 -1.3762 -1.3110
 9792TIP3    H250792   3.598   3.707   3.106  0.8444 -0.9071 -0.4341
 9793TIP3   OH250793   0.561   2.175   4.135  0.1017 -0.3985 -0.1404
 9793TIP3    H150794   0.489   2.115   4.119 -0.2695 -0.0875  0.3540
 9793TIP3    H250795   0.524   2.243   4.192  0.4577  0.4337 -0.9022
 9794TIP3   OH250796   0.809   2.183   4.238  0.3458 -0.0560 -0.2752
 9794TIP3    H150797   0.828   2.270   4.275  1.2699 -0.0355 -0.7732
 9794TIP3    H250798   0.718   2.188   4.210  0.6383  1.0515 -1.0830
 9795TIP3   OH250799   2.178   5.285   4.414 -1.2709 -0.2932  0.2464
 9795TIP3    H150800   2.255   5.251   4.368 -2.9256 -2.5371 -0.9573
 9795TIP3    H250801   2.200   5.376   4.433  1.6997 -0.9071 -0.0098
 9796TIP3   OH250802   0.280   3.980  13.392  0.3118 -0.5348 -0.0027
 9796TIP3    H150803   0.339   4.055  13.385 -0.5898 -0.0658 -3.0223
 9796TIP3    H250804   0.201   4.015  13.432  0.1699 -0.0437 -0.7157
 9797TIP3   OH250805   3.188   4.290   4.961  0.7177 -0.2014  0.2542
 9797TIP3    H150806   3.149   4.331   4.884  2.3795  1.9258  0.5361
 9797TIP3    H250807   3.273   4.257   4.931  0.8507 -0.4402  0.8785
 9798TIP3   OH250808   4.010   5.862  12.792  0.9995  0.5275 -0.2961
 9798TIP3    H150809   4.050   5.835  12.875  0.3112 -0.3183 -0.2347
 9798TIP3    H250810   4.012   5.783  12.739 -1.6741  0.1467  0.1175
 9799TIP3   OH250811   0.129   0.776  12.262 -0.3330  0.5467  0.3727
 9799TIP3    H150812   0.130   0.869  12.286 -0.8918  0.6552 -0.0114
 9799TIP3    H250813   0.145   0.730  12.344  0.1970  0.9882  0.5242
 9800TIP3   OH250814   5.614   6.467  15.543 -0.3756  0.0315 -0.5489
 9800TIP3    H150815   5.526   6.497  15.568  0.2222  2.5312 -1.2927
 9800TIP3    H250816   5.601   6.422  15.460 -0.8329  1.3270 -1.2011
 9801TIP3   OH250817   5.313   6.031  14.826 -0.2903 -0.1613  0.0399
 9801TIP3    H150818   5.364   5.998  14.900  0.0666 -0.8959 -0.5270
 9801TIP3    H250819   5.236   5.974  14.823 -0.2855 -0.1578 -0.1664
 9802TIP3   OH250820   5.037   5.522  17.025  0.2018 -0.4357  0.4184
 9802TIP3    H150821   5.012   5.544  16.935  0.3912  1.1272  0.7354
 9802TIP3    H250822   5.061   5.606  17.065  0.6781 -1.1873  1.7602
 9803TIP3   OH250823   2.258   4.802   4.772 -0.2408  0.5545 -0.4973
 9803TIP3    H150824   2.313   4.767   4.842 -2.3968 -1.5440  0.2348
 9803TIP3    H250825   2.245   4.894   4.794  1.3988  0.5986  0.3205
 9804TIP3   OH250826   3.215   6.490   5.051 -0.2695  0.5736  0.3748
 9804TIP3    H150827   3.243   6.579   5.029 -0.3996  0.1756 -1.4679
 9804TIP3    H250828   3.270   6.434   4.996  0.2080 -0.5218  1.9296
 9805TIP3   OH250829   1.140   3.379  11.407 -0.6932 -0.0490 -1.1485
 9805TIP3    H150830   1.196   3.439  11.358 -1.4576  2.1434  0.5792
 9805TIP3    H250831   1.054   3.422  11.408 -0.8123 -0.2572  1.6605
 9806TIP3   OH250832   3.744   0.333  11.031  0.4499  0.3795 -0.0081
 9806TIP3    H150833   3.667   0.344  10.975 -0.1027 -0.2498  0.6186
 9806TIP3    H250834   3.808   0.395  10.996  0.4019 -0.5516 -1.8312
 9807TIP3   OH250835   6.233   0.730  13.962 -0.1444  0.2332  0.1241
 9807TIP3    H150836   6.248   0.666  13.892  0.4986  2.1452 -1.5271
 9807TIP3    H250837   6.178   0.798  13.921 -0.5675  0.8838  1.7578
 9808TIP3   OH250838   4.487   1.759   4.679  0.3547  0.3669  0.2291
 9808TIP3    H150839   4.436   1.714   4.612  0.7829 -1.0890  0.8570
 9808TIP3    H250840   4.497   1.695   4.749  0.5611  1.6142  1.3692
 9809TIP3   OH250841   6.683   0.099   0.122 -0.3543 -0.0593  0.2815
 9809TIP3    H150842   6.683   0.085   0.027  1.1197 -0.7784  0.3752
 9809TIP3    H250843   6.768   0.067   0.151 -1.0796 -0.5056  1.9588
 9810TIP3   OH250844   0.514   4.202   1.756  0.1205 -0.1851  0.1220
 9810TIP3    H150845   0.465   4.256   1.695  0.0867 -0.2047  0.1322
 9810TIP3    H250846   0.489   4.234   1.842  2.9213  2.3136  0.0869
 9811TIP3   OH250847   4.058   4.156   3.928 -0.4326  0.3525 -0.1397
 9811TIP3    H150848   4.092   4.155   4.017  0.9948  0.3170 -0.6738
 9811TIP3    H250849   4.130   4.123   3.874 -1.1000  0.8481 -1.3656
 9812TIP3   OH250850   1.644   6.581   2.428 -0.6693  0.2877 -0.1221
 9812TIP3    H150851   1.721   6.565   2.373 -0.9095  1.0823 -0.6920
 9812TIP3    H250852   1.672   6.648   2.490 -0.2650 -0.9058  1.0305
 9813TIP3   OH250853   5.720   6.232   2.430  0.1806  0.1181  0.2948
 9813TIP3    H150854   5.707   6.290   2.355  0.1003 -1.4490 -0.9173
 9813TIP3    H250855   5.637   6.185   2.438  0.9017 -1.1786  0.1120
 9814TIP3   OH250856   5.255   2.161   0.407  0.0992 -0.7250 -0.0012
 9814TIP3    H150857   5.330   2.165   0.466 -0.0617  1.2847  0.1126
 9814TIP3    H250858   5.235   2.067   0.399  1.9793 -1.2076  0.7561
 9815TIP3   OH250859   2.074   2.666  12.404  0.3797 -0.2098  0.0720
 9815TIP3    H150860   2.033   2.680  12.489 -2.4647  1.3535 -1.4848
 9815TIP3    H250861   2.075   2.752  12.363 -0.2766 -1.2844 -2.3165
 9816TIP3   OH250862   6.257   2.954  13.004  0.3962  0.0904 -0.1488
 9816TIP3    H150863   6.225   2.989  13.088  0.4208  0.4278 -0.2781
 9816TIP3    H250864   6.178   2.933  12.955  0.3824 -2.2608  0.8442
 9817TIP3   OH250865   6.158   1.907   0.145 -0.1124 -0.8430 -0.1238
 9817TIP3    H150866   6.115   1.922   0.229 -3.7122 -0.6018 -1.9282
 9817TIP3    H250867   6.091   1.867   0.090  2.2782 -1.3521 -2.7882
 9818TIP3   OH250868   4.841   2.661   0.526  0.2060 -0.0551  0.0308
 9818TIP3    H150869   4.932   2.681   0.503 -0.0301  1.1465  0.1411
 9818TIP3    H250870   4.796   2.657   0.442  0.1330  0.4796  0.0424
 9819TIP3   OH250871   6.407   5.098  16.225 -0.2198  0.4521 -0.2752
 9819TIP3    H150872   6.498   5.101  16.257 -0.3635  0.2910  0.1567
 9819TIP3    H250873   6.411   5.037  16.151  0.1675  1.0373 -0.7395
 9820TIP3   OH250874   5.607   0.897  16.432 -0.9816  0.5459 -0.0889
 9820TIP3    H150875   5.612   0.992  16.429 -0.3454  0.5434  0.6396
 9820TIP3    H250876   5.681   0.867  16.379 -0.4442  0.4682  0.6930
 9821TIP3   OH250877   1.357   3.342   4.395  0.0376 -0.0893 -0.2463
 9821TIP3    H150878   1.447   3.348   4.427 -0.7743  2.1428  1.7128
 9821TIP3    H250879   1.359   3.382   4.309  0.6742  1.1283  0.3267
 9822TIP3   OH250880   5.323   4.045  13.481  0.7232  0.2600  0.1693
 9822TIP3    H150881   5.372   4.105  13.537  1.7850 -1.0939  0.7250
 9822TIP3    H250882   5.236   4.041  13.520  1.1388  0.1526  1.0981
 9823TIP3   OH250883   6.657   3.229   4.328 -0.1815  0.2948 -0.1433
 9823TIP3    H150884   6.570   3.193   4.307 -0.3814  0.2618  0.7188
 9823TIP3    H250885   6.681   3.280   4.251 -0.4178 -0.7193 -0.8975
 9824TIP3   OH250886   3.242   3.552   2.964  0.0793 -0.1911  0.2657
 9824TIP3    H150887   3.161   3.513   2.931  0.8888 -0.2512 -1.7407
 9824TIP3    H250888   3.244   3.640   2.925  1.3758 -0.4944 -0.3784
 9825TIP3   OH250889   6.276   2.411   3.274  0.1316  0.0637  0.6229
 9825TIP3    H150890   6.306   2.320   3.273 -1.6856 -0.5628  0.5711
 9825TIP3    H250891   6.182   2.405   3.290  0.2242  2.0181  2.0892
 9826TIP3   OH250892   3.423   2.823   5.851  0.2248 -0.0272 -0.4873
 9826TIP3    H150893   3.352   2.871   5.894  0.6254  0.6916 -0.6166
 9826TIP3    H250894   3.434   2.744   5.904  0.7115  0.8490  0.7255
 9827TIP3   OH250895   0.693   3.514   0.586  0.1689 -0.1847 -0.3052
 9827TIP3    H150896   0.625   3.516   0.519  0.6322 -1.2008 -0.8299
 9827TIP3    H250897   0.771   3.484   0.539  0.6787 -0.1759  0.5316
 9828TIP3   OH250898   5.121   3.396   2.269  0.3807 -0.0628  0.6054
 9828TIP3    H150899   5.102   3.489   2.254  0.1910  0.2142  2.3985
 9828TIP3    H250900   5.044   3.364   2.316  0.1303 -1.3160 -0.6190
 9829TIP3   OH250901   1.437   2.435  17.065 -0.0215 -0.0372  0.7533
 9829TIP3    H150902   1.437   2.350  17.020  2.7807 -0.7819  2.1120
 9829TIP3    H250903   1.368   2.485  17.020 -0.3932 -2.3334 -1.3416
 9830TIP3   OH250904   4.411   2.090  13.308  0.1325 -0.1010 -0.1010
 9830TIP3    H150905   4.325   2.102  13.268 -0.1930 -0.0892  0.5967
 9830TIP3    H250906   4.410   2.001  13.342  0.0692  0.1941  0.6824
 9831TIP3   OH250907   6.254   0.400   4.243 -0.1274  0.1117  0.3791
 9831TIP3    H150908   6.255   0.485   4.287 -0.6053  0.0760  0.4526
 9831TIP3    H250909   6.248   0.336   4.314  0.3207  0.0084  0.3286
 9832TIP3   OH250910   0.304   5.874  14.952 -0.1725  0.3559 -0.1058
 9832TIP3    H150911   0.333   5.894  14.863  1.7462  2.2804  0.8963
 9832TIP3    H250912   0.247   5.948  14.975 -0.2919  0.0922  0.4430
 9833TIP3   OH250913   6.700   3.922  11.579 -0.1409 -0.0209  0.1838
 9833TIP3    H150914   6.630   3.873  11.538 -0.0002 -0.9466  1.0324
 9833TIP3    H250915   6.766   3.932  11.510 -1.4157  1.5310 -0.8402
 9834TIP3   OH250916   4.546   2.729  12.066  0.1897 -0.0350  0.3280
 9834TIP3    H150917   4.536   2.819  12.096 -1.8209 -0.0229 -0.3035
 9834TIP3    H250918   4.575   2.737  11.975  1.2627 -0.0460  0.6617
 9835TIP3   OH250919   3.887   4.572   4.875 -0.3461  0.1240  0.4190
 9835TIP3    H150920   3.916   4.586   4.785 -2.1652  1.5971  0.0315
 9835TIP3    H250921   3.821   4.639   4.890 -2.0691 -1.8288  1.9503
 9836TIP3   OH250922   3.393   1.545  14.496 -0.4554  0.0352  0.3582
 9836TIP3    H150923   3.477   1.585  14.474 -1.1042  0.9555 -0.5118
 9836TIP3    H250924   3.381   1.562  14.589 -1.2252  2.9044 -0.2110
 9837TIP3   OH250925   5.611   3.585  11.207  0.2052 -0.1116 -0.1382
 9837TIP3    H150926   5.616   3.645  11.133  1.4332  1.1230  0.9303
 9837TIP3    H250927   5.532   3.611  11.254 -0.7406 -1.0890 -1.1531
 9838TIP3   OH250928   3.291   5.670   1.227  0.2628 -0.1744 -0.2146
 9838TIP3    H150929   3.365   5.682   1.168  0.1253 -0.5654 -0.4691
 9838TIP3    H250930   3.331   5.650   1.311  0.4538 -0.1060 -0.2876
 9839TIP3   OH250931   1.542   4.055   5.259 -0.1839  0.1048  0.1977
 9839TIP3    H150932   1.602   4.001   5.310 -0.1023  0.9554  1.0193
 9839TIP3    H250933   1.523   4.130   5.316 -1.2658  0.3215 -0.4309
 9840TIP3   OH250934   2.706   5.277   5.047  0.2178 -0.4312  0.6618
 9840TIP3    H150935   2.721   5.346   5.112  2.6235 -1.0447  0.8238
 9840TIP3    H250936   2.792   5.263   5.007 -0.9264 -1.1112 -1.6264
 9841TIP3   OH250937   3.495   5.083   1.628 -0.2442 -0.0986  0.5894
 9841TIP3    H150938   3.479   5.069   1.535 -0.1550  0.6680  0.4583
 9841TIP3    H250939   3.416   5.051   1.672 -0.2177 -0.6092  0.2651
 9842TIP3   OH250940   6.438   1.939   0.124 -0.0896 -0.1750  0.0666
 9842TIP3    H150941   6.462   1.874   0.057  0.9916  1.1991 -0.8930
 9842TIP3    H250942   6.343   1.948   0.114  0.0135 -0.2359 -1.0526
 9843TIP3   OH250943   1.730   2.557   4.300 -0.2050 -0.2076  0.1951
 9843TIP3    H150944   1.662   2.552   4.368 -1.3563  1.9942 -0.7360
 9843TIP3    H250945   1.749   2.466   4.278  1.6313 -1.0640  4.8329
 9844TIP3   OH250946   4.625   4.777   4.476  0.2340  0.0611 -0.1982
 9844TIP3    H150947   4.622   4.828   4.557 -1.1354 -0.1687 -0.1025
 9844TIP3    H250948   4.708   4.729   4.482  0.3477  0.3636  0.8724
 9845TIP3   OH250949   2.512   2.523  12.007 -0.3247  0.6726  0.4380
 9845TIP3    H150950   2.559   2.593  11.964  0.0771  0.1175 -0.0288
 9845TIP3    H250951   2.579   2.473  12.054 -0.5141  0.2158  0.2324
 9846TIP3   OH250952   4.485   2.214   6.794  0.2098 -0.2343  0.3105
 9846TIP3    H150953   4.523   2.302   6.792 -1.5382  0.5684  1.6125
 9846TIP3    H250954   4.526   2.173   6.870  1.1731 -0.6230 -0.4113
 9847TIP3   OH250955   5.612   4.964   2.621  0.5841  0.1732 -0.3456
 9847TIP3    H150956   5.552   5.004   2.685  1.3036  1.3653 -0.3927
 9847TIP3    H250957   5.691   5.019   2.626  0.9839 -0.2859 -1.5925
 9848TIP3   OH250958   2.721   1.155  12.558  0.4133  0.3901 -0.1362
 9848TIP3    H150959   2.743   1.076  12.607  1.1103  0.0010 -1.0579
 9848TIP3    H250960   2.634   1.137  12.521  0.2949  0.3110  0.1789
 9849TIP3   OH250961   0.220   2.373   3.456  0.9081  0.4123 -0.0149
 9849TIP3    H150962   0.184   2.386   3.368 -0.7205  2.4663  0.8754
 9849TIP3    H250963   0.192   2.285   3.481 -1.3272  0.9834 -0.3776
 9850TIP3   OH250964   1.072   0.694   2.747 -0.7082 -0.2030 -0.3827
 9850TIP3    H150965   1.051   0.748   2.823 -2.0331 -1.6411  0.2896
 9850TIP3    H250966   1.167   0.688   2.747 -0.7298 -0.7140  1.5250
 9851TIP3   OH250967   4.993   6.725   5.583 -0.0929 -0.0601 -0.2251
 9851TIP3    H150968   4.941   6.724   5.664 -0.6978  0.6057 -0.6044
 9851TIP3    H250969   5.071   6.673   5.604  0.5674  1.5023  1.3358
 9852TIP3   OH250970   6.264   5.634   4.408  0.1231  0.6476 -0.1305
 9852TIP3    H150971   6.293   5.714   4.451  1.2466  0.4040 -0.4311
 9852TIP3    H250972   6.310   5.632   4.324 -0.8551  0.3177 -0.6789
 9853TIP3   OH250973   3.429   5.271  16.445 -0.0832  0.3792 -0.4338
 9853TIP3    H150974   3.514   5.230  16.432 -0.5735 -0.7333 -0.1736
 9853TIP3    H250975   3.397   5.235  16.527  0.3982  2.9068  0.9266
 9854TIP3   OH250976   4.562   1.997  11.255 -0.0588 -0.3129 -0.8255
 9854TIP3    H150977   4.643   2.000  11.305 -0.3743  0.6645 -0.3603
 9854TIP3    H250978   4.579   2.049  11.177 -1.0634  2.1928  0.5496
 9855TIP3   OH250979   0.086   0.487   4.250  0.6229  0.2401 -0.2047
 9855TIP3    H150980   0.034   0.516   4.325  2.2399 -0.4027  1.1928
 9855TIP3    H250981   0.097   0.393   4.263  0.7844  0.0882 -1.3512
 9856TIP3   OH250982   1.815   6.754   0.484  0.8903  0.1347  0.3719
 9856TIP3    H150983   1.751   6.755   0.556  1.9577  1.2325  1.3148
 9856TIP3    H250984   1.844   6.845   0.476  0.1339  0.1829 -2.0517
 9857TIP3   OH250985   4.689   3.651  14.917  0.0342  0.1960 -0.1193
 9857TIP3    H150986   4.689   3.746  14.931 -0.1797  0.0667  0.7540
 9857TIP3    H250987   4.778   3.631  14.889 -0.8760  1.2029 -4.0763
 9858TIP3   OH250988   3.955   0.040  12.614 -0.0059 -0.8077  0.0147
 9858TIP3    H150989   3.992   0.026  12.701 -0.2084  3.2277  0.8445
 9858TIP3    H250990   4.020   0.003  12.554  2.2643  0.2483  1.7345
 9859TIP3   OH250991   6.660   2.133   1.104  0.7931  0.5412 -0.0382
 9859TIP3    H150992   6.712   2.212   1.094  0.4096  0.9886  1.3949
 9859TIP3    H250993   6.704   2.083   1.173 -0.4636  0.7839  0.9728
 9860TIP3   OH250994   3.734   0.234   0.469 -0.0352 -0.8022 -0.9389
 9860TIP3    H150995   3.823   0.217   0.498  0.5252 -0.6166 -2.4962
 9860TIP3    H250996   3.722   0.175   0.394 -1.3068 -0.9938 -0.6064
 9861TIP3   OH250997   5.363   4.766   2.184 -0.5029 -0.3247  0.1173
 9861TIP3    H150998   5.271   4.788   2.200 -0.0467  2.2560 -0.6872
 9861TIP3    H250999   5.406   4.781   2.268 -0.5166  0.1311  0.0442
 9862TIP3   OH251000   2.845   5.021   3.172 -0.8056 -0.2525  0.7834
 9862TIP3    H151001   2.774   5.003   3.110 -0.3722 -0.2288  0.2740
 9862TIP3    H251002   2.801   5.060   3.248 -1.1315  1.4174 -0.2437
 9863TIP3   OH251003   4.081   2.794  14.307 -0.0285 -0.1252 -0.5170
 9863TIP3    H151004   4.146   2.817  14.241  2.1560 -1.9203  0.9360
 9863TIP3    H251005   4.097   2.856  14.379  0.9113 -1.3230  0.3305
 9864TIP3   OH251006   1.221   4.675   1.300  0.6239  0.7125 -0.3330
 9864TIP3    H151007   1.210   4.604   1.236  1.6155 -0.3289  0.6318
 9864TIP3    H251008   1.293   4.727   1.265  1.2263  0.0921 -0.0100
 9865TIP3   OH251009   3.370   2.382   0.900  0.9140 -0.3247 -0.0075
 9865TIP3    H151010   3.447   2.328   0.887  1.3523  0.5387 -1.0551
 9865TIP3    H251011   3.299   2.336   0.856  1.4368  0.3081 -1.5274
 9866TIP3   OH251012   5.973   4.920  12.830  0.0449 -0.3471  0.2883
 9866TIP3    H151013   5.910   4.863  12.875  0.3695 -1.4320 -0.6126
 9866TIP3    H251014   5.920   4.971  12.769  0.1143 -1.9601 -1.1833
 9867TIP3   OH251015   0.565   6.463   1.104 -0.4585  0.1495 -0.2608
 9867TIP3    H151016   0.519   6.400   1.160  1.2554 -0.2177  0.7583
 9867TIP3    H251017   0.495   6.515   1.064 -1.7918 -0.9273  0.6385
 9868TIP3   OH251018   2.666   3.452  11.670 -0.2332 -0.3226  0.2653
 9868TIP3    H151019   2.703   3.533  11.705  1.3245 -0.6477 -0.5407
 9868TIP3    H251020   2.575   3.473  11.651 -0.1392  0.9059  1.1245
 9869TIP3   OH251021   5.742   1.402  14.501  0.1669  0.2097  0.0496
 9869TIP3    H151022   5.655   1.372  14.475  0.8565  0.8804 -3.2434
 9869TIP3    H251023   5.801   1.331  14.477  0.8978  1.0779 -0.7914
 9870TIP3   OH251024   0.394   3.357  16.904  0.0169  0.7040 -0.5557
 9870TIP3    H151025   0.406   3.327  16.813  1.7540  0.4300 -0.2638
 9870TIP3    H251026   0.383   3.276  16.954 -2.3855  0.9238 -0.7044
 9871TIP3   OH251027   3.847   3.077  13.406  0.2324  0.2496 -0.0998
 9871TIP3    H151028   3.890   3.041  13.484  2.0086 -1.0564 -1.6529
 9871TIP3    H251029   3.759   3.099  13.436  2.1179  3.7093  3.3801
 9872TIP3   OH251030   2.051   2.445   2.560 -0.0227 -0.0858 -0.3517
 9872TIP3    H151031   2.099   2.473   2.482 -0.9901  2.1994 -0.1748
 9872TIP3    H251032   1.974   2.502   2.562  0.3505  0.4063  2.6305
 9873TIP3   OH251033   2.393   0.968   2.278  0.4664 -0.1596  0.0198
 9873TIP3    H151034   2.411   1.059   2.255  2.5845 -1.1565 -2.5593
 9873TIP3    H251035   2.309   0.948   2.235 -1.0787  1.1459  2.3573
 9874TIP3   OH251036   2.241   0.668  15.927 -0.3355 -0.1699  0.6871
 9874TIP3    H151037   2.288   0.702  15.851 -0.4282 -0.2180  0.6078
 9874TIP3    H251038   2.205   0.746  15.969 -1.9570 -0.3179 -0.4261
 9875TIP3   OH251039   3.697   6.133   2.791 -0.2816  0.0638 -0.6710
 9875TIP3    H151040   3.747   6.101   2.867  0.0373  4.3490  1.0509
 9875TIP3    H251041   3.609   6.097   2.804 -0.2970  0.9060  1.8965
 9876TIP3   OH251042   1.156   4.461   2.734  0.5614 -0.1100 -0.7333
 9876TIP3    H151043   1.239   4.500   2.708  0.4337  1.0866  0.6279
 9876TIP3    H251044   1.097   4.535   2.749 -0.1341 -0.8614  0.3582
 9877TIP3   OH251045   0.418   5.759  11.678 -0.0918 -0.4222 -0.3798
 9877TIP3    H151046   0.457   5.739  11.763  0.2812 -0.7319 -0.6209
 9877TIP3    H251047   0.492   5.769  11.619 -0.2790  1.6134 -0.2811
 9878TIP3   OH251048   2.822   0.858   2.410 -0.5083 -0.5830  0.3122
 9878TIP3    H151049   2.907   0.841   2.368 -0.6158 -1.3614  0.3987
 9878TIP3    H251050   2.799   0.775   2.451 -2.0210 -0.8284 -0.9725
 9879TIP3   OH251051   5.489   2.198   1.767 -0.2662  0.0664 -0.3951
 9879TIP3    H151052   5.441   2.224   1.845  1.6921  0.5508  0.6711
 9879TIP3    H251053   5.581   2.217   1.787  0.2702  0.2098 -2.8064
 9880TIP3   OH251054   0.511   2.430  14.057  0.3573  0.6939  0.0698
 9880TIP3    H151055   0.543   2.508  14.103  0.6063  0.1564  0.8215
 9880TIP3    H251056   0.565   2.358  14.091 -1.9880 -0.3321  1.7951
 9881TIP3   OH251057   1.933   0.551  15.468  0.2917  0.3727 -0.5395
 9881TIP3    H151058   2.005   0.550  15.531  0.6488 -1.0371 -0.9438
 9881TIP3    H251059   1.854   0.551  15.523  0.6003 -0.7742 -0.0772
 9882TIP3   OH251060   3.136   6.491   1.293  0.0321 -0.7573  0.1928
 9882TIP3    H151061   3.124   6.470   1.201  0.1823 -0.8815  0.1998
 9882TIP3    H251062   3.075   6.433   1.339 -0.9372  0.1783  0.1018
 9883TIP3   OH251063   3.888   6.390   3.376  0.6548  0.3471 -0.0886
 9883TIP3    H151064   3.966   6.430   3.336  0.6631  0.9738  0.5455
 9883TIP3    H251065   3.816   6.447   3.349  0.3138 -0.6040 -1.2222
 9884TIP3   OH251066   5.205   5.717  12.233 -0.3965 -0.4354  0.2547
 9884TIP3    H151067   5.129   5.663  12.212 -1.8998  2.0522 -0.8549
 9884TIP3    H251068   5.219   5.769  12.154  1.0371  0.7923  1.3071
 9885TIP3   OH251069   2.211   4.387   5.980 -0.8284 -0.7074 -0.5527
 9885TIP3    H151070   2.204   4.299   6.017 -0.0423 -1.0599 -1.2300
 9885TIP3    H251071   2.236   4.373   5.889  1.0904  0.2656 -0.1916
 9886TIP3   OH251072   4.360   0.684   2.778  0.0468 -0.7036  0.1084
 9886TIP3    H151073   4.270   0.656   2.764 -0.2869  1.2596 -2.0356
 9886TIP3    H251074   4.401   0.676   2.692  0.3871  3.5333 -0.2207
 9887TIP3   OH251075   1.850   0.120  14.263 -0.0865  0.8311 -0.6282
 9887TIP3    H151076   1.896   0.201  14.284 -1.8764  1.5250  0.7708
 9887TIP3    H251077   1.762   0.133  14.297  0.3413 -2.7795  2.1531
 9888TIP3   OH251078   0.250   1.148  15.468 -0.0226 -0.0854  0.0285
 9888TIP3    H151079   0.225   1.175  15.380  1.9756 -0.7143 -0.7662
 9888TIP3    H251080   0.297   1.066  15.456 -1.4334 -1.2062  1.8990
 9889TIP3   OH251081   0.435   2.269   1.000  0.1043  0.2813 -0.2007
 9889TIP3    H151082   0.437   2.251   0.906  0.3042 -0.4636 -0.0586
 9889TIP3    H251083   0.346   2.244   1.027 -0.2533  1.3824 -0.3641
 9890TIP3   OH251084   2.153   6.107   6.340 -0.1840 -0.1563 -0.2513
 9890TIP3    H151085   2.191   6.054   6.410 -2.8636 -0.5301  0.9980
 9890TIP3    H251086   2.063   6.074   6.331 -0.9195  2.0871 -1.6112
 9891TIP3   OH251087   5.409   0.365  14.249  0.2068 -0.2572 -0.0547
 9891TIP3    H151088   5.432   0.412  14.169  1.8325 -1.0921 -0.0957
 9891TIP3    H251089   5.386   0.434  14.311 -3.5137  0.3012 -1.9388
 9892TIP3   OH251090   3.737   6.352  12.188  0.0488 -0.2156 -0.6038
 9892TIP3    H151091   3.705   6.365  12.278  2.4069  0.6529  0.1582
 9892TIP3    H251092   3.725   6.258  12.172  0.7121 -0.6135  1.1004
 9893TIP3   OH251093   4.930   2.223   3.159  0.4019  0.7487 -0.2116
 9893TIP3    H151094   4.855   2.216   3.099 -0.4742 -0.6448  0.9947
 9893TIP3    H251095   5.001   2.177   3.114  0.8267  2.8983 -1.7833
 9894TIP3   OH251096   0.281   5.984   2.335 -0.4010 -0.1789 -0.1153
 9894TIP3    H151097   0.201   5.950   2.293 -0.3048 -2.9918  1.8168
 9894TIP3    H251098   0.250   6.049   2.398 -1.3984 -2.3752  1.7485
 9895TIP3   OH251099   2.429   5.220  14.110  0.2979 -0.0637  0.2304
 9895TIP3    H151100   2.430   5.127  14.134  1.2473  0.1963  1.2968
 9895TIP3    H251101   2.520   5.248  14.122  0.3578  0.5985 -1.7340
 9896TIP3   OH251102   3.998   4.487   5.981 -0.2713 -0.0677  0.3705
 9896TIP3    H151103   3.903   4.496   5.977 -0.2725  0.4344  1.3888
 9896TIP3    H251104   4.019   4.488   6.074  0.9658  2.4504  0.1049
 9897TIP3   OH251105   0.319   2.925   3.854 -0.1411  0.4442 -0.0201
 9897TIP3    H151106   0.397   2.882   3.887  0.4441  0.5154 -1.2877
 9897TIP3    H251107   0.284   2.865   3.787  0.4856  1.7410 -1.5458
 9898TIP3   OH251108   3.785   4.809   0.371 -0.0493 -0.1334 -0.5747
 9898TIP3    H151109   3.808   4.716   0.381 -0.4067 -0.3410 -1.6350
 9898TIP3    H251110   3.700   4.808   0.327  0.0055  0.6945 -0.7021
 9899TIP3   OH251111   5.400   0.054   5.055  0.2179  0.2949 -0.0665
 9899TIP3    H151112   5.468  -0.012   5.044  0.4720  0.4899  0.3066
 9899TIP3    H251113   5.353   0.055   4.971  0.6993  0.1870 -0.3385
 9900TIP3   OH251114   0.627   1.187   1.774 -0.5305  0.4180  0.1405
 9900TIP3    H151115   0.714   1.198   1.811 -0.1336  2.2504 -1.2527
 9900TIP3    H251116   0.567   1.197   1.848  0.3571  1.5713  0.7153
 9901TIP3   OH251117   3.982   6.265   4.532  0.3817 -0.3435 -0.6512
 9901TIP3    H151118   4.049   6.237   4.595 -0.1793  0.1690  0.1850
 9901TIP3    H251119   3.964   6.356   4.555 -0.2188 -0.3200 -1.2121
 9902TIP3   OH251120   4.402   4.697  16.795 -0.3700  0.1058  0.3608
 9902TIP3    H151121   4.487   4.682  16.837 -0.0343  0.2656 -0.2581
 9902TIP3    H251122   4.338   4.667  16.860  0.2078 -1.4857  0.2307
 9903TIP3   OH251123   0.820   5.073  10.820 -0.1671 -0.5692  0.3633
 9903TIP3    H151124   0.855   5.115  10.898 -0.1964 -1.7718  1.0314
 9903TIP3    H251125   0.871   5.110  10.748 -0.7804  1.2432  0.8406
 9904TIP3   OH251126   4.672   0.312   4.952 -0.0363 -0.2192  0.4985
 9904TIP3    H151127   4.613   0.302   4.878 -1.5366  2.0788  1.3505
 9904TIP3    H251128   4.620   0.356   5.019  1.7567 -0.8401  2.3645
 9905TIP3   OH251129   0.759   1.705   5.564  0.1902 -0.5488  0.0216
 9905TIP3    H151130   0.779   1.778   5.505 -0.8031 -0.8913 -0.7525
 9905TIP3    H251131   0.791   1.628   5.519  0.5218 -0.6775  0.4803
 9906TIP3   OH251132   4.073   2.146   2.042 -0.0828 -0.7947 -0.1460
 9906TIP3    H151133   4.099   2.235   2.018 -0.9416 -0.6344 -0.4848
 9906TIP3    H251134   4.089   2.140   2.136 -0.0734 -0.2655 -0.1161
 9907TIP3   OH251135   4.894   1.086  12.739  0.0670 -0.2045  0.5765
 9907TIP3    H151136   4.806   1.123  12.748 -0.4344 -1.3895  0.6591
 9907TIP3    H251137   4.890   1.037  12.656  0.2699 -1.2752  1.1937
 9908TIP3   OH251138   1.169   3.400   0.310 -0.3385  0.4238  0.5042
 9908TIP3    H151139   1.099   3.442   0.360  0.6235  2.3775  0.2660
 9908TIP3    H251140   1.242   3.462   0.315  0.7436 -0.7088 -0.8433
 9909TIP3   OH251141   3.123   5.772  12.058 -0.0457  0.0568  0.0920
 9909TIP3    H151142   3.156   5.858  12.031  0.6058  0.2511  1.4511
 9909TIP3    H251143   3.196   5.733  12.107 -0.7275 -0.8130  0.4244
 9910TIP3   OH251144   2.044   5.491   2.356  0.6726  0.0593 -0.1145
 9910TIP3    H151145   1.984   5.491   2.431  0.8247  0.7865  0.0188
 9910TIP3    H251146   2.003   5.552   2.294  0.1847 -1.0847 -0.9257
 9911TIP3   OH251147   0.634   3.667   3.865 -0.6274 -0.3159 -0.0522
 9911TIP3    H151148   0.625   3.638   3.775  1.3603 -0.6381 -0.1749
 9911TIP3    H251149   0.544   3.673   3.898 -1.2879 -2.1383 -1.4266
 9912TIP3   OH251150   1.412   3.550  12.177 -0.6059 -0.1030  0.4217
 9912TIP3    H151151   1.408   3.637  12.137 -1.1162  0.2544  1.2470
 9912TIP3    H251152   1.482   3.506  12.130  0.7508  1.2980  1.1022
 9913TIP3   OH251153   6.494   3.165   0.501  0.1092  0.7420 -0.5569
 9913TIP3    H151154   6.579   3.210   0.503  0.7684 -0.4577 -1.0392
 9913TIP3    H251155   6.513   3.076   0.530 -1.1037  0.6279 -0.0839
 9914TIP3   OH251156   4.810   1.764   4.107 -0.3603  0.2377  0.1957
 9914TIP3    H151157   4.846   1.836   4.158  0.1083  1.3188 -1.6043
 9914TIP3    H251158   4.728   1.798   4.072 -1.0145 -0.7279  0.7556
 9915TIP3   OH251159   5.093   5.253  16.641 -0.6476  0.7590  0.4808
 9915TIP3    H151160   5.120   5.262  16.733 -1.0342 -0.8535  0.7622
 9915TIP3    H251161   5.158   5.195  16.602 -1.0437  0.6402 -0.0068
 9916TIP3   OH251162   2.410   5.428  15.901  0.1603 -0.3796  0.3846
 9916TIP3    H151163   2.456   5.349  15.873  1.4687  0.4210  0.2524
 9916TIP3    H251164   2.319   5.399  15.914  0.3261 -1.5873 -1.0147
 9917TIP3   OH251165   1.569   5.135  12.857 -0.1961 -0.0715 -0.3015
 9917TIP3    H151166   1.580   5.188  12.935  4.3653  0.5676 -1.2259
 9917TIP3    H251167   1.555   5.046  12.889 -1.6231  0.6754  1.2014
 9918TIP3   OH251168   1.296   3.361  16.785  0.0616 -0.2666 -0.2514
 9918TIP3    H151169   1.289   3.312  16.702 -1.5494  0.6551 -0.6837
 9918TIP3    H251170   1.287   3.452  16.759  1.1285  0.1480  0.7878
 9919TIP3   OH251171   2.825   0.905  11.793  0.1836  0.1366 -0.4697
 9919TIP3    H151172   2.794   0.953  11.716 -0.2329  0.0836 -0.3385
 9919TIP3    H251173   2.905   0.950  11.819  1.0554 -0.6574 -1.7248
 9920TIP3   OH251174   4.231   1.153   5.393 -0.2773  0.5535 -0.6595
 9920TIP3    H151175   4.288   1.103   5.450 -0.8125 -0.6941 -1.2101
 9920TIP3    H251176   4.267   1.242   5.395 -0.6650  0.7022  2.1182
 9921TIP3   OH251177   0.687   5.231  11.323 -0.1327  0.2332  0.3027
 9921TIP3    H151178   0.763   5.191  11.279 -1.2506  0.3273 -1.8038
 9921TIP3    H251179   0.703   5.325  11.318 -0.4132  0.2583 -0.2465
 9922TIP3   OH251180   5.901   2.738   4.237  0.5847  0.1690  0.2194
 9922TIP3    H151181   5.818   2.710   4.198  0.2639  0.7050  0.5015
 9922TIP3    H251182   5.894   2.712   4.329  0.1410  1.4596  0.5608
 9923TIP3   OH251183   0.511   5.360   2.026 -0.2218 -0.0952  0.7342
 9923TIP3    H151184   0.562   5.398   1.955 -1.3091 -0.8573 -0.4938
 9923TIP3    H251185   0.570   5.296   2.067  0.1802 -0.1734  0.0439
 9924TIP3   OH251186   6.612   6.000  14.990 -0.0537  0.1517 -0.1205
 9924TIP3    H151187   6.587   5.908  14.986  0.6750 -0.0495 -0.1763
 9924TIP3    H251188   6.579   6.038  14.908  0.8539 -0.3716 -0.7339
 9925TIP3   OH251189   4.186   3.042   1.029  0.6250  0.1547 -0.1095
 9925TIP3    H151190   4.211   3.041   1.122 -0.4958 -1.7483  0.1978
 9925TIP3    H251191   4.208   2.955   0.997  0.0939  0.4719 -1.3823
 9926TIP3   OH251192   4.385   2.744  11.224 -0.1165  0.0120  0.2133
 9926TIP3    H151193   4.462   2.794  11.196  1.1329 -1.9562  0.0628
 9926TIP3    H251194   4.368   2.683  11.152 -0.5612 -0.9635  1.1242
 9927TIP3   OH251195   5.951   1.249  15.821  0.3990 -0.4572  0.5112
 9927TIP3    H151196   5.917   1.316  15.761 -0.9671 -1.4523  0.1626
 9927TIP3    H251197   5.997   1.187  15.764  0.2600 -0.6863  0.6480
 9928TIP3   OH251198   1.939   4.218   1.184 -0.1156 -0.3123  0.2874
 9928TIP3    H151199   1.856   4.244   1.144 -1.2407 -0.6060  2.3620
 9928TIP3    H251200   1.939   4.123   1.179 -0.3339 -0.3550  1.1361
 9929TIP3   OH251201   0.684   0.885  11.809 -0.9347  0.2621 -0.0063
 9929TIP3    H151202   0.691   0.937  11.730  0.0317 -1.4978 -1.1221
 9929TIP3    H251203   0.627   0.812  11.785 -0.3110 -0.4984  0.7829
 9930TIP3   OH251204   0.002   4.935   5.308 -0.5423 -0.5327 -0.3338
 9930TIP3    H151205   0.068   4.978   5.254 -1.2343  0.3186 -0.5098
 9930TIP3    H251206  -0.046   4.880   5.246  1.0826 -2.5004  0.0861
 9931TIP3   OH251207   3.388   3.834   1.556  0.0835  0.2666 -0.9199
 9931TIP3    H151208   3.335   3.780   1.614 -0.1682 -1.1169 -2.3995
 9931TIP3    H251209   3.455   3.872   1.613 -0.4364 -0.6965  0.3581
 9932TIP3   OH251210   4.066   1.031   1.366 -0.2529 -0.6801  0.5534
 9932TIP3    H151211   3.994   1.031   1.428  0.6708 -0.2784  1.6337
 9932TIP3    H251212   4.058   0.947   1.320  0.3156 -1.9607  2.7136
 9933TIP3   OH251213   1.559   5.203   0.289  0.3320 -0.2940  0.6086
 9933TIP3    H151214   1.519   5.241   0.211  1.1767 -0.4736  0.0881
 9933TIP3    H251215   1.530   5.260   0.360 -1.0082 -0.5327  0.2646
 9934TIP3   OH251216   4.892   1.387  12.870 -0.0387 -0.3882  0.4106
 9934TIP3    H151217   4.889   1.433  12.954 -1.0491 -0.7148  0.5695
 9934TIP3    H251218   4.802   1.355  12.858 -0.1511  0.4917 -1.2567
 9935TIP3   OH251219   4.489   3.493  16.482  0.0341  0.4692 -0.0487
 9935TIP3    H151220   4.401   3.525  16.458  0.2595  0.7562 -0.5045
 9935TIP3    H251221   4.539   3.573  16.499 -0.0305  0.2755  1.0749
 9936TIP3   OH251222   0.915   6.554   0.101 -0.8687  0.4172  0.3734
 9936TIP3    H151223   0.843   6.491   0.094  0.4929 -0.9530 -1.7902
 9936TIP3    H251224   0.974   6.515   0.166  0.7285 -1.3590 -2.0836
 9937TIP3   OH251225   5.204   0.817  13.256 -0.9285 -0.2229  0.7267
 9937TIP3    H151226   5.225   0.759  13.329  1.0432 -0.2508  0.1860
 9937TIP3    H251227   5.207   0.905  13.292  0.2172 -0.2252  0.6784
 9938TIP3   OH251228   1.249   1.705  12.416 -0.6302  0.5980  0.0151
 9938TIP3    H151229   1.190   1.778  12.395 -0.3217  1.1247  0.9264
 9938TIP3    H251230   1.218   1.673  12.500 -0.9493 -0.5297 -0.5306
 9939TIP3   OH251231   0.021   1.594  13.345  0.3504  0.1794  0.1417
 9939TIP3    H151232   0.088   1.540  13.388  1.4816  1.9177  0.5998
 9939TIP3    H251233  -0.055   1.588  13.403  0.7664 -0.1901  0.6608
 9940TIP3   OH251234   5.253   0.272   5.173  0.1596 -0.0196 -0.1465
 9940TIP3    H151235   5.265   0.298   5.264  0.2380  1.0500 -0.4616
 9940TIP3    H251236   5.308   0.194   5.163 -0.9622 -1.0065  1.1035
 9941TIP3   OH251237   4.703   0.870   1.421 -0.3834 -0.4426  0.5086
 9941TIP3    H151238   4.709   0.901   1.330 -0.5606 -0.3805  0.5175
 9941TIP3    H251239   4.633   0.923   1.460 -0.3849 -0.5470  0.6492
 9942TIP3   OH251240   5.106   0.234  15.346  0.3345 -0.2328 -0.8091
 9942TIP3    H151241   5.194   0.253  15.315  0.4073 -2.0569 -1.7839
 9942TIP3    H251242   5.119   0.192  15.431  0.2304  2.6629  0.6924
 9943TIP3   OH251243   4.729   0.750   4.415  0.1430 -0.2260  0.3593
 9943TIP3    H151244   4.770   0.784   4.495  2.0150  0.9207 -1.0393
 9943TIP3    H251245   4.646   0.797   4.408  0.3412  0.2578  1.1942
 9944TIP3   OH251246   2.565   5.485  15.228 -0.3319 -0.4209 -0.2161
 9944TIP3    H151247   2.553   5.546  15.301  1.6589  2.0683 -1.8911
 9944TIP3    H251248   2.481   5.484  15.183 -0.3732  1.0990 -0.1831
 9945TIP3   OH251249   4.833   5.943   4.475  0.9950  0.7562 -0.1121
 9945TIP3    H151250   4.818   5.879   4.406 -1.7228  1.6786 -0.4392
 9945TIP3    H251251   4.825   5.893   4.556 -0.1966  0.4829 -0.3854
 9946TIP3   OH251252   6.399   1.444  15.430  0.2918  0.0910  0.0947
 9946TIP3    H151253   6.485   1.457  15.470  1.4635  0.7477 -2.5083
 9946TIP3    H251254   6.358   1.530  15.430 -0.2100 -0.1388  0.9368
 9947TIP3   OH251255   3.113   5.563   2.807  0.1680  0.6976 -0.4719
 9947TIP3    H151256   3.165   5.524   2.877  2.2370  0.8024 -1.9049
 9947TIP3    H251257   3.061   5.631   2.850  0.9816  0.3713  1.0532
 9948TIP3   OH251258   5.210   3.244   4.825  0.7063  0.3174 -0.2776
 9948TIP3    H151259   5.200   3.336   4.799  0.0398  0.1421 -0.6429
 9948TIP3    H251260   5.245   3.201   4.748 -0.5382 -0.0510 -0.6472
 9949TIP3   OH251261   5.628   5.109   1.189  0.5849  0.6177 -0.4145
 9949TIP3    H151262   5.654   5.160   1.266 -1.1001  2.0092 -0.7258
 9949TIP3    H251263   5.616   5.174   1.120  0.9772 -0.5003 -1.5435
 9950TIP3   OH251264   0.042   6.553   1.006 -0.1080 -0.0640  0.1173
 9950TIP3    H151265  -0.042   6.592   0.980  0.7169  3.6206  2.6439
 9950TIP3    H251266   0.027   6.522   1.096 -0.0934 -3.8193 -1.0858
 9951TIP3   OH251267   4.918   2.995   2.976  0.1769 -0.2296 -0.3988
 9951TIP3    H151268   4.889   2.904   2.969  2.3472 -1.3317  3.0505
 9951TIP3    H251269   5.000   2.998   2.926  0.1022 -0.1994 -0.5173
 9952TIP3   OH251270   2.148   2.630  15.626  0.6755 -0.1989  0.8682
 9952TIP3    H151271   2.137   2.602  15.535 -1.1984  3.0037  0.0458
 9952TIP3    H251272   2.241   2.616  15.645  1.1732 -0.5032 -1.6701
 9953TIP3   OH251273   1.396   5.970  16.113 -0.2491  0.0605  0.8790
 9953TIP3    H151274   1.307   5.938  16.124 -0.1329  0.2803  2.6598
 9953TIP3    H251275   1.415   5.957  16.020 -1.7435 -0.9729  0.6983
 9954TIP3   OH251276   2.961   1.210  12.421 -0.1830  0.2407  0.2647
 9954TIP3    H151277   2.903   1.181  12.492  1.0730  0.9057  1.5777
 9954TIP3    H251278   3.049   1.201  12.457  0.4500  0.7865 -1.1420
 9955TIP3   OH251279   1.730   4.520  15.632  1.2250  0.4168 -0.4176
 9955TIP3    H151280   1.825   4.525  15.644  1.2588  0.8380 -0.8663
 9955TIP3    H251281   1.697   4.489  15.717  1.6279  1.6452  0.2080
 9956TIP3   OH251282   5.432   4.770   0.005 -0.0214  0.0130  0.2247
 9956TIP3    H151283   5.410   4.854  -0.036 -0.3355 -0.1363  0.0827
 9956TIP3    H251284   5.491   4.792   0.076  0.0904  0.3317  0.0316
 9957TIP3   OH251285   3.662   2.857   5.722  0.0398 -0.6955  0.0034
 9957TIP3    H151286   3.733   2.846   5.785 -0.2296 -0.8305  0.2800
 9957TIP3    H251287   3.584   2.828   5.768 -0.4599  1.0637  0.2728
 9958TIP3   OH251288   1.669   4.528   1.140  0.7843 -0.1209 -0.2970
 9958TIP3    H151289   1.594   4.588   1.135  1.1880  0.3501 -0.8628
 9958TIP3    H251290   1.674   4.502   1.232  0.7312  0.8833 -0.0049
 9959TIP3   OH251291   3.460   3.091   4.923 -0.3210 -0.1634 -0.3107
 9959TIP3    H151292   3.503   3.068   5.005  0.4044  1.2123 -0.2835
 9959TIP3    H251293   3.526   3.073   4.855 -0.2998  0.3212 -0.4247
 9960TIP3   OH251294   5.922   1.903   3.903 -0.6931  0.3174 -0.9229
 9960TIP3    H151295   5.840   1.890   3.856 -1.2086 -1.9420  0.5281
 9960TIP3    H251296   5.943   1.816   3.939  0.3309  1.6941  1.9564
 9961TIP3   OH251297   6.520   0.069  17.107  0.4156 -0.0161 -0.2040
 9961TIP3    H151298   6.559  -0.003  17.057  0.3557 -0.9533  1.0709
 9961TIP3    H251299   6.595   0.122  17.135  0.6203 -0.6791  0.5164
 9962TIP3   OH251300   4.159   3.431   0.627  0.7510  0.5994  0.0034
 9962TIP3    H151301   4.181   3.488   0.700  0.7308  0.3586  0.1992
 9962TIP3    H251302   4.158   3.489   0.550  1.0114  0.8058  0.1560
 9963TIP3   OH251303   1.239   4.592  15.449 -0.0766 -0.0728  0.4241
 9963TIP3    H151304   1.223   4.671  15.398 -0.6629 -1.0594 -0.9666
 9963TIP3    H251305   1.321   4.557  15.413 -0.0678 -0.3471  0.7133
 9964TIP3   OH251306   4.104   3.135  14.923  0.0015 -0.5755 -0.5615
 9964TIP3    H151307   4.069   3.214  14.964 -0.6940 -0.3203 -1.6163
 9964TIP3    H251308   4.057   3.063  14.964 -0.3170 -0.3536 -0.5352
 9965TIP3   OH251309   3.056   3.215  11.099 -0.9667 -0.3344  0.0124
 9965TIP3    H151310   3.120   3.194  11.167 -0.3702 -0.7821 -0.6792
 9965TIP3    H251311   2.981   3.251  11.146 -0.7849 -1.1854  0.9549
 9966TIP3   OH251312   0.858   0.396  12.261  0.3897 -0.8047 -0.1204
 9966TIP3    H151313   0.814   0.337  12.321  0.5046  0.5631  1.3361
 9966TIP3    H251314   0.787   0.438  12.212  0.1581 -0.1524  0.7573
 9967TIP3   OH251315   5.585   2.932  11.455  0.3181  0.0795  0.2841
 9967TIP3    H151316   5.664   2.892  11.491 -0.1627  0.1992  1.4776
 9967TIP3    H251317   5.513   2.880  11.489 -0.0388 -1.4150 -2.5916
 9968TIP3   OH251318   5.350   1.951  12.647 -0.0527  0.8115  0.5848
 9968TIP3    H151319   5.264   1.966  12.685 -0.7630 -0.7144 -0.3757
 9968TIP3    H251320   5.396   2.034  12.659 -1.6086  1.6123  1.1902
 9969TIP3   OH251321   0.289   5.421  12.486  0.1725  0.9267 -0.0778
 9969TIP3    H151322   0.267   5.406  12.578 -1.1801  2.2882 -0.1624
 9969TIP3    H251323   0.340   5.502  12.485  1.5191  0.0925 -0.3722
 9970TIP3   OH251324   6.347   0.152  15.021  0.5954  0.1072 -0.1439
 9970TIP3    H151325   6.307   0.147  14.935 -0.4550  0.8635  0.2879
 9970TIP3    H251326   6.370   0.062  15.043  1.9511  0.0397 -1.6995
 9971TIP3   OH251327   3.506   2.937  13.670  0.0215 -0.2180  0.1644
 9971TIP3    H151328   3.588   2.898  13.640  0.1743 -0.9336  1.4701
 9971TIP3    H251329   3.532   3.022  13.705  0.0965 -0.1422 -0.0707
 9972TIP3   OH251330   1.037   5.466  16.262 -0.5048 -0.1798 -0.3084
 9972TIP3    H151331   1.074   5.507  16.341 -0.8456 -0.8364  0.1912
 9972TIP3    H251332   1.076   5.516  16.190  0.9810 -0.5305  0.2189
 9973TIP3   OH251333   5.947   0.081   2.958 -0.9579  0.3579  0.1679
 9973TIP3    H151334   6.023   0.140   2.953 -0.4217 -0.3999 -0.6583
 9973TIP3    H251335   5.985  -0.007   2.960 -1.8120 -0.0240 -0.2107
 9974TIP3   OH251336   0.900   6.671   5.293 -0.6810  0.2803  0.2758
 9974TIP3    H151337   0.855   6.691   5.211 -0.7063  0.2513  0.2828
 9974TIP3    H251338   0.991   6.654   5.268 -0.9493 -0.9819  0.0922
 9975TIP3   OH251339   0.208   1.463   6.390 -0.2235 -0.0768  0.5566
 9975TIP3    H151340   0.147   1.392   6.412  0.3721 -0.9043 -0.4312
 9975TIP3    H251341   0.294   1.429   6.414  0.0519  0.3727  0.2234
 9976TIP3   OH251342   3.239   1.417   0.926  0.7637  0.2874 -0.3502
 9976TIP3    H151343   3.161   1.381   0.884  1.8510 -0.9015 -1.3931
 9976TIP3    H251344   3.275   1.344   0.977  0.9072  0.9786  0.5508
 9977TIP3   OH251345   1.428   3.319   3.786  0.3728  0.2138  0.2084
 9977TIP3    H151346   1.429   3.224   3.774  2.0486 -0.0087  1.8910
 9977TIP3    H251347   1.413   3.331   3.879 -1.1804  1.6605 -0.2043
 9978TIP3   OH251348   1.255   1.567   1.964 -0.0670 -0.6525 -0.6292
 9978TIP3    H151349   1.333   1.532   2.008 -0.5149  0.5475  1.1980
 9978TIP3    H251350   1.215   1.490   1.923  0.2127 -1.9247  1.3629
 9979TIP3   OH251351   0.978   3.478   2.101 -0.0363  0.1849  0.0640
 9979TIP3    H151352   0.906   3.459   2.160  2.1464 -0.4086  2.6672
 9979TIP3    H251353   0.980   3.574   2.093 -1.3872  0.1749 -0.4477
 9980TIP3   OH251354   5.285   1.180   5.767  0.3193  0.3897  0.2961
 9980TIP3    H151355   5.240   1.154   5.686 -1.1703 -0.2199  1.2888
 9980TIP3    H251356   5.280   1.102   5.822 -0.7876  1.5761  1.8815
 9981TIP3   OH251357   0.827   5.121   5.798  0.2624  0.0253  0.1064
 9981TIP3    H151358   0.899   5.162   5.750 -0.4089  1.0459 -0.0448
 9981TIP3    H251359   0.829   5.029   5.770  2.4068 -0.3059  1.1932
 9982TIP3   OH251360   3.768   5.182  15.301 -0.1182  0.3520  0.4367
 9982TIP3    H151361   3.811   5.204  15.384 -1.5899  0.1875  1.2417
 9982TIP3    H251362   3.832   5.208  15.235  1.1174  0.4019  1.6056
 9983TIP3   OH251363   6.777   0.808  11.519  0.5107 -0.0578 -0.3158
 9983TIP3    H151364   6.694   0.812  11.472  0.4773  1.2631 -0.1684
 9983TIP3    H251365   6.799   0.899  11.536  0.8435 -0.4783  1.6552
 9984TIP3   OH251366   4.233   5.656  10.735  0.0739 -0.2948  0.3574
 9984TIP3    H151367   4.240   5.580  10.677  1.2218 -0.2721  0.4547
 9984TIP3    H251368   4.237   5.731  10.677  0.1947 -0.2906  0.3713
 9985TIP3   OH251369   0.304   5.335   5.055 -0.0435 -0.3354 -0.7496
 9985TIP3    H151370   0.308   5.423   5.019  0.3156  0.5200  1.3268
 9985TIP3    H251371   0.243   5.288   4.998  0.4082  0.9929 -2.3702
 9986TIP3   OH251372   0.352   1.219   4.065  0.3119 -0.3540 -0.0818
 9986TIP3    H151373   0.281   1.155   4.057 -0.2812  0.3275 -0.3924
 9986TIP3    H251374   0.328   1.288   4.004  0.2395  0.8156  1.2481
 9987TIP3   OH251375   4.409   1.685  13.029  0.6198  0.2842 -0.0442
 9987TIP3    H151376   4.326   1.732  13.018  1.9829  2.5375 -1.2350
 9987TIP3    H251377   4.428   1.650  12.942  1.2165  0.3436  0.0634
 9988TIP3   OH251378   0.433   5.861  14.531  1.1484 -0.6360 -0.0820
 9988TIP3    H151379   0.372   5.789  14.514  1.4735 -1.0079  0.2982
 9988TIP3    H251380   0.379   5.928  14.574  0.8984 -0.7595 -0.1977
 9989TIP3   OH251381   4.131   6.654   3.811 -0.1978  0.0896 -0.1896
 9989TIP3    H151382   4.050   6.628   3.768  0.3975  0.8317 -1.7832
 9989TIP3    H251383   4.153   6.581   3.868 -1.1064 -0.8205 -0.9969
 9990TIP3   OH251384   6.410   4.128  13.771  0.0054  0.4034 -0.6807
 9990TIP3    H151385   6.457   4.179  13.706 -1.0455  0.5882 -1.3185
 9990TIP3    H251386   6.341   4.083  13.722  0.0241 -0.4994  0.0936
 9991TIP3   OH251387   5.250   0.818  15.880  0.4606 -0.1741  0.7984
 9991TIP3    H151388   5.196   0.895  15.863  0.8240 -0.5979 -2.4790
 9991TIP3    H251389   5.240   0.802  15.974 -1.5024  2.4307  1.0758
 9992TIP3   OH251390   1.334   2.778   4.773  0.1620 -0.0936  0.3555
 9992TIP3    H151391   1.328   2.683   4.764 -1.8202  0.2007 -1.9320
 9992TIP3    H251392   1.249   2.805   4.807 -0.1571  1.0558 -1.2902
 9993TIP3   OH251393   1.272   2.570   2.740 -0.2309 -0.1256  0.2589
 9993TIP3    H151394   1.282   2.664   2.755  0.3031 -0.2052  0.4190
 9993TIP3    H251395   1.203   2.542   2.800 -1.7419  0.5174 -1.1413
 9994TIP3   OH251396   5.320   5.147   4.040 -0.2256 -0.8144 -0.4535
 9994TIP3    H151397   5.274   5.156   3.956 -2.5417  1.9383  0.9913
 9994TIP3    H251398   5.252   5.117   4.100  0.9041 -0.7178  0.8811
 9995TIP3   OH251399   4.650   3.790  12.524 -0.6755  0.1680  0.0572
 9995TIP3    H151400   4.623   3.721  12.585 -0.3529 -0.4169 -0.4482
 9995TIP3    H251401   4.742   3.808  12.547 -0.0519 -1.2003 -1.2950
 9996TIP3   OH251402   1.393   5.500   3.559  0.4867 -0.1193  0.0371
 9996TIP3    H151403   1.484   5.529   3.568  0.7528 -0.9028 -0.1568
 9996TIP3    H251404   1.385   5.474   3.467  0.0985 -0.1725  0.0858
 9997TIP3   OH251405   4.623   1.642   3.136 -0.0211 -0.2614 -0.0024
 9997TIP3    H151406   4.566   1.717   3.121  0.1857 -0.1483 -0.2077
 9997TIP3    H251407   4.562   1.568   3.144 -0.1097 -0.3823 -1.7276
 9998TIP3   OH251408   4.568   4.066   1.216  0.2820  0.0710 -0.3899
 9998TIP3    H151409   4.512   4.143   1.223  0.2013  0.0115 -0.3954
 9998TIP3    H251410   4.654   4.101   1.190  0.1847  0.1354 -0.6255
 9999TIP3   OH251411   5.686   1.379   4.993 -0.7342  0.1641  0.1268
 9999TIP3    H151412   5.649   1.330   5.066 -0.1552 -0.9560 -0.3186
 9999TIP3    H251413   5.631   1.356   4.918 -0.4648  0.1971 -0.0818
10000TIP3   OH251414   6.654   6.002   5.963  0.4962  0.5855  0.0375
10000TIP3    H151415   6.702   6.007   6.046 -0.6382 -0.5946  0.7863
10000TIP3    H251416   6.663   6.089   5.924  1.8277  0.8662  0.9530
10001TIP3   OH251417   3.573   0.399  12.787  0.6018  0.3236  0.6786
10001TIP3    H151418   3.517   0.398  12.709  1.8249  0.5596 -0.2261
10001TIP3    H251419   3.577   0.492  12.813 -0.2914  0.1676  1.3881
10002TIP3   OH251420   4.384   4.826  13.418  0.3499 -0.4249 -0.3029
10002TIP3    H151421   4.356   4.908  13.377  0.8993  0.1398  0.4209
10002TIP3    H251422   4.476   4.818  13.394  0.9934  0.4993  1.6963
10003TIP3   OH251423   1.820   5.705  15.859  0.4712 -0.4499 -0.1219
10003TIP3    H151424   1.784   5.618  15.843 -1.6919  0.5628 -0.9710
10003TIP3    H251425   1.796   5.725  15.949  0.2735 -0.3987 -0.1864
10004TIP3   OH251426   2.377   2.809   5.144 -0.3479  0.1413 -0.0316
10004TIP3    H151427   2.315   2.831   5.213 -0.4551  0.4632 -0.2316
10004TIP3    H251428   2.338   2.844   5.064  0.8045  1.6839  0.0506
10005TIP3   OH251429   5.233   5.691   0.423 -0.2225 -1.0747 -0.6393
10005TIP3    H151430   5.181   5.663   0.347  4.1977 -2.0256 -3.5356
10005TIP3    H251431   5.274   5.773   0.395  1.2249 -1.2777  0.7922
10006TIP3   OH251432   5.377   5.029  17.180  0.3386 -0.0366  0.4187
10006TIP3    H151433   5.319   5.074  17.242 -1.9279 -1.8472 -0.3203
10006TIP3    H251434   5.414   5.099  17.127  0.6193  1.3535  2.3789
10007TIP3   OH251435   5.957   1.798   0.619 -0.5470  0.2425  0.3091
10007TIP3    H151436   6.043   1.782   0.658 -1.2454 -2.7592  0.7351
10007TIP3    H251437   5.904   1.723   0.645 -2.5149  0.6658 -2.2392
10008TIP3   OH251438   1.217   5.477   1.451  0.2750  0.3550 -0.3849
10008TIP3    H151439   1.304   5.492   1.415  0.4248  2.0642  0.6189
10008TIP3    H251440   1.229   5.485   1.546 -0.8961  0.1431 -0.2130
10009TIP3   OH251441   1.486   0.000  11.864 -0.1851  0.6635  0.3192
10009TIP3    H151442   1.533  -0.079  11.890 -1.4355  0.1185  0.9502
10009TIP3    H251443   1.395  -0.017  11.888 -0.8955  1.2984 -1.8638
10010TIP3   OH251444   5.498   4.073   6.147  0.5093 -0.1551 -0.0628
10010TIP3    H151445   5.552   4.148   6.175  0.9928 -0.2467 -0.7287
10010TIP3    H251446   5.549   3.996   6.173  0.4516 -0.2444 -0.2150
10011TIP3   OH251447   4.671   5.241  16.899 -0.0855  0.1727 -0.4479
10011TIP3    H151448   4.697   5.325  16.938 -1.8050  0.4449  0.1485
10011TIP3    H251449   4.711   5.242  16.812 -0.1910  1.6856 -0.4973
10012TIP3   OH251450   5.669   6.483  14.877 -0.4268 -0.1639  0.0740
10012TIP3    H151451   5.591   6.430  14.863 -0.7729  0.4320 -0.2420
10012TIP3    H251452   5.647   6.538  14.952  0.2810 -1.1381  1.0115
10013TIP3   OH251453   4.070   3.257   2.999  0.3509  0.1041  0.9006
10013TIP3    H151454   4.128   3.306   3.057  1.5534  0.1480 -0.3190
10013TIP3    H251455   4.129   3.202   2.948 -0.8110 -0.9250  0.6540
10014TIP3   OH251456   5.637   1.845   0.844 -0.1940  0.4118 -0.3748
10014TIP3    H151457   5.580   1.905   0.891  2.0986  1.6498  0.9045
10014TIP3    H251458   5.633   1.873   0.753 -1.7333  0.3623 -0.3358
10015TIP3   OH251459   5.162   0.850  15.580  0.5028  0.1426  0.0414
10015TIP3    H151460   5.130   0.935  15.608 -2.9574 -1.0568  0.0118
10015TIP3    H251461   5.157   0.852  15.484  1.0474  0.1436  0.0128
10016TIP3   OH251462   2.590   6.417   1.755 -0.5730  0.0595  0.3630
10016TIP3    H151463   2.591   6.352   1.826 -1.4241 -0.5556 -0.1781
10016TIP3    H251464   2.593   6.365   1.675  2.6902  0.8181 -0.0779
10017TIP3   OH251465   2.297   4.671   2.846  0.2921 -0.2866  0.0682
10017TIP3    H151466   2.374   4.679   2.902  0.6881  1.0484 -0.6295
10017TIP3    H251467   2.238   4.741   2.875  0.0296 -0.2932 -0.4383
10018TIP3   OH251468   4.314   3.460  13.152 -0.3309  0.7635 -0.0845
10018TIP3    H151469   4.314   3.365  13.140 -1.7687  0.7734 -0.2032
10018TIP3    H251470   4.265   3.474  13.233 -0.4773  1.4349 -0.2845
10019TIP3   OH251471   4.882   1.716   0.947  0.1971  0.5430 -0.5689
10019TIP3    H151472   4.868   1.723   0.853  1.2610 -1.0695 -0.8659
10019TIP3    H251473   4.904   1.805   0.975 -2.0826  1.4370 -1.4778
10020TIP3   OH251474   0.946   0.384  13.435  0.0421  0.1652  0.0546
10020TIP3    H151475   0.960   0.469  13.475 -0.2770  0.9397 -1.4272
10020TIP3    H251476   0.868   0.395  13.381  0.1701 -0.9801 -0.3908
10021TIP3   OH251477   1.287   3.896  16.446 -0.2016 -0.2831 -0.4563
10021TIP3    H151478   1.266   3.899  16.353  1.5469 -0.5293 -0.8731
10021TIP3    H251479   1.319   3.807  16.460  0.9024  0.1898  0.0673
10022TIP3   OH251480   6.125   5.267   5.302 -0.0037  0.2934  0.2950
10022TIP3    H151481   6.131   5.208   5.227 -3.2635 -0.2214  0.3778
10022TIP3    H251482   6.101   5.352   5.264  0.3266  0.5195  0.5877
10023TIP3   OH251483   0.765   6.635   1.200  0.3299 -0.3185  0.6934
10023TIP3    H151484   0.696   6.683   1.246  0.5791 -0.1838  0.9326
10023TIP3    H251485   0.718   6.570   1.147  0.0573 -0.8825  1.6040
10024TIP3   OH251486   5.480   2.489  11.583  0.2509 -0.4111 -0.1778
10024TIP3    H151487   5.432   2.409  11.559  0.4716 -0.5297 -0.2231
10024TIP3    H251488   5.478   2.491  11.678 -2.1696  0.9914 -0.2136
10025TIP3   OH251489   3.246   1.067   3.727  0.3839 -0.2058  0.1162
10025TIP3    H151490   3.247   0.980   3.768 -2.2918  0.1028  0.9668
10025TIP3    H251491   3.201   1.053   3.643  0.0842  0.3276  0.1866
10026TIP3   OH251492   0.940   0.931   3.861  0.1270  0.0182 -0.2620
10026TIP3    H151493   0.959   0.959   3.951  2.0474  0.8676 -0.9011
10026TIP3    H251494   1.025   0.931   3.817 -1.0560  1.9140 -2.7090
10027TIP3   OH251495   2.260   2.800   2.336 -0.1478 -0.1231 -0.4016
10027TIP3    H151496   2.346   2.794   2.378 -0.0610  1.7216 -0.2869
10027TIP3    H251497   2.267   2.874   2.276 -1.4522 -0.3706 -0.8827
10028TIP3   OH251498   4.344   0.349  14.575 -0.0611  0.0194  0.5767
10028TIP3    H151499   4.407   0.344  14.647  1.9645  0.9319 -1.0480
10028TIP3    H251500   4.279   0.413  14.604  0.9824  0.7202  1.4196
10029TIP3   OH251501   6.408   2.936   5.079  0.1718  0.1135 -0.0266
10029TIP3    H151502   6.388   3.002   5.012 -0.9101 -1.2358 -1.0799
10029TIP3    H251503   6.371   2.972   5.160  1.3682  1.7024 -0.1706
10030TIP3   OH251504   4.050   4.167  13.730  0.1869  0.0011 -0.3110
10030TIP3    H151505   3.966   4.176  13.683 -0.4655 -1.8151  0.4334
10030TIP3    H251506   4.066   4.253  13.767 -1.4372  0.3439 -0.3456
10031TIP3   OH251507   1.229   0.652  11.389  0.2345 -0.0665 -0.2075
10031TIP3    H151508   1.144   0.611  11.407  0.8747 -1.8581 -1.2243
10031TIP3    H251509   1.245   0.707  11.467 -1.2602 -0.6779  0.5584
10032TIP3   OH251510   1.491   4.469   5.895 -0.3923  0.5644 -0.6206
10032TIP3    H151511   1.456   4.558   5.897 -0.2092  0.6340 -0.5114
10032TIP3    H251512   1.574   4.476   5.847 -1.5996  0.0129 -2.8830
10033TIP3   OH251513   0.347   0.953  14.590 -0.3030 -0.5680 -0.0179
10033TIP3    H151514   0.424   0.898  14.577  0.2941  0.3933 -0.5098
10033TIP3    H251515   0.313   0.926  14.676  0.3157 -1.3045 -0.0033
10034TIP3   OH251516   4.324   5.920  14.368 -0.0338 -0.3075 -0.4443
10034TIP3    H151517   4.310   5.829  14.393  0.2953 -1.1992 -3.2673
10034TIP3    H251518   4.419   5.931  14.373  0.0806 -0.6299 -1.6000
10035TIP3   OH251519   5.494   0.604  16.661 -0.1834  0.3685  0.1169
10035TIP3    H151520   5.581   0.565  16.660 -0.8657 -1.2102 -0.7126
10035TIP3    H251521   5.491   0.657  16.741  1.1940 -0.3490  0.6451
10036TIP3   OH251522   2.326   0.001   5.381  0.0163 -0.0647 -0.3482
10036TIP3    H151523   2.251  -0.048   5.414 -1.0819  2.4622  1.0740
10036TIP3    H251524   2.313   0.006   5.287 -1.0590 -0.5113 -0.2234
10037TIP3   OH251525   1.142   5.993  16.664 -0.0350 -0.5647  0.1821
10037TIP3    H151526   1.124   5.937  16.589  1.8225 -1.5585  0.4328
10037TIP3    H251527   1.229   5.965  16.694  0.1084  1.1856  1.4664
10038TIP3   OH251528   3.748   5.731  16.903  0.5414  0.6193  0.2071
10038TIP3    H151529   3.828   5.725  16.955  1.5375  0.3091 -1.3465
10038TIP3    H251530   3.742   5.823  16.878  0.8027  0.5022 -0.2876
10039TIP3   OH251531   5.110   2.650   5.474 -0.1391 -0.2786 -0.2222
10039TIP3    H151532   5.138   2.639   5.383 -1.3802  1.9477 -0.9021
10039TIP3    H251533   5.015   2.638   5.471 -0.2750  0.5658  0.6322
10040TIP3   OH251534   5.750   6.692   4.883  0.1114 -0.3460 -0.0347
10040TIP3    H151535   5.664   6.654   4.902  0.3380  0.3977  2.7296
10040TIP3    H251536   5.812   6.631   4.923  0.7788 -0.0892 -0.6735
10041TIP3   OH251537   1.940   3.282  12.937  0.0456 -0.3398  0.1165
10041TIP3    H151538   1.848   3.308  12.936  1.0037  3.2639 -0.5333
10041TIP3    H251539   1.975   3.319  13.018  1.2673 -0.3331 -0.3977
10042TIP3   OH251540   4.156   1.075  15.660 -0.0781  0.7605  0.8059
10042TIP3    H151541   4.081   1.018  15.644 -0.6122  1.7857 -0.5174
10042TIP3    H251542   4.136   1.119  15.743 -1.2928  1.5554  0.1069
10043TIP3   OH251543   1.288   5.229  16.063  0.0492 -0.0063 -0.1878
10043TIP3    H151544   1.262   5.293  15.997 -1.0631  1.7417  1.9019
10043TIP3    H251545   1.341   5.165  16.014 -1.7400  0.5531 -3.0084
10044TIP3   OH251546   4.509   4.470  16.051  0.7493  0.0371 -0.4051
10044TIP3    H151547   4.442   4.425  16.103  0.2220 -0.5404 -1.5668
10044TIP3    H251548   4.592   4.435  16.085  0.3955 -0.6859 -0.2657
10045TIP3   OH251549   1.854   6.488  15.018 -0.0376  0.3225  0.5740
10045TIP3    H151550   1.788   6.488  15.088  1.1420 -1.7704  1.7494
10045TIP3    H251551   1.836   6.408  14.968  0.4320  0.7277 -0.2533
10046TIP3   OH251552   4.046   2.437   1.717  0.2365  0.2444 -0.0930
10046TIP3    H151553   3.966   2.385   1.709  0.5880 -0.4118  0.5525
10046TIP3    H251554   4.030   2.515   1.664  0.3462 -1.2707 -2.4309
10047TIP3   OH251555   2.452   3.574   1.963 -0.3791 -0.7749 -0.1027
10047TIP3    H151556   2.443   3.665   1.935 -2.6110 -0.0777  2.6060
10047TIP3    H251557   2.385   3.527   1.914 -2.7253  0.0375  2.1743
10048TIP3   OH251558   6.723   0.775   5.071 -0.1850 -0.5110  0.3630
10048TIP3    H151559   6.800   0.735   5.112  0.0419 -1.6623 -1.1716
10048TIP3    H251560   6.750   0.791   4.981 -1.5068 -0.2246  0.0152
10049TIP3   OH251561   2.758   1.447  11.258 -0.0821 -0.5300  0.0199
10049TIP3    H151562   2.792   1.449  11.348  0.3640 -1.2577 -0.1285
10049TIP3    H251563   2.816   1.386  11.212 -0.1386  0.0618 -0.8327
10050TIP3   OH251564   6.776   2.623  15.631 -0.4116 -0.5627 -0.0193
10050TIP3    H151565   6.857   2.593  15.591  0.9406  1.2319  1.2996
10050TIP3    H251566   6.717   2.640  15.557  1.1065  0.0802 -1.0974
10051TIP3   OH251567   4.137   2.254   1.478  0.2330 -0.0558 -0.2513
10051TIP3    H151568   4.067   2.200   1.514  0.6594 -0.4989 -0.0921
10051TIP3    H251569   4.092   2.316   1.421 -0.3274 -0.0999  0.1419
10052TIP3   OH251570   6.068   3.232  11.914  0.2137  0.1201 -0.2969
10052TIP3    H151571   6.089   3.314  11.869  0.3547 -0.6307 -1.6091
10052TIP3    H251572   6.153   3.191  11.929  0.1649  0.3394  0.6249
10053TIP3   OH251573   4.564   1.121   0.998  0.4890  0.2063  0.3561
10053TIP3    H151574   4.524   1.146   0.915 -0.0488  0.1284  0.5910
10053TIP3    H251575   4.550   1.196   1.055  0.1751 -0.0410  0.6106
10054TIP3   OH251576   2.117   5.215  13.124  0.3389 -0.0103 -0.0936
10054TIP3    H151577   2.095   5.186  13.212  0.8666  1.2288  0.4624
10054TIP3    H251578   2.212   5.230  13.127  0.5543 -1.0321 -1.1935
10055TIP3   OH251579   3.161   1.919  11.378 -0.1681 -0.1011 -0.6883
10055TIP3    H151580   3.163   1.993  11.318  1.2458 -0.3447 -0.9621
10055TIP3    H251581   3.146   1.842  11.322  0.1096 -0.2131 -0.6089
10056TIP3   OH251582   5.407   0.663   3.609 -0.3753 -0.5782  0.2689
10056TIP3    H151583   5.378   0.667   3.518  0.1165  2.1674  0.1822
10056TIP3    H251584   5.326   0.655   3.660 -0.5923 -3.0889 -0.4254
10057TIP3   OH251585   0.569   3.665  16.398 -0.7999  0.0531  0.3257
10057TIP3    H151586   0.584   3.576  16.366 -3.3930 -0.5784  0.7892
10057TIP3    H251587   0.549   3.716  16.319  1.2389  0.4024 -0.0099
10058TIP3   OH251588   5.061   5.561   4.464 -0.5382  0.3259 -0.3264
10058TIP3    H151589   5.009   5.603   4.532 -0.5075 -1.1743  0.6574
10058TIP3    H251590   5.000   5.500   4.421 -0.0580 -0.1628 -0.3297
10059TIP3   OH251591   0.662   4.099   1.389  0.1269 -0.2601 -0.0268
10059TIP3    H151592   0.757   4.090   1.401  0.2064  0.9155  0.3003
10059TIP3    H251593   0.650   4.096   1.294  0.4703 -0.6071 -0.0603
10060TIP3   OH251594   2.223   1.322  13.905  0.6976  0.1295  0.1424
10060TIP3    H151595   2.151   1.375  13.940  0.9518  0.1175  0.6806
10060TIP3    H251596   2.232   1.250  13.967  1.8423  0.6732  0.6333
10061TIP3   OH251597   4.706   0.968   3.014 -0.2443  0.0302 -0.3952
10061TIP3    H151598   4.736   0.904   3.078  1.6888 -1.4258 -2.6844
10061TIP3    H251599   4.621   0.935   2.984 -0.4803 -0.0325  0.3228
10062TIP3   OH251600   2.853   1.206  15.399 -0.1525  0.0635 -0.2977
10062TIP3    H151601   2.823   1.179  15.486  0.5491 -3.1067 -0.9707
10062TIP3    H251602   2.935   1.253  15.415 -0.3853  0.0903  0.8244
10063TIP3   OH251603   4.677   2.987  12.739  0.5058  0.0091 -0.2328
10063TIP3    H151604   4.630   2.905  12.753  0.0280  0.3567  0.2277
10063TIP3    H251605   4.629   3.031  12.670 -0.4753  0.8311  0.9505
10064TIP3   OH251606   6.382   3.483   2.094  0.0868  0.0425 -0.3767
10064TIP3    H151607   6.289   3.477   2.118  0.5751 -0.7974  1.3431
10064TIP3    H251608   6.392   3.573   2.062 -1.2740  0.2166 -0.3585
10065TIP3   OH251609   4.748   2.394   1.974 -0.2589 -0.1018 -0.0322
10065TIP3    H151610   4.697   2.447   2.035 -0.1080 -0.5223  0.4591
10065TIP3    H251611   4.837   2.395   2.009 -0.2760 -0.7742  0.0470
10066TIP3   OH251612   4.594   3.147   4.421 -0.2091  1.0253  0.0471
10066TIP3    H151613   4.567   3.142   4.329 -0.9478  0.9757  0.2599
10066TIP3    H251614   4.665   3.084   4.428  0.2057  1.4047 -0.6069
10067TIP3   OH251615   0.537   5.264   1.609  0.5354  0.2456  0.2434
10067TIP3    H151616   0.588   5.185   1.595 -1.1271 -0.9022  0.4630
10067TIP3    H251617   0.595   5.336   1.584  1.3729 -1.1501 -1.9623
10068TIP3   OH251618   0.751   6.322   0.101 -0.6268  0.1030  0.0553
10068TIP3    H151619   0.658   6.314   0.125 -0.3127 -1.6336  0.7297
10068TIP3    H251620   0.761   6.267   0.024  0.7059 -3.2224  2.4625
10069TIP3   OH251621   3.782   0.761  10.793  0.3687  0.0811 -0.5159
10069TIP3    H151622   3.689   0.782  10.802  0.7713  1.3301  0.8046
10069TIP3    H251623   3.784   0.665  10.785 -1.0462  0.0667 -0.7751
10070TIP3   OH251624   1.889   4.060  16.946 -0.4668 -0.3124 -0.1406
10070TIP3    H151625   1.891   4.027  17.036 -4.1119  1.6790  0.7478
10070TIP3    H251626   1.970   4.112  16.938  0.2756 -1.1453  1.6996
10071TIP3   OH251627   4.595   1.511  16.062 -0.1359 -0.1890 -0.0163
10071TIP3    H151628   4.680   1.547  16.035  1.8635 -2.7668  2.5459
10071TIP3    H251629   4.563   1.466  15.984  0.2081  1.8899 -1.4036
10072TIP3   OH251630   4.621   4.804  12.046  0.1326 -0.3863 -0.1951
10072TIP3    H151631   4.607   4.711  12.028 -2.0493  0.1771 -1.5645
10072TIP3    H251632   4.574   4.821  12.128  0.7030 -0.5276  0.1640
10073TIP3   OH251633   2.735   1.247  12.846  0.1042  0.2281 -0.1263
10073TIP3    H151634   2.729   1.241  12.750  2.5978 -0.9136 -0.2354
10073TIP3    H251635   2.827   1.229  12.866 -0.2584  1.0089  2.4607
10074TIP3   OH251636   6.762   2.661  14.644 -0.0099 -0.3674  0.0801
10074TIP3    H151637   6.772   2.753  14.621  0.6359  0.1497  2.3683
10074TIP3    H251638   6.673   2.638  14.616 -1.0103  1.5759  1.5930
10075TIP3   OH251639   3.605   5.789  12.948 -0.0262  0.2476  0.1196
10075TIP3    H151640   3.539   5.757  12.886  0.7609 -0.7364 -0.2108
10075TIP3    H251641   3.638   5.869  12.907 -1.4965  1.1334  0.6152
10076TIP3   OH251642   5.097   0.796  15.290  0.2646 -0.4876 -0.1807
10076TIP3    H151643   5.102   0.706  15.322  1.5399 -0.0564  0.8752
10076TIP3    H251644   5.167   0.802  15.225 -0.0269 -0.3424 -0.4851
10077TIP3   OH251645   2.765   0.558  16.562 -0.8126  0.2573  0.8054
10077TIP3    H151646   2.858   0.559  16.538 -0.8978 -0.6586  0.3911
10077TIP3    H251647   2.741   0.650  16.570 -0.0146  0.5158  0.3293
10078TIP3   OH251648   1.148   3.971   4.519  0.0197  0.5183 -0.1352
10078TIP3    H151649   1.066   3.945   4.478  1.5185 -1.5031 -2.0126
10078TIP3    H251650   1.162   3.906   4.588 -0.0773  1.0229  0.3654
10079TIP3   OH251651   1.897   4.657   2.640  0.0265 -0.0517 -0.0932
10079TIP3    H151652   1.966   4.695   2.586  1.2593  0.9286  2.0845
10079TIP3    H251653   1.931   4.570   2.663  1.2621  0.9970  2.1948
10080TIP3   OH251654   3.672   2.171   5.321 -1.1077  0.1012 -0.1389
10080TIP3    H151655   3.652   2.263   5.339  0.5601  0.4044  0.2329
10080TIP3    H251656   3.734   2.145   5.389 -0.6521 -0.9535 -0.9315
10081TIP3   OH251657   4.015   2.568   4.447 -0.0168  0.0069 -0.3714
10081TIP3    H151658   3.998   2.578   4.540 -1.2037  2.2695 -0.7790
10081TIP3    H251659   3.930   2.542   4.410  0.3994 -0.6946 -0.8395
10082TIP3   OH251660   1.326   5.492  13.862 -0.6122 -0.0152  0.1206
10082TIP3    H151661   1.334   5.550  13.938 -1.2767 -0.8416  0.8172
10082TIP3    H251662   1.247   5.442  13.878 -1.3099  0.5059 -1.5956
10083TIP3   OH251663   5.768   1.723  16.170  0.2364  0.5577 -0.6911
10083TIP3    H151664   5.795   1.631  16.176  1.3651  0.8972 -0.4203
10083TIP3    H251665   5.673   1.720  16.173  0.2762 -0.5802 -0.2329
10084TIP3   OH251666   0.774   1.456   1.528  0.3072 -0.1911  0.8269
10084TIP3    H151667   0.718   1.512   1.583 -1.4045 -2.1083  1.0919
10084TIP3    H251668   0.856   1.449   1.577  0.1651  1.2150  1.2923
10085TIP3   OH251669   0.788   3.760  11.842  0.7330  0.0713 -0.4810
10085TIP3    H151670   0.794   3.702  11.767  3.0342 -0.9563  0.4461
10085TIP3    H251671   0.877   3.789  11.857  0.2299  0.6733  1.5288
10086TIP3   OH251672   0.357   1.745  15.080  0.4247 -0.4075  0.1753
10086TIP3    H151673   0.367   1.747  14.985 -1.2758 -0.2572 -0.0233
10086TIP3    H251674   0.264   1.727  15.093  0.2074  1.8197  1.8161
10087TIP3   OH251675   6.647   1.180   4.737  0.8513 -0.0965  0.3937
10087TIP3    H151676   6.578   1.242   4.761  0.0803 -0.9724  0.4468
10087TIP3    H251677   6.655   1.190   4.642  2.7499  2.1576  0.7209
10088TIP3   OH251678   0.217   1.703   1.147 -0.7819  0.3497 -0.2561
10088TIP3    H151679   0.238   1.677   1.236 -0.7274 -0.7868 -0.5934
10088TIP3    H251680   0.249   1.631   1.093  0.7193  1.7866 -1.3275
10089TIP3   OH251681   6.312   0.356  16.988  0.5662  0.3589  0.3559
10089TIP3    H151682   6.316   0.451  16.976 -0.3436  0.3791  0.1833
10089TIP3    H251683   6.307   0.321  16.899  1.8609  0.0940  0.3776
10090TIP3   OH251684   5.251   1.840   1.662  0.0881 -0.2249 -0.2115
10090TIP3    H151685   5.327   1.896   1.643  1.6572 -2.3454 -0.3692
10090TIP3    H251686   5.187   1.863   1.594  1.8502 -0.6791 -2.0953
10091TIP3   OH251687   1.532   1.298  14.704  0.2519  0.2571 -0.1931
10091TIP3    H151688   1.589   1.224  14.725 -2.9027 -1.3287  3.2533
10091TIP3    H251689   1.449   1.258  14.677 -0.4993  2.5329 -1.3785
10092TIP3   OH251690   2.837   5.925  14.496  0.4547 -0.6355 -0.1454
10092TIP3    H151691   2.762   5.892  14.447 -0.0702 -1.2011  1.0219
10092TIP3    H251692   2.892   5.849  14.511  0.1854 -0.6432  0.8774
10093TIP3   OH251693   3.930   2.830  13.106  0.6501  0.1527  0.2148
10093TIP3    H151694   3.840   2.798  13.101  0.2024  0.9335  2.4470
10093TIP3    H251695   3.983   2.760  13.069 -0.9175 -0.0293 -1.7680
10094TIP3   OH251696   0.260   5.644  14.509  0.0580 -0.0851  0.6307
10094TIP3    H151697   0.226   5.609  14.592  0.7917  1.1260  1.4645
10094TIP3    H251698   0.196   5.618  14.444 -0.2290 -1.5943  1.4830
10095TIP3   OH251699   4.137   3.772  11.453 -0.3667 -0.1446 -0.3610
10095TIP3    H151700   4.217   3.809  11.490  0.7164 -0.5437 -2.2219
10095TIP3    H251701   4.139   3.680  11.479 -1.1919  0.2732  1.1882
10096TIP3   OH251702   0.950   2.044   6.537 -0.1047  0.0648 -0.0769
10096TIP3    H151703   0.910   1.957   6.531 -0.1210 -0.0506  1.4629
10096TIP3    H251704   1.000   2.053   6.456 -3.3506  0.2831 -2.1371
10097TIP3   OH251705   5.627   5.287  13.821 -0.3103 -0.3766  0.2383
10097TIP3    H151706   5.708   5.284  13.771 -1.3244 -0.1985 -1.4684
10097TIP3    H251707   5.588   5.200  13.809 -1.0410 -0.0067 -0.1165
10098TIP3   OH251708   0.472   3.329   3.908 -0.0296 -0.5912  0.0749
10098TIP3    H151709   0.446   3.385   3.836  1.7154 -0.4801 -0.4916
10098TIP3    H251710   0.454   3.380   3.987  0.5282  0.3494 -0.3958
10099TIP3   OH251711   1.886   5.772  13.350  0.1109 -0.0107 -0.0376
10099TIP3    H151712   1.804   5.731  13.377  0.4268 -0.9269 -0.4555
10099TIP3    H251713   1.929   5.796  13.433 -1.8193  2.9855  0.1379
10100TIP3   OH251714   3.051   4.355  12.981  0.0676 -0.1146  0.0087
10100TIP3    H151715   3.007   4.333  13.064  2.0222  0.2942  1.1775
10100TIP3    H251716   2.987   4.409  12.934  0.5118  3.3083  3.1007
10101TIP3   OH251717   5.101   2.642   0.447  0.1798 -0.5545 -0.3902
10101TIP3    H151718   5.102   2.547   0.442  0.6426 -0.5500 -0.3363
10101TIP3    H251719   5.144   2.672   0.367  1.0548 -0.4030  0.1372
10102TIP3   OH251720   3.339   4.016  16.676 -0.2213 -0.2872  0.1942
10102TIP3    H151721   3.257   3.973  16.703 -0.0400 -1.2795 -0.8117
10102TIP3    H251722   3.368   3.966  16.600 -0.1052  1.7402 -1.1299
10103TIP3   OH251723   1.731   3.377   4.110 -0.0187  0.2176 -0.1920
10103TIP3    H151724   1.764   3.424   4.187  0.8910  1.4559 -1.3068
10103TIP3    H251725   1.758   3.286   4.124  1.2775  0.6672  0.3538
10104TIP3   OH251726   2.357   0.764  11.740  0.1348 -0.0597 -0.4413
10104TIP3    H151727   2.420   0.748  11.670  0.3149  0.5392 -0.4250
10104TIP3    H251728   2.321   0.850  11.719  2.2718  1.4373  1.7414
10105TIP3   OH251729   1.597   6.271  11.051  0.2885 -0.7885  0.0189
10105TIP3    H151730   1.606   6.180  11.024 -1.5056 -0.8193 -0.5400
10105TIP3    H251731   1.529   6.269  11.119  1.8379 -0.1589  1.6351
10106TIP3   OH251732   5.943   4.630   1.769  0.2793  0.2963 -0.3401
10106TIP3    H151733   5.882   4.687   1.816  0.1333 -0.6618  0.6581
10106TIP3    H251734   6.030   4.661   1.795  0.2154 -1.1647  1.8083
10107TIP3   OH251735   2.540   3.052   5.279 -0.1434  0.3550 -0.1723
10107TIP3    H151736   2.472   3.016   5.222 -0.6318 -0.1956  0.7531
10107TIP3    H251737   2.598   2.978   5.297  0.4800  0.7273 -0.6273
10108TIP3   OH251738   2.261   2.282  16.061 -0.1315 -0.2646  0.3994
10108TIP3    H151739   2.326   2.214  16.075  0.7004  0.6111  0.8771
10108TIP3    H251740   2.294   2.357  16.111 -0.0517  1.0846 -1.5952
10109TIP3   OH251741   4.678   1.071   1.944  0.4706 -0.4834 -0.5400
10109TIP3    H151742   4.608   1.026   1.895 -0.2240  0.8217 -0.7663
10109TIP3    H251743   4.634   1.146   1.984  1.2894 -0.8766  1.1323
10110TIP3   OH251744   4.567   3.759   2.118  0.4497 -0.1514  0.0674
10110TIP3    H151745   4.649   3.753   2.166 -0.6337  1.0350  2.1308
10110TIP3    H251746   4.499   3.762   2.186 -1.1402  1.3566 -1.5223
10111TIP3   OH251747   0.034   4.448  15.759 -0.0439 -0.5588 -0.0908
10111TIP3    H151748   0.095   4.432  15.831  0.1110  0.5543  0.0274
10111TIP3    H251749  -0.052   4.427  15.794  0.2493 -2.1535 -0.2582
10112TIP3   OH251750   1.148   5.248  11.782  0.7542  0.8954 -0.1064
10112TIP3    H151751   1.058   5.248  11.749  0.4863 -0.9484  0.5743
10112TIP3    H251752   1.143   5.296  11.865 -0.0368 -1.0870  1.0171
10113TIP3   OH251753   2.797   5.320   1.745 -0.1594  0.0816  0.3299
10113TIP3    H151754   2.788   5.414   1.761 -1.0729 -0.1302  1.0757
10113TIP3    H251755   2.870   5.294   1.802 -0.1227  0.2738  0.3737
10114TIP3   OH251756   5.152   6.371   0.865  0.1680 -0.2454  0.8369
10114TIP3    H151757   5.225   6.390   0.807 -1.1537 -1.5994 -1.3419
10114TIP3    H251758   5.096   6.449   0.860 -0.9987 -1.1887 -1.4248
10115TIP3   OH251759   4.194   4.238  11.754  0.1123 -0.6424  0.5376
10115TIP3    H151760   4.175   4.325  11.719 -1.3556 -0.0154  2.7622
10115TIP3    H251761   4.289   4.232  11.754  0.2907  1.7696  2.2227
10116TIP3   OH251762   4.846   4.573  16.564 -0.3093 -0.0881 -0.0471
10116TIP3    H151763   4.919   4.526  16.603 -0.9462  0.0975  1.3756
10116TIP3    H251764   4.781   4.581  16.634  0.2836  4.0553  0.1816
10117TIP3   OH251765   1.413   3.734   5.392  0.0141  0.3013 -0.1920
10117TIP3    H151766   1.432   3.721   5.485  2.0167  2.1310 -0.3190
10117TIP3    H251767   1.327   3.777   5.392 -0.0984  0.0949  0.7968
10118TIP3   OH251768   3.895   5.678  11.266 -0.5976 -0.0693  0.2601
10118TIP3    H151769   3.877   5.702  11.357  0.9519 -1.0201  0.8290
10118TIP3    H251770   3.857   5.591  11.256  0.7525 -0.7016  0.5175
10119TIP3   OH251771   3.188   4.920  14.734  0.6334  0.0569  0.1051
10119TIP3    H151772   3.122   4.988  14.734 -1.8241 -2.2432  0.1066
10119TIP3    H251773   3.246   4.943  14.661 -1.1605  1.2129 -0.9999
10120TIP3   OH251774   1.936   5.342  14.188 -0.1263 -0.3906 -0.2116
10120TIP3    H151775   1.899   5.427  14.164  0.8245  0.0497 -0.1696
10120TIP3    H251776   2.031   5.354  14.178  0.0397 -1.3155  0.2139
10121TIP3   OH251777   6.285   5.696   3.938  0.2229  0.0350 -0.0395
10121TIP3    H151778   6.230   5.742   4.002 -1.7846  0.8110 -2.2389
10121TIP3    H251779   6.232   5.693   3.859  2.2493 -1.8300 -1.3885
10122TIP3   OH251780   1.658   5.997  13.679  0.4092 -0.4462  0.2461
10122TIP3    H151781   1.700   5.927  13.729  0.1426 -0.5091  0.3824
10122TIP3    H251782   1.616   6.052  13.745 -0.8789 -1.1372  0.0227
10123TIP3   OH251783   1.492   4.726   3.090  0.4361  0.4490 -0.3347
10123TIP3    H151784   1.408   4.739   3.045  0.1525  1.2311  0.4046
10123TIP3    H251785   1.480   4.648   3.143  0.7616 -0.4627 -1.5842
10124TIP3   OH251786   6.547   6.776  10.828 -0.0255 -0.2149  0.6043
10124TIP3    H151787   6.459   6.816  10.830 -0.2512 -0.7382  1.1167
10124TIP3    H251788   6.607   6.850  10.836 -0.4198  0.1359  0.3680
10125TIP3   OH251789   0.632   0.210   6.460 -0.1903 -0.4196  1.0075
10125TIP3    H151790   0.669   0.294   6.433  1.0734 -0.8258  1.4170
10125TIP3    H251791   0.618   0.163   6.378 -0.0891 -0.1482  0.8322
10126TIP3   OH251792   5.018   1.963   3.031  0.0332  0.0992 -0.4568
10126TIP3    H151793   5.084   1.941   3.097 -0.6318 -1.6208 -0.3429
10126TIP3    H251794   5.065   1.958   2.948 -0.2682 -2.6152 -0.5074
10127TIP3   OH251795   0.061   3.751   2.376 -0.2069  0.4456  0.0920
10127TIP3    H151796   0.058   3.808   2.300 -0.0607  0.2888 -0.0339
10127TIP3    H251797   0.133   3.786   2.429  0.4998 -0.1769 -0.4378
10128TIP3   OH251798   5.447   5.469   5.020  0.0046  0.0373 -0.2902
10128TIP3    H151799   5.353   5.469   5.035  0.3132 -1.8253  2.0144
10128TIP3    H251800   5.461   5.404   4.951 -0.3074 -0.6006  0.2398
10129TIP3   OH251801   5.428   2.064  15.331  0.0928 -0.6080  0.1128
10129TIP3    H151802   5.371   1.989  15.348  0.2715 -0.9294 -0.7081
10129TIP3    H251803   5.415   2.083  15.238 -1.2458  1.4332  0.6692
10130TIP3   OH251804   3.793   0.944   5.543 -0.9654  0.4379  0.4415
10130TIP3    H151805   3.751   0.977   5.622 -2.6332  5.2310 -2.2540
10130TIP3    H251806   3.885   0.969   5.552 -0.7784 -0.6225  1.6014
10131TIP3   OH251807   5.526   1.131  15.680 -0.4842 -0.0608  0.0492
10131TIP3    H151808   5.456   1.142  15.616 -0.9134 -1.3125  0.2887
10131TIP3    H251809   5.606   1.142  15.629 -0.8329  0.0744 -0.4827
10132TIP3   OH251810   4.456   3.587   3.388 -0.9512 -0.5256 -0.1674
10132TIP3    H151811   4.543   3.587   3.348 -2.0906 -0.8541 -2.7358
10132TIP3    H251812   4.424   3.676   3.375 -0.9897 -0.3819  0.8490
10133TIP3   OH251813   4.650   6.009   2.267 -0.5723 -0.3998  0.2788
10133TIP3    H151814   4.674   6.075   2.201  2.0263 -2.4042 -0.8533
10133TIP3    H251815   4.591   5.949   2.221  0.9075 -1.5608 -0.1431
10134TIP3   OH251816   2.778   0.833  16.601 -0.5140  0.0050 -0.4800
10134TIP3    H151817   2.818   0.910  16.643  0.2417 -1.0964  0.8649
10134TIP3    H251818   2.691   0.863  16.575  0.3272  1.7759 -1.3898
10135TIP3   OH251819   2.918   6.252  15.611  0.3695  0.0274 -0.2380
10135TIP3    H151820   2.881   6.220  15.529 -0.0541 -0.5534  0.1783
10135TIP3    H251821   2.883   6.194  15.678 -0.3238  1.2827  0.5105
10136TIP3   OH251822   2.023   6.026  15.884 -0.5040  0.3378 -0.0821
10136TIP3    H151823   2.038   6.118  15.903 -1.1280  0.1862  1.2065
10136TIP3    H251824   2.103   5.997  15.839 -0.5270  1.6225 -0.9874
10137TIP3   OH251825   0.689   4.243  17.097  1.0634  0.0548 -0.0904
10137TIP3    H151826   0.674   4.279  17.010 -1.8540 -0.8412 -0.0101
10137TIP3    H251827   0.666   4.315  17.156 -0.4321 -0.4725 -0.0143
10138TIP3   OH251828   5.187   4.709  11.551  0.0395  0.4541  0.1526
10138TIP3    H151829   5.191   4.674  11.462 -0.8631 -0.9238  0.6381
10138TIP3    H251830   5.271   4.683  11.590  0.0219  0.1863  0.0145
10139TIP3   OH251831   1.694   2.388   0.978  0.5160 -0.3224  0.0735
10139TIP3    H151832   1.676   2.339   1.058  1.3350 -1.3772 -0.3794
10139TIP3    H251833   1.767   2.342   0.937 -0.1896 -0.0842 -1.5140
10140TIP3   OH251834   2.909   6.375  14.930  0.3528 -0.7547 -0.0378
10140TIP3    H151835   2.929   6.381  15.023  0.7027 -1.9376 -0.0313
10140TIP3    H251836   2.913   6.282  14.910 -0.7870 -0.6185 -1.0040
10141TIP3   OH251837   3.765   6.094   5.109  0.4787 -0.6971 -0.0201
10141TIP3    H151838   3.725   6.154   5.172  0.8677  0.5022 -0.8911
10141TIP3    H251839   3.843   6.141   5.079  0.6715 -1.5627 -0.8684
10142TIP3   OH251840   4.882   0.182  14.417  0.2628 -0.0483  0.4844
10142TIP3    H151841   4.838   0.219  14.493 -1.0423  1.0575 -0.7693
10142TIP3    H251842   4.963   0.145  14.451 -0.3945  0.2635  2.4229
10143TIP3   OH251843   5.493   2.122  12.382 -0.2509  0.1907 -0.2850
10143TIP3    H151844   5.569   2.168  12.345  0.0608 -1.0290 -1.2200
10143TIP3    H251845   5.531   2.057  12.441 -0.4409 -1.3680 -1.8028
10144TIP3   OH251846   2.743   2.479   6.268 -0.3428  0.2887  0.1754
10144TIP3    H151847   2.649   2.496   6.269 -0.4962 -0.5943  0.9242
10144TIP3    H251848   2.782   2.560   6.234 -1.4482  0.2773 -1.1523
10145TIP3   OH251849   1.182   2.254  12.625 -0.3297 -0.1722  0.0068
10145TIP3    H151850   1.109   2.315  12.639  1.0883  1.8406 -1.2488
10145TIP3    H251851   1.145   2.185  12.570 -1.1669  1.0800 -1.0160
10146TIP3   OH251852   4.155   0.867   1.765 -0.1388 -0.3961 -0.2412
10146TIP3    H151853   4.099   0.857   1.842 -0.2786 -0.0516 -0.2984
10146TIP3    H251854   4.107   0.827   1.694  0.5076 -1.7860  0.0881
10147TIP3   OH251855   0.124   4.192   3.952  0.9768 -0.1817  0.1444
10147TIP3    H151856   0.154   4.218   4.039 -0.3705  0.7178  0.3610
10147TIP3    H251857   0.031   4.214   3.952  0.7836 -0.9844 -1.2249
10148TIP3   OH251858   0.182   1.162  10.884  0.2615  0.0006  0.4805
10148TIP3    H151859   0.157   1.229  10.821  1.1865  0.3203  0.4469
10148TIP3    H251860   0.136   1.084  10.855 -0.2644  0.4395  0.1064
10149TIP3   OH251861   5.118   0.094  14.731  0.2494  0.5205  0.1287
10149TIP3    H151862   5.116   0.173  14.677  2.0570  1.3117  1.1902
10149TIP3    H251863   5.211   0.076  14.744 -0.1507 -1.3588  0.5279
10150TIP3   OH251864   5.927   1.794  12.423  0.1898 -0.2256 -0.1169
10150TIP3    H151865   5.983   1.717  12.426  2.0802  1.0921 -0.5055
10150TIP3    H251866   5.958   1.850  12.494 -0.8869  0.3696 -0.0938
10151TIP3   OH251867   0.392   0.258  13.766 -0.0071  0.4996 -0.0356
10151TIP3    H151868   0.463   0.267  13.830 -0.1140  1.2897 -0.0152
10151TIP3    H251869   0.437   0.259  13.681  0.0875  0.0332  0.0097
10152TIP3   OH251870   3.348   5.442  14.237 -0.1009  0.4727 -0.1360
10152TIP3    H151871   3.299   5.461  14.318 -0.7564  2.1281 -0.9153
10152TIP3    H251872   3.435   5.416  14.268 -0.5635  0.3666  1.1360
10153TIP3   OH251873   1.887   4.081  14.980  0.1785 -0.3546  0.7268
10153TIP3    H151874   1.867   4.035  14.898 -0.0721  1.3511 -0.2079
10153TIP3    H251875   1.842   4.031  15.048 -0.3566 -1.2864 -0.3094
10154TIP3   OH251876   6.020   5.271  13.896 -0.5732 -0.0094 -0.3876
10154TIP3    H151877   6.010   5.297  13.805 -1.6632 -0.1561 -0.3114
10154TIP3    H251878   6.060   5.347  13.939 -0.8714  0.3789 -0.8026
10155TIP3   OH251879   2.073   0.952   0.190 -0.5766 -0.0428 -0.6182
10155TIP3    H151880   2.040   1.037   0.162  1.2187  0.6147 -0.8389
10155TIP3    H251881   2.031   0.936   0.274 -2.8708 -0.1352 -1.7534
10156TIP3   OH251882   5.133   2.632  14.847  0.3525 -0.1862  0.4273
10156TIP3    H151883   5.154   2.570  14.778 -0.9036  0.1380 -0.2520
10156TIP3    H251884   5.068   2.691  14.808 -0.7217 -0.2913  2.0186
10157TIP3   OH251885   0.366   4.748  16.983 -0.4962 -0.0672 -0.6941
10157TIP3    H151886   0.312   4.682  17.027  0.4605 -0.9194 -0.7790
10157TIP3    H251887   0.318   4.770  16.903 -0.2680 -1.4954 -1.2246
10158TIP3   OH251888   0.827   1.568   2.615  0.3893  0.4443 -0.4717
10158TIP3    H151889   0.790   1.654   2.593 -1.4906 -0.6022 -1.5248
10158TIP3    H251890   0.809   1.514   2.537  1.4456 -0.9360  0.2246
10159TIP3   OH251891   6.320   1.387   3.999  0.0705 -0.3037 -0.6663
10159TIP3    H151892   6.228   1.361   3.989 -0.1750  0.3929 -0.2145
10159TIP3    H251893   6.333   1.393   4.093  0.6701 -0.6916 -0.7194
10160TIP3   OH251894   6.782   1.545   2.448  0.4650 -1.0131 -0.1313
10160TIP3    H151895   6.825   1.580   2.526  0.4949  0.3846 -0.7684
10160TIP3    H251896   6.803   1.452   2.449  1.0470 -0.8757  1.1504
10161TIP3   OH251897   1.805   6.275   6.510  0.4746 -0.5155  0.8067
10161TIP3    H151898   1.710   6.273   6.505  0.4116 -0.7864  1.9664
10161TIP3    H251899   1.831   6.183   6.515  0.6315 -0.3842  2.9740
10162TIP3   OH251900   4.859   5.345  12.487  0.1951 -0.2600  0.2563
10162TIP3    H151901   4.800   5.353  12.412  2.7445  1.0452 -1.6335
10162TIP3    H251902   4.853   5.429  12.532  0.2134 -0.3324  0.3963
10163TIP3   OH251903   5.733   4.091   3.447 -1.0648 -0.0554 -0.5394
10163TIP3    H151904   5.762   4.001   3.461 -1.1146 -0.0282 -0.2533
10163TIP3    H251905   5.800   4.129   3.391  0.3164  0.4780  1.4103
10164TIP3   OH251906   1.792   4.820   5.337  0.3018  0.2372  0.0854
10164TIP3    H151907   1.853   4.770   5.391  0.2161 -0.5480 -0.5278
10164TIP3    H251908   1.735   4.753   5.299 -0.1994  0.8647 -0.2607
10165TIP3   OH251909   1.608   5.849  12.934 -0.0998 -0.1584 -1.0860
10165TIP3    H151910   1.624   5.815  12.846 -2.3840 -0.8402 -1.2741
10165TIP3    H251911   1.594   5.943  12.922  0.6228 -0.0820 -1.3190
10166TIP3   OH251912   3.280   3.945  17.013 -0.5613  0.2320  0.1756
10166TIP3    H151913   3.297   3.984  17.099  0.4663 -0.6804  0.3973
10166TIP3    H251914   3.308   3.854  17.022 -1.4117 -0.1360 -0.8252
10167TIP3   OH251915   2.270   4.320   1.444  0.6837 -0.1554  0.4253
10167TIP3    H151916   2.359   4.347   1.420  0.2126  0.5289 -0.5991
10167TIP3    H251917   2.282   4.248   1.506  1.9554 -0.7637 -0.5158
10168TIP3   OH251918   5.643   4.769  16.075 -0.1337  0.6682  0.1049
10168TIP3    H151919   5.661   4.720  15.995 -0.9320  0.0198  0.3225
10168TIP3    H251920   5.730   4.785  16.113  0.1749  0.0078 -0.3168
10169TIP3   OH251921   6.599   6.690   3.596 -0.2160  0.4737 -0.6864
10169TIP3    H151922   6.574   6.631   3.668 -1.6224  3.8795  1.7658
10169TIP3    H251923   6.528   6.680   3.532  0.3734 -1.6174 -1.0546
10170TIP3   OH251924   3.462   0.764  16.029 -0.1763  0.6293 -0.1860
10170TIP3    H151925   3.548   0.780  16.068  0.1310  2.0073 -1.4187
10170TIP3    H251926   3.440   0.845  15.984 -2.0965  0.2551  0.0487
10171TIP3   OH251927   3.150   5.372   0.469 -0.7746 -0.2108  0.8321
10171TIP3    H151928   3.125   5.303   0.531 -2.4048  0.1430  0.5815
10171TIP3    H251929   3.076   5.432   0.469  0.6464  1.5679  1.0496
10172TIP3   OH251930   6.318   0.858   2.428 -0.0728  0.1076 -0.5641
10172TIP3    H151931   6.293   0.769   2.405 -0.3570 -0.4821  1.8864
10172TIP3    H251932   6.409   0.866   2.398  0.0540 -1.0904 -0.5375
10173TIP3   OH251933   5.175   5.705   1.061 -0.1653  0.2409  0.0587
10173TIP3    H151934   5.123   5.727   0.984 -0.6056  1.6965  0.7589
10173TIP3    H251935   5.123   5.641   1.108 -0.8129  0.8455  0.1692
10174TIP3   OH251936   2.274   0.436   5.442 -0.6480 -0.3633  0.4234
10174TIP3    H151937   2.312   0.351   5.465  0.7871 -0.1716 -1.1289
10174TIP3    H251938   2.349   0.496   5.439 -1.3325  0.4675 -0.6205
10175TIP3   OH251939   4.054   5.963  16.991  0.0907  0.4309  0.0651
10175TIP3    H151940   4.062   6.049  17.031 -1.5301  1.0693 -0.9660
10175TIP3    H251941   3.975   5.925  17.030  1.7282 -1.3400  1.8330
10176TIP3   OH251942   3.636   5.801  13.847  0.4060  0.3137 -0.0204
10176TIP3    H151943   3.541   5.800  13.860  0.3336  1.5611 -0.4277
10176TIP3    H251944   3.652   5.733  13.782 -0.5015  1.8115 -1.8508
10177TIP3   OH251945   0.596   1.640  15.790  0.0964 -0.2579  0.0468
10177TIP3    H151946   0.573   1.725  15.830  1.6175 -0.0889  0.6024
10177TIP3    H251947   0.512   1.596  15.779 -0.7604  1.4552 -0.5557
10178TIP3   OH251948   5.420   1.674  15.270 -0.5393  0.4609 -0.4973
10178TIP3    H151949   5.422   1.759  15.227  3.9596 -0.5056 -2.4833
10178TIP3    H251950   5.394   1.613  15.201  0.3023 -0.2510 -0.2010
10179TIP3   OH251951   2.444   6.520   4.367 -0.1089 -0.5048 -0.0876
10179TIP3    H151952   2.412   6.571   4.441 -0.6604 -0.6468 -0.2287
10179TIP3    H251953   2.365   6.491   4.322  0.2239 -0.2151 -0.8712
10180TIP3   OH251954   6.527   6.653  11.436  0.0256 -0.5141  0.4195
10180TIP3    H151955   6.553   6.640  11.344 -1.1349 -1.8501  0.2579
10180TIP3    H251956   6.590   6.603  11.486 -0.6192 -1.5649  0.1985
10181TIP3   OH251957   0.459   6.140  12.367 -0.1270  0.4312  0.1910
10181TIP3    H151958   0.469   6.091  12.286 -2.0847 -0.7727  0.6585
10181TIP3    H251959   0.546   6.176  12.384  1.2599 -2.5801 -0.3481
10182TIP3   OH251960   5.759   1.260   1.584  0.3029 -0.6857  0.3487
10182TIP3    H151961   5.833   1.300   1.538 -0.2823  0.8834  0.7438
10182TIP3    H251962   5.761   1.168   1.556  3.0948 -0.9538  1.2876
10183TIP3   OH251963   6.175   0.961  13.479  0.0812  0.2491 -0.3119
10183TIP3    H151964   6.096   0.940  13.529 -0.8282 -0.4805 -2.0278
10183TIP3    H251965   6.158   0.926  13.392  1.7489  1.3071 -1.0756
10184TIP3   OH251966   2.345   5.493  15.085 -0.1346 -0.0391  0.6082
10184TIP3    H151967   2.261   5.449  15.094  0.6431 -1.6678  0.1696
10184TIP3    H251968   2.323   5.582  15.057 -1.6418 -0.9285 -1.1488
10185TIP3   OH251969   6.394   4.148  15.948  0.0458  0.4692 -0.0734
10185TIP3    H151970   6.339   4.213  15.993 -0.6618  0.2195 -0.5637
10185TIP3    H251971   6.354   4.140  15.861  0.4576 -0.2214 -0.1974
10186TIP3   OH251972   4.472   2.382  13.746  0.0256 -0.1463 -0.1280
10186TIP3    H151973   4.399   2.350  13.693  1.2383 -1.6044 -0.9514
10186TIP3    H251974   4.550   2.341  13.708  0.9655 -1.0034  2.5977
10187TIP3   OH251975   2.880   0.895   0.858 -0.0187  0.0204 -0.0947
10187TIP3    H151976   2.889   0.969   0.918 -1.5012  1.1700 -1.2654
10187TIP3    H251977   2.949   0.834   0.885 -0.4913  0.6164  2.6292
10188TIP3   OH251978   3.972   3.593   0.441 -0.1144 -0.3738 -0.4388
10188TIP3    H151979   4.006   3.563   0.357 -0.7302 -1.2191 -0.3996
10188TIP3    H251980   3.976   3.688   0.437  1.6343 -0.4451 -0.6825
10189TIP3   OH251981   5.956   0.368   5.944 -0.3357  0.6082  0.7124
10189TIP3    H151982   6.016   0.362   6.018  0.6876 -1.7859 -0.2824
10189TIP3    H251983   6.008   0.407   5.874  0.0209 -1.2742 -0.0890
10190TIP3   OH251984   3.709   2.164  16.827 -0.4696  0.0049  0.1134
10190TIP3    H151985   3.792   2.153  16.782 -0.1504  1.2404  0.3928
10190TIP3    H251986   3.704   2.089  16.886  1.4732  1.0544  1.6709
10191TIP3   OH251987   4.411   6.034  14.851  0.5242  0.1672  0.3770
10191TIP3    H151988   4.341   6.094  14.875 -0.0324 -0.6085  0.7141
10191TIP3    H251989   4.368   5.948  14.843  0.7408  0.3229 -3.1675
10192TIP3   OH251990   3.838   3.902   5.250 -0.1145 -0.1941  0.1742
10192TIP3    H151991   3.795   3.817   5.261  0.3784 -0.2195  2.1405
10192TIP3    H251992   3.931   3.884   5.267  0.2825  0.3759 -1.3215
10193TIP3   OH251993   4.596   0.916  16.227 -0.3836 -0.5150 -0.5243
10193TIP3    H151994   4.551   0.937  16.145 -1.1364 -0.2701 -0.0558
10193TIP3    H251995   4.599   0.821  16.230 -0.6207 -0.5264 -0.6924
10194TIP3   OH251996   2.733   3.202   5.513 -0.5231  0.0560 -0.1035
10194TIP3    H151997   2.685   3.119   5.517 -0.7503  0.2398  1.1509
10194TIP3    H251998   2.825   3.177   5.503 -0.4587 -0.3750  1.5344
10195TIP3   OH251999   1.187   6.745   3.522  0.1429  0.1149  0.7613
10195TIP3    H152000   1.241   6.771   3.596 -0.1137 -0.4740  1.1602
10195TIP3    H252001   1.227   6.663   3.491  0.6795  0.7330 -0.1983
10196TIP3   OH252002   4.536   3.216  13.062 -0.0548 -0.0617  0.2828
10196TIP3    H152003   4.566   3.174  13.142 -0.3259  0.0848  0.4624
10196TIP3    H252004   4.504   3.143  13.008 -0.3106 -0.1140  0.5024
10197TIP3   OH252005   3.219   0.593  11.739  0.1272 -0.3126 -0.0801
10197TIP3    H152006   3.254   0.667  11.789 -0.1727  0.3955 -0.9000
10197TIP3    H252007   3.127   0.615  11.727  0.5040  0.2517 -2.1954
10198TIP3   OH252008   3.287   4.102   0.983  0.2367 -0.4074  0.2303
10198TIP3    H152009   3.306   4.048   1.060 -1.5196 -0.9422  0.2976
10198TIP3    H252010   3.233   4.047   0.928 -0.7095  0.9132 -0.1845
10199TIP3   OH252011   1.573   5.559  11.065  0.0662  0.1159 -0.5003
10199TIP3    H152012   1.517   5.622  11.110 -1.0781 -1.1160 -0.1659
10199TIP3    H252013   1.662   5.592  11.078 -0.6250  2.5327 -1.7183
10200TIP3   OH252014   5.301   2.231  14.654  0.6204  0.6724  0.0533
10200TIP3    H152015   5.250   2.311  14.656 -2.7823 -1.4317  3.2206
10200TIP3    H252016   5.270   2.184  14.576  1.2157  1.4794 -0.6867
10201TIP3   OH252017   0.570   3.923   0.945  0.3206 -0.0683  0.2362
10201TIP3    H152018   0.528   3.842   0.915 -0.3250 -0.0650  1.1106
10201TIP3    H252019   0.552   3.987   0.876  0.8631 -0.6721 -0.4741
10202TIP3   OH252020   3.261   0.772   5.800  0.4783 -0.1291 -0.3788
10202TIP3    H152021   3.184   0.776   5.742 -0.4454  0.4667  0.8671
10202TIP3    H252022   3.240   0.704   5.863  0.0326  1.4897  1.2637
10203TIP3   OH252023   2.674   3.268   4.358 -0.2771 -0.0380 -0.5623
10203TIP3    H152024   2.637   3.343   4.406 -1.0724 -0.4088 -0.5792
10203TIP3    H252025   2.621   3.194   4.387 -1.4446 -0.1125 -2.7601
10204TIP3   OH252026   3.467   3.886   4.370 -0.2999  0.6901  0.1256
10204TIP3    H152027   3.531   3.899   4.440  0.5664 -1.0783 -0.3070
10204TIP3    H252028   3.513   3.832   4.306 -1.8579  0.3829 -0.7437
10205TIP3   OH252029   4.294   2.542  13.487  0.1350  0.2219  0.0965
10205TIP3    H152030   4.371   2.491  13.461  0.6537  0.9492  0.1722
10205TIP3    H252031   4.239   2.480  13.535  0.2423 -0.5393 -0.7571
10206TIP3   OH252032   6.449   4.050  16.745  0.1610 -0.0671 -0.0768
10206TIP3    H152033   6.355   4.060  16.729  0.0421  1.4907  1.5873
10206TIP3    H252034   6.490   4.114  16.687  0.1357  0.3076  0.3264
10207TIP3   OH252035   4.448   2.445   4.087  0.2359  0.0965  0.1084
10207TIP3    H152036   4.542   2.443   4.072  0.2987  0.9872  0.3801
10207TIP3    H252037   4.439   2.456   4.182 -0.1431  0.5630  0.0182
10208TIP3   OH252038   4.122   4.153  16.603  0.0208 -0.5180  0.1007
10208TIP3    H152039   4.096   4.244  16.612  2.1040  0.3382 -1.8193
10208TIP3    H252040   4.040   4.105  16.590 -1.2426  0.7868  2.9606
10209TIP3   OH252041   0.666   1.172   0.626  0.9485  0.0134 -0.2826
10209TIP3    H152042   0.682   1.148   0.717 -0.8183  0.5617  0.1962
10209TIP3    H252043   0.665   1.268   0.627  0.9784  0.0229 -0.9011
10210TIP3   OH252044   4.882   4.105  11.446  0.0629 -0.1706  0.0240
10210TIP3    H152045   4.791   4.077  11.438  0.1387  0.4607 -3.5848
10210TIP3    H252046   4.884   4.159  11.526 -2.8910  0.5091 -0.3300
10211TIP3   OH252047   5.002   1.503  16.501  0.5031 -1.0885  0.0672
10211TIP3    H152048   5.045   1.535  16.422  0.4118  2.4556  1.3419
10211TIP3    H252049   4.926   1.454  16.469  0.8284 -0.2506 -2.0518
10212TIP3   OH252050   3.685   6.661  15.640 -0.0220 -0.0704 -0.2806
10212TIP3    H152051   3.779   6.644  15.639  0.1118  0.5432  0.7617
10212TIP3    H252052   3.661   6.661  15.732 -1.1717 -0.8522 -0.5638
10213TIP3   OH252053   4.462   3.817   5.773  0.6625 -0.0530  0.1203
10213TIP3    H152054   4.387   3.856   5.728 -0.7984 -0.8673  1.8086
10213TIP3    H252055   4.501   3.889   5.821 -1.1173 -0.2970  1.9989
10214TIP3   OH252056   4.774   4.282  11.741  0.2476 -0.6656  0.0670
10214TIP3    H152057   4.709   4.287  11.671 -0.9036 -2.4789  0.9734
10214TIP3    H252058   4.748   4.350  11.802  1.0183  0.6559 -1.0387
10215TIP3   OH252059   2.287   6.769   0.356 -0.2176  0.6020  0.6569
10215TIP3    H152060   2.284   6.858   0.320  2.1420  1.0187  1.4268
10215TIP3    H252061   2.324   6.779   0.443  1.3571 -1.2875  0.2359
10216TIP3   OH252062   5.273   3.071   4.266 -0.2680  0.0728  0.2288
10216TIP3    H152063   5.298   3.055   4.175  0.7932  0.7240  0.3967
10216TIP3    H252064   5.353   3.104   4.307 -1.3005  1.7977  0.8920
10217TIP3   OH252065   0.005   2.601   1.335 -0.4521  0.2253  0.1106
10217TIP3    H152066   0.079   2.560   1.380 -0.2154  0.0750 -0.4214
10217TIP3    H252067  -0.067   2.595   1.398 -0.2447 -0.4074  0.2918
10218TIP3   OH252068   5.181   1.370  15.294  0.0984  0.0509 -0.0519
10218TIP3    H152069   5.213   1.307  15.358 -1.7260 -1.1618 -0.2967
10218TIP3    H252070   5.231   1.352  15.215 -0.6936 -1.3972 -0.2377
10219TIP3   OH252071   4.548   1.451   1.698 -0.0346 -0.1059  0.1537
10219TIP3    H152072   4.494   1.458   1.619  2.0513  1.5667 -1.1577
10219TIP3    H252073   4.607   1.378   1.681 -1.6812 -1.8110  1.5124
10220TIP3   OH252074   0.021   2.401  16.310 -0.0538  0.3647 -0.7719
10220TIP3    H152075   0.075   2.422  16.233  0.0050 -0.1486 -0.8721
10220TIP3    H252076   0.055   2.456  16.379  0.9139 -0.2874 -0.7155
10221TIP3   OH252077   4.645   3.225  11.576  0.1429 -0.4661  0.3901
10221TIP3    H152078   4.619   3.136  11.600  2.6201 -2.2718 -3.1201
10221TIP3    H252079   4.738   3.228  11.597  0.3174  0.9206 -0.5848
10222TIP3   OH252080   2.118   4.745  14.599 -0.3228  0.2353  0.0713
10222TIP3    H152081   2.141   4.723  14.509 -0.4375  0.1048  0.0737
10222TIP3    H252082   2.067   4.670  14.630  3.0173 -1.5135  1.5606
10223TIP3   OH252083   3.033   2.456  13.770 -0.1185 -0.5895 -0.4122
10223TIP3    H152084   3.102   2.457  13.705 -0.0694 -2.2574 -0.3866
10223TIP3    H252085   3.046   2.375  13.819 -2.1174 -0.9854 -0.4654
10224TIP3   OH252086   0.928   4.256   4.634 -0.1395  0.3964  0.2525
10224TIP3    H152087   0.944   4.291   4.721 -1.3185 -0.5036  0.8527
10224TIP3    H252088   0.849   4.202   4.644 -0.5616  0.6528 -1.4604
10225TIP3   OH252089   3.119   0.184   2.283 -0.8823  0.7399 -0.6236
10225TIP3    H152090   3.083   0.270   2.304 -1.1262  0.8527 -1.4749
10225TIP3    H252091   3.128   0.184   2.188 -1.2909 -0.3270 -0.6755
10226TIP3   OH252092   4.061   4.395  16.853 -0.2044 -0.5096 -0.2989
10226TIP3    H152093   4.133   4.371  16.912 -0.0481  2.1940  0.6739
10226TIP3    H252094   4.104   4.415  16.770  0.1269  0.4098  0.0810
10227TIP3   OH252095   6.626   2.278  11.233  0.0507 -0.1268 -1.4190
10227TIP3    H152096   6.582   2.197  11.205  0.0312  0.3314 -2.7674
10227TIP3    H252097   6.608   2.340  11.163  1.8429  0.4218 -1.4222
10228TIP3   OH252098   3.952   0.166   1.937 -0.3638 -0.1867  0.3029
10228TIP3    H152099   4.018   0.208   1.881 -0.0816 -3.4493 -1.9579
10228TIP3    H252100   3.926   0.234   1.998  3.0830  2.0137 -0.5343
10229TIP3   OH252101   6.512   5.746   3.493 -0.0670 -0.0535 -0.5432
10229TIP3    H152102   6.478   5.705   3.414  1.0137 -1.3295 -0.3632
10229TIP3    H252103   6.563   5.677   3.536 -0.6170  0.6434  1.2447
10230TIP3   OH252104   0.885   2.670   5.265 -0.1430 -0.1663 -0.0171
10230TIP3    H152105   0.834   2.590   5.270 -0.7263  0.1035 -1.6899
10230TIP3    H252106   0.947   2.656   5.193 -0.2321  0.8754 -0.3073
10231TIP3   OH252107   1.223   6.176   4.271 -0.3195  0.3724 -0.3597
10231TIP3    H152108   1.164   6.106   4.243 -0.9987  1.2142 -1.0686
10231TIP3    H252109   1.311   6.141   4.257 -0.6568 -0.9338  0.8176
10232TIP3   OH252110   5.586   1.082  10.658 -0.3509 -0.7190  0.0007
10232TIP3    H152111   5.644   1.149  10.695 -1.6371  0.5000 -0.1441
10232TIP3    H252112   5.599   1.090  10.563 -2.3974  1.1128 -0.1625
10233TIP3   OH252113   4.989   1.810  13.107 -0.4949 -0.5044  0.6028
10233TIP3    H152114   5.053   1.769  13.049 -0.3906 -1.5653  1.4611
10233TIP3    H252115   4.908   1.761  13.092 -2.0870  2.9018 -2.9406
10234TIP3   OH252116   0.717   0.377  13.695 -0.4113 -0.4019 -0.0618
10234TIP3    H152117   0.710   0.358  13.602 -1.0599  0.1770 -0.1376
10234TIP3    H252118   0.802   0.341  13.721  0.9168  1.6187 -1.4234
10235TIP3   OH252119   3.655   3.480  15.183 -0.1425  0.0716  0.5297
10235TIP3    H152120   3.611   3.451  15.263 -0.6419  0.3234  0.3486
10235TIP3    H252121   3.682   3.399  15.140  0.0643 -0.0658  0.9153
10236TIP3   OH252122   5.197   3.443   2.914  0.2443 -1.2995  0.6845
10236TIP3    H152123   5.196   3.431   2.819  0.5152 -1.1289  0.6588
10236TIP3    H252124   5.199   3.538   2.926 -3.4719 -1.1630  0.8906
10237TIP3   OH252125   3.274   3.988  11.857 -0.4916 -0.0373 -0.1568
10237TIP3    H152126   3.226   4.068  11.878 -2.4750 -1.4927  0.9037
10237TIP3    H252127   3.358   3.998  11.901 -1.5819  0.4823  1.8307
10238TIP3   OH252128   1.125   6.775   0.534  0.6400  0.1164  0.4628
10238TIP3    H152129   1.208   6.805   0.496  0.1658  0.1234 -0.5974
10238TIP3    H252130   1.061   6.790   0.465 -0.3614  0.7122  1.5170
10239TIP3   OH252131   0.829   0.178  12.784  0.0462  1.0038 -0.5344
10239TIP3    H152132   0.833   0.253  12.842  1.5195  1.3076 -1.0161
10239TIP3    H252133   0.779   0.209  12.708  0.3180  1.3794 -0.5611
10240TIP3   OH252134   3.111   1.341   2.444 -0.3935  0.0391 -0.2148
10240TIP3    H152135   3.099   1.256   2.487 -0.0184 -0.7119 -1.5640
10240TIP3    H252136   3.029   1.354   2.396 -0.6347  0.6738  0.3513
10241TIP3   OH252137   0.804   4.845  16.187  0.3674  0.1872 -0.1103
10241TIP3    H152138   0.775   4.936  16.185  0.7663  0.3424  0.9559
10241TIP3    H252139   0.882   4.845  16.242  0.5997 -0.7388 -0.4237
10242TIP3   OH252140   1.228   5.536  14.320 -0.2351  0.3225 -0.0856
10242TIP3    H152141   1.233   5.476  14.246  1.8040  2.1045 -1.4462
10242TIP3    H252142   1.135   5.545  14.338 -0.6996 -0.8863 -1.8005
10243TIP3   OH252143   6.212   2.906  16.837 -0.1541  0.2642  0.0218
10243TIP3    H152144   6.240   2.898  16.745  2.6555  0.1428  0.8436
10243TIP3    H252145   6.150   2.979  16.836  0.5915  0.9285 -1.8254
10244TIP3   OH252146   2.521   1.283   2.957 -0.0341  0.1596  0.0764
10244TIP3    H152147   2.456   1.240   3.012 -0.1420  0.0617 -0.1258
10244TIP3    H252148   2.525   1.373   2.990  0.2064 -0.0114  0.5119
10245TIP3   OH252149   0.730   4.057  16.275  0.3502 -0.6996  0.1782
10245TIP3    H152150   0.771   4.090  16.355  0.1766 -1.2118  0.4803
10245TIP3    H252151   0.638   4.045  16.297 -0.0019  0.5949 -0.5486
10246TIP3   OH252152   4.342   4.780   4.691  0.4756 -0.4194 -0.3642
10246TIP3    H152153   4.407   4.850   4.696 -1.2174  1.1441  0.1602
10246TIP3    H252154   4.307   4.773   4.780 -0.6064 -0.7294 -0.8014
10247TIP3   OH252155   4.732   1.187  13.562 -0.0207 -0.2798 -0.3176
10247TIP3    H152156   4.780   1.237  13.628 -0.8839  0.9868 -0.6166
10247TIP3    H252157   4.733   1.097  13.594  1.4249 -0.0438  0.3264
10248TIP3   OH252158   0.456   4.005   4.108 -0.1252  1.0752  0.3009
10248TIP3    H152159   0.402   4.049   4.041  0.8558 -0.8695 -1.8072
10248TIP3    H252160   0.546   4.020   4.080  0.3384  1.1032  1.7686
10249TIP3   OH252161   3.765   3.444   1.489 -0.1457 -0.0330  0.2878
10249TIP3    H152162   3.825   3.445   1.414  0.4425 -0.3733  0.7418
10249TIP3    H252163   3.698   3.508   1.467 -0.7088 -1.0637 -1.1236
10250TIP3   OH252164   4.107   1.504   4.880  0.5849  0.2008 -0.4405
10250TIP3    H152165   4.037   1.558   4.916  0.7318 -0.8103  1.4277
10250TIP3    H252166   4.164   1.566   4.833 -1.1127  1.1381 -1.3198
10251TIP3   OH252167   0.576   3.996   1.991  0.1157 -0.7274  0.0177
10251TIP3    H152168   0.489   3.972   1.957 -0.1430  0.8472 -0.4466
10251TIP3    H252169   0.634   3.984   1.916  0.0444 -0.2444 -0.1140
10252TIP3   OH252170   0.677   5.620   0.140 -0.4270  0.2134 -0.2826
10252TIP3    H152171   0.609   5.645   0.202 -0.9058  0.3821 -0.8717
10252TIP3    H252172   0.758   5.621   0.191 -0.3836  3.1764 -0.3151
10253TIP3   OH252173   2.257   6.498  10.481  0.3108 -0.2897  0.0350
10253TIP3    H152174   2.302   6.577  10.512 -2.5645  1.1551  0.6353
10253TIP3    H252175   2.312   6.467  10.409  1.5819  2.1608 -0.1165
10254TIP3   OH252176   6.301   2.849  15.424 -0.0559 -0.2669 -0.6334
10254TIP3    H152177   6.249   2.821  15.500  0.1973 -1.4972 -0.9031
10254TIP3    H252178   6.240   2.902  15.373  0.2532  2.0016  1.2445
10255TIP3   OH252179   3.870   0.646   0.261  0.1522 -0.3172 -0.6462
10255TIP3    H152180   3.815   0.582   0.216  0.9533 -1.9941  0.7125
10255TIP3    H252181   3.816   0.679   0.333 -0.2924  0.6160 -1.3998
10256TIP3   OH252182   4.331   4.440   4.142 -0.1238  0.1319  0.2597
10256TIP3    H152183   4.377   4.413   4.221 -0.5997 -0.5458  0.3048
10256TIP3    H252184   4.396   4.489   4.092  0.3073  0.1781  0.8602
10257TIP3   OH252185   4.777   4.778  16.755 -0.5201 -0.0181  0.1920
10257TIP3    H152186   4.734   4.861  16.778 -0.4235  0.4682 -1.3113
10257TIP3    H252187   4.842   4.802  16.689 -1.3774 -1.4549 -1.2301
10258TIP3   OH252188   0.483   3.596  16.643  0.2360 -0.3674 -0.0557
10258TIP3    H152189   0.535   3.625  16.568  1.7659 -1.5578  0.5123
10258TIP3    H252190   0.406   3.555  16.604  0.4034  0.1381 -0.9361
10259TIP3   OH252191   4.433   1.601   4.057  0.3349 -0.3732  0.3755
10259TIP3    H152192   4.349   1.599   4.102  0.2719 -0.8832  0.2283
10259TIP3    H252193   4.468   1.513   4.067  0.7666 -0.2141  0.2737
10260TIP3   OH252194   0.201   5.555   4.954  0.0456 -0.3684  0.5728
10260TIP3    H152195   0.285   5.601   4.962 -0.0441  0.2301 -1.5000
10260TIP3    H252196   0.136   5.626   4.947 -0.3318 -0.8132 -0.4773
10261TIP3   OH252197   5.087   0.849   6.162 -0.8193 -0.2305 -0.6220
10261TIP3    H152198   5.025   0.784   6.196  0.7171 -0.3184  2.1686
10261TIP3    H252199   5.047   0.933   6.184 -0.1819 -0.2853  0.7920
10262TIP3   OH252200   5.840   4.667   2.327  0.4805 -0.4692  0.2092
10262TIP3    H152201   5.759   4.616   2.328 -0.1006  0.4123 -0.4560
10262TIP3    H252202   5.906   4.607   2.294  0.1064 -1.2136  0.8113
10263TIP3   OH252203   4.311   6.534   1.215 -0.5006  0.1751 -0.7989
10263TIP3    H152204   4.337   6.530   1.122 -0.9388 -0.6578 -0.8812
10263TIP3    H252205   4.350   6.616   1.246  3.2003 -1.5502 -0.6231
10264TIP3   OH252206   3.534   5.226   0.923 -0.1039  0.4373  0.2667
10264TIP3    H152207   3.504   5.145   0.964  0.6691  0.1829  0.3364
10264TIP3    H252208   3.629   5.225   0.934 -0.0802  1.3049  0.1782
10265TIP3   OH252209   4.278   5.636  12.367  0.8775  0.2857 -0.7196
10265TIP3    H152210   4.308   5.649  12.277  0.6595 -0.4807 -0.9111
10265TIP3    H252211   4.185   5.656  12.364  0.8460  0.1417 -0.6918
10266TIP3   OH252212   2.518   4.423   6.193 -0.1755  0.6397  0.1552
10266TIP3    H152213   2.571   4.493   6.231 -0.4052  0.9879 -0.1678
10266TIP3    H252214   2.520   4.354   6.259 -0.2848  1.1034  0.6467
10267TIP3   OH252215   0.678   4.546   6.671 -0.6271 -0.6431 -0.2579
10267TIP3    H152216   0.671   4.452   6.691 -1.9124 -0.2470  1.2433
10267TIP3    H252217   0.591   4.581   6.689  0.1721  1.0704  0.4465
10268TIP3   OH252218   5.780   5.920  16.713 -0.1633 -0.6010 -0.2700
10268TIP3    H152219   5.696   5.922  16.668 -1.5862 -1.5558  2.2753
10268TIP3    H252220   5.839   5.876  16.652 -2.0913 -2.0602 -1.1161
10269TIP3   OH252221   2.500   1.781   2.891 -0.4867 -0.2938 -0.1015
10269TIP3    H152222   2.584   1.822   2.872 -0.4292 -0.0536  0.6577
10269TIP3    H252223   2.449   1.850   2.934 -1.1182 -0.3966 -0.6817
10270TIP3   OH252224   6.092   6.278   5.080  0.0440 -0.5751  0.3307
10270TIP3    H152225   6.088   6.370   5.108  0.7221 -1.1822  2.5265
10270TIP3    H252226   6.180   6.250   5.104  0.2538 -1.4801 -1.4314
10271TIP3   OH252227   5.490   3.027  16.134 -0.0443 -0.0753  0.3290
10271TIP3    H152228   5.478   2.932  16.147  3.2973 -0.7517 -1.1588
10271TIP3    H252229   5.556   3.051  16.199  0.4208  0.9044 -0.5130
10272TIP3   OH252230   4.706   2.946  14.304 -0.3735  0.2399  0.0500
10272TIP3    H152231   4.620   2.910  14.280 -0.9970  2.5958 -1.4732
10272TIP3    H252232   4.688   3.038  14.325  1.7972  0.8020 -0.4310
10273TIP3   OH252233   5.840   5.614   5.552  0.2286  0.1405  0.2485
10273TIP3    H152234   5.895   5.630   5.629 -0.5758 -0.2592  0.9113
10273TIP3    H252235   5.765   5.672   5.564 -1.1615 -1.7887  1.0709
10274TIP3   OH252236   4.956   3.145  14.999 -0.5892 -0.0193 -0.3816
10274TIP3    H152237   4.890   3.214  15.001  0.5144  1.0825 -1.0217
10274TIP3    H252238   4.907   3.064  14.989 -1.8709  0.7340 -0.2207
10275TIP3   OH252239   6.778   4.985   3.049  0.0919  0.0030 -0.0412
10275TIP3    H152240   6.693   4.971   3.092  0.1376  1.4506  0.5328
10275TIP3    H252241   6.838   4.927   3.095 -0.4469 -0.5349 -0.0064
10276TIP3   OH252242   5.633   0.456  10.512 -0.2913 -0.0617  0.8364
10276TIP3    H152243   5.581   0.531  10.482 -0.3519 -0.8164 -1.0220
10276TIP3    H252244   5.723   0.480  10.491 -0.3292 -0.5614  0.0587
10277TIP3   OH252245   1.904   5.432  13.793  0.0190 -0.4036 -0.1720
10277TIP3    H152246   1.901   5.338  13.777 -1.8567 -0.4344  0.2410
10277TIP3    H252247   1.856   5.471  13.719  1.4101  0.3008 -0.7340
10278TIP3   OH252248   0.838   3.922  13.788  0.2861 -0.5827  0.2044
10278TIP3    H152249   0.767   3.860  13.769 -0.1919  0.4832 -1.6203
10278TIP3    H252250   0.811   4.004  13.746  1.7341  0.3700  1.0690
10279TIP3   OH252251   3.745   1.523   0.191 -0.2436 -0.1273  0.5581
10279TIP3    H152252   3.790   1.602   0.219  0.4799 -0.1176 -0.6038
10279TIP3    H252253   3.652   1.542   0.203 -0.0858  1.0064 -0.0095
10280TIP3   OH252254   5.389   5.936   2.889  0.4792  0.0936  0.2385
10280TIP3    H152255   5.445   5.939   2.812 -0.2519 -0.8572 -0.3497
10280TIP3    H252256   5.405   5.850   2.928  2.9383  1.6236  2.7815
10281TIP3   OH252257   3.620   6.466  15.445  0.0710 -0.6122 -0.3245
10281TIP3    H152258   3.638   6.543  15.500 -0.5591  0.1454 -1.1727
10281TIP3    H252259   3.579   6.403  15.504 -2.0323  0.7802 -0.2505
10282TIP3   OH252260   0.402   0.173   0.146 -0.6247 -0.9897  0.0297
10282TIP3    H152261   0.495   0.185   0.126 -0.3322  0.2392  2.0358
10282TIP3    H252262   0.391   0.078   0.151  0.6934 -1.1213  0.5971
10283TIP3   OH252263   1.138   5.923   1.168 -0.3524  0.2796 -0.0870
10283TIP3    H152264   1.074   5.970   1.116 -1.6693 -0.4732  0.8219
10283TIP3    H252265   1.207   5.898   1.106 -1.8638 -0.5510 -1.4569
10284TIP3   OH252266   1.691   1.007  11.655 -0.1330  0.5323 -0.1827
10284TIP3    H152267   1.651   0.943  11.715  0.3745  0.5217  0.1481
10284TIP3    H252268   1.621   1.071  11.638  0.0089  1.0674  1.1827
10285TIP3   OH252269   1.772   1.358  14.583  0.2810 -0.4192  0.7935
10285TIP3    H152270   1.841   1.369  14.648  0.2660 -1.8693  1.0698
10285TIP3    H252271   1.693   1.394  14.625  1.0267  2.1001  0.1198
10286TIP3   OH252272   4.789   6.717  11.473 -0.0303  0.5123  0.6235
10286TIP3    H152273   4.724   6.784  11.455 -0.5263  0.0496  0.6800
10286TIP3    H252274   4.757   6.639  11.428  0.4117  0.2432  0.7630
10287TIP3   OH252275   2.980   2.361  12.416 -0.0508 -0.8063  0.2141
10287TIP3    H152276   3.007   2.428  12.353 -0.7978 -1.0702 -0.4095
10287TIP3    H252277   2.889   2.341  12.391 -0.1805 -1.2804  1.0599
10288TIP3   OH252278   4.216   2.343  12.235 -0.4647  0.7156  0.6599
10288TIP3    H152279   4.269   2.401  12.181 -2.7285  0.2305 -2.1973
10288TIP3    H252280   4.152   2.400  12.277  0.3010  0.8778  1.6318
10289TIP3   OH252281   1.622   5.477   5.126 -0.3398 -0.7023 -0.4044
10289TIP3    H152282   1.599   5.403   5.069  1.2736  0.0553 -2.1151
10289TIP3    H252283   1.538   5.511   5.156 -1.2540 -1.0303 -2.4783
10290TIP3   OH252284   2.421   6.241  11.546  0.3585 -0.2810  0.4837
10290TIP3    H152285   2.386   6.163  11.591  0.2009 -0.7698 -0.4758
10290TIP3    H252286   2.352   6.306  11.553 -0.8717 -1.3308 -1.6490
10291TIP3   OH252287   3.953   6.079   3.977  0.1423 -0.2795  0.1875
10291TIP3    H152288   3.971   6.102   4.068 -0.8291  0.1761  0.2730
10291TIP3    H252289   4.020   6.014   3.955  0.7270  0.0194  1.0461
10292TIP3   OH252290   3.630   6.235   1.840  0.0624  0.4924 -0.1547
10292TIP3    H152291   3.581   6.223   1.921  1.1933  0.4485  0.5443
10292TIP3    H252292   3.722   6.222   1.866  0.3417 -0.6986 -1.6765
10293TIP3   OH252293   2.233   3.906  11.864 -0.4723 -0.2363  0.5429
10293TIP3    H152294   2.201   3.949  11.944 -0.1654  0.9816  0.0276
10293TIP3    H252295   2.189   3.952  11.793 -0.0497 -0.7105 -0.0241
10294TIP3   OH252296   1.528   4.663   2.132  0.1127 -0.3343 -0.2795
10294TIP3    H152297   1.576   4.584   2.159  0.3637  0.2889  1.1645
10294TIP3    H252298   1.590   4.712   2.078  1.0521  0.3498  1.3835
10295TIP3   OH252299   6.699   0.234  12.427 -0.0758 -0.1357  0.3717
10295TIP3    H152300   6.642   0.261  12.499 -0.8229  1.0976 -0.6691
10295TIP3    H252301   6.740   0.315  12.397 -1.1395 -0.3255 -1.7409
10296TIP3   OH252302   3.477   6.545   1.598 -0.0099  0.0935 -0.7314
10296TIP3    H152303   3.565   6.533   1.562  1.3217 -1.3741  2.7774
10296TIP3    H252304   3.492   6.566   1.690 -3.3526 -0.2153 -0.0740
10297TIP3   OH252305   4.342   0.527  12.776  0.2957 -0.2932 -0.1913
10297TIP3    H152306   4.383   0.511  12.861 -1.1218  1.8314  0.9434
10297TIP3    H252307   4.259   0.480  12.780  0.0081  0.2020 -0.1728
10298TIP3   OH252308   0.276   2.685  14.692  0.6872  0.1101 -0.1971
10298TIP3    H152309   0.181   2.693  14.704  0.4630 -0.7189 -1.2599
10298TIP3    H252310   0.297   2.600  14.731  0.7726 -0.2999 -1.1271
10299TIP3   OH252311   0.460   0.554  14.330 -0.1943  0.2827  0.4045
10299TIP3    H152312   0.367   0.555  14.353 -0.2660 -1.9408  0.4126
10299TIP3    H252313   0.496   0.633  14.369 -2.0666  1.1428  0.4545
10300TIP3   OH252314   0.117   6.011  15.666 -0.0685  0.3075  0.3968
10300TIP3    H152315   0.081   6.011  15.754  0.1653  0.2279  0.4928
10300TIP3    H252316   0.102   5.921  15.635 -3.0400  1.1712 -0.8407
10301TIP3   OH252317   4.849   1.288   4.704 -0.1068 -0.2244  0.0888
10301TIP3    H152318   4.829   1.220   4.769  2.9304 -0.1223  1.2104
10301TIP3    H252319   4.874   1.239   4.626 -0.7056 -0.3697 -0.0138
10302TIP3   OH252320   2.333   3.010   3.859  0.1143 -0.2776 -0.3183
10302TIP3    H152321   2.250   2.994   3.905  0.4287  1.1445  0.7873
10302TIP3    H252322   2.334   3.104   3.843  1.4742 -0.2956 -0.4019
10303TIP3   OH252323   2.041   1.555  11.844  0.6674  0.0041  0.5749
10303TIP3    H152324   2.068   1.468  11.815  1.7719  0.3721  0.4454
10303TIP3    H252325   2.119   1.610  11.830 -0.0270  1.0190  0.6087
10304TIP3   OH252326   5.793   3.006  12.821 -0.2251  0.4168 -0.0623
10304TIP3    H152327   5.761   2.917  12.834  0.2175  0.3546  0.6415
10304TIP3    H252328   5.774   3.051  12.903  1.7637  0.2847  0.4981
10305TIP3   OH252329   5.110   4.570   4.759  0.2898 -0.0671  0.2110
10305TIP3    H152330   5.148   4.648   4.719  0.3381 -0.7825 -1.1564
10305TIP3    H252331   5.099   4.508   4.687  1.8004 -1.9627  1.5550
10306TIP3   OH252332   5.404   4.277   1.251 -0.1164  0.6745 -0.1761
10306TIP3    H152333   5.462   4.237   1.187 -1.0754 -0.1004 -0.5806
10306TIP3    H252334   5.333   4.314   1.199 -0.2396  1.1766  0.3434
10307TIP3   OH252335   3.605   1.866  14.712 -0.4102 -0.4669 -0.0745
10307TIP3    H152336   3.656   1.823  14.644 -1.3285 -1.4754 -0.1396
10307TIP3    H252337   3.521   1.886  14.670 -0.9644 -1.0537  0.7360
10308TIP3   OH252338   0.838   1.283  16.094  0.1200 -0.0770 -0.6888
10308TIP3    H152339   0.842   1.247  16.005  1.1859  0.4967 -0.8799
10308TIP3    H252340   0.926   1.317  16.110 -0.2361  0.3671  0.3656
10309TIP3   OH252341   2.290   5.918  12.422 -0.2487  0.4267 -0.4512
10309TIP3    H152342   2.359   5.940  12.484 -1.7323 -0.4912  1.5811
10309TIP3    H252343   2.336   5.889  12.343  1.6575  1.2496  0.3455
10310TIP3   OH252344   4.653   4.701   6.153 -0.1147  0.2008  0.4612
10310TIP3    H152345   4.606   4.784   6.151  0.4025  0.4772 -1.2187
10310TIP3    H252346   4.623   4.654   6.074  0.1760 -0.8683  0.9742
10311TIP3   OH252347   2.472   2.105   0.158  0.7951 -0.2475  0.4419
10311TIP3    H152348   2.513   2.018   0.156 -0.3832 -0.8115  0.3093
10311TIP3    H252349   2.401   2.096   0.222  0.3383  0.4741  0.0353
10312TIP3   OH252350   2.467   4.796  14.483  0.0737 -0.4047 -0.1654
10312TIP3    H152351   2.445   4.832  14.397  1.5490 -0.9083 -0.7738
10312TIP3    H252352   2.492   4.705  14.466  0.3985 -0.5049  0.7910
10313TIP3   OH252353   0.815   4.037  12.303 -0.1096  0.9737  0.2889
10313TIP3    H152354   0.763   4.011  12.378 -0.9451  2.1603  0.1334
10313TIP3    H252355   0.900   3.994  12.316 -0.9671 -0.5662  0.7811
10314TIP3   OH252356   3.181   1.460   2.119 -0.4611 -1.2876 -0.2675
10314TIP3    H152357   3.142   1.430   2.037 -0.9086 -3.5279  0.7261
10314TIP3    H252358   3.141   1.545   2.135  0.6874 -0.1734 -3.0687
10315TIP3   OH252359   1.367   0.897  12.116 -0.2259 -0.2115  0.3790
10315TIP3    H152360   1.462   0.889  12.120 -0.2923 -1.5819 -0.3478
10315TIP3    H252361   1.346   0.967  12.178  1.3461  0.8725 -0.2635
10316TIP3   OH252362   1.978   1.403   1.090  0.0389 -0.3880  0.1664
10316TIP3    H152363   1.954   1.490   1.058 -0.2519 -0.8839 -0.9978
10316TIP3    H252364   1.958   1.406   1.184 -0.0059  0.7841  0.1263
10317TIP3   OH252365   2.809   1.227  16.612  0.3101 -0.4075  0.0593
10317TIP3    H152366   2.726   1.272  16.628  1.3686  0.5136  3.2030
10317TIP3    H252367   2.803   1.146  16.663  2.0457  0.5537  1.8687
10318TIP3   OH252368   1.168   3.020   4.155 -0.4813 -0.0044  0.4291
10318TIP3    H152369   1.132   3.029   4.066 -0.6209  1.8791  0.6622
10318TIP3    H252370   1.098   2.978   4.205 -1.3322  1.1366  0.2199
10319TIP3   OH252371   4.083   2.194   1.104 -0.0241  0.4002  0.4983
10319TIP3    H152372   4.055   2.154   1.186  1.6905 -1.7833  0.0535
10319TIP3    H252373   4.106   2.121   1.048  0.0386  1.9143 -1.5213
10320TIP3   OH252374   6.031   0.324  16.341  0.2968  0.0969 -0.0998
10320TIP3    H152375   6.045   0.407  16.295 -0.2051  0.4034  0.2940
10320TIP3    H252376   6.045   0.346  16.433  0.4424 -0.3241 -0.0226
10321TIP3   OH252377   6.526   2.721   2.516 -0.3017 -0.0718 -0.4688
10321TIP3    H152378   6.512   2.781   2.590 -1.2148  0.5678 -1.1520
10321TIP3    H252379   6.610   2.747   2.480 -0.4297  0.4311 -0.4129
10322TIP3   OH252380   4.463   3.942  13.462 -0.4877  0.0302  0.1952
10322TIP3    H152381   4.457   3.860  13.511 -1.1942 -0.7812 -1.2182
10322TIP3    H252382   4.547   3.979  13.488  0.1839 -1.5217  0.3032
10323TIP3   OH252383   3.911   2.906  14.709 -0.6209  0.3839  0.3461
10323TIP3    H152384   3.977   2.943  14.768  1.6969 -1.0477 -1.2929
10323TIP3    H252385   3.871   2.836  14.760  1.6774 -1.1396  0.0945
10324TIP3   OH252386   3.254   1.207   2.674  0.9273 -0.0530  0.0508
10324TIP3    H152387   3.327   1.179   2.620 -0.0714 -2.1596 -0.2748
10324TIP3    H252388   3.220   1.125   2.712 -1.7226  0.7562 -0.4520
10325TIP3   OH252389   3.799   6.375  14.665  0.0610  0.2331  0.3702
10325TIP3    H152390   3.768   6.346  14.750  1.0896 -0.1932  0.6127
10325TIP3    H252391   3.728   6.356  14.605  0.1740 -1.4876  0.7707
10326TIP3   OH252392   0.799   1.655  15.972 -0.3115  0.7639  0.2863
10326TIP3    H152393   0.829   1.566  15.989 -2.8437  0.1571  1.9232
10326TIP3    H252394   0.732   1.645  15.904  1.9809  1.9028 -2.2177
10327TIP3   OH252395   5.881   1.610   2.473 -0.0011 -0.2586  0.8289
10327TIP3    H152396   5.845   1.668   2.407 -1.9069 -2.0336  0.2819
10327TIP3    H252397   5.964   1.579   2.436 -0.9109 -1.0008 -0.5978
10328TIP3   OH252398   0.192   1.448  15.327 -0.5050 -0.5491  0.6771
10328TIP3    H152399   0.247   1.401  15.264  0.0241 -0.0866  0.8007
10328TIP3    H252400   0.142   1.510  15.274  0.5518  0.4288  0.8084
10329TIP3   OH252401   1.155   0.211   1.678  0.2311 -0.1189 -0.8514
10329TIP3    H152402   1.072   0.231   1.722 -0.5237 -2.5531 -1.0791
10329TIP3    H252403   1.150   0.258   1.595 -0.7283  0.1365 -0.6561
10330TIP3   OH252404   6.747   1.240  16.410  0.0226 -0.3533  0.2612
10330TIP3    H152405   6.828   1.212  16.454  0.7714  0.1408 -0.7699
10330TIP3    H252406   6.738   1.332  16.431  0.1494 -0.2200 -0.2544
10331TIP3   OH252407   3.746   4.545  13.856  0.1783  0.2141  0.0905
10331TIP3    H152408   3.825   4.574  13.810  1.1310 -0.5133  1.2422
10331TIP3    H252409   3.749   4.450  13.850 -1.7148  0.2463 -1.6526
10332TIP3   OH252410   3.749   4.038  10.654 -0.2687 -0.4034 -0.0838
10332TIP3    H152411   3.798   4.002  10.580  0.1773 -2.3236  1.0965
10332TIP3    H252412   3.674   4.082  10.614  0.4095 -0.6864 -1.7096
10333TIP3   OH252413   2.552   4.995   6.241  0.3488 -0.1724 -0.7707
10333TIP3    H152414   2.483   5.045   6.198 -0.0570  1.7863  2.0241
10333TIP3    H252415   2.608   5.061   6.281  0.4150 -1.9078  2.1320
10334TIP3   OH252416   4.281   0.569   5.272 -0.1488 -0.4087  0.9491
10334TIP3    H152417   4.316   0.612   5.351  1.4386 -0.2780  0.1820
10334TIP3    H252418   4.226   0.636   5.231  0.1427 -0.0125  1.1987
10335TIP3   OH252419   4.102   0.461  13.428  0.2759  0.5696  0.1133
10335TIP3    H152420   4.088   0.369  13.453 -1.6015  0.4810 -1.2182
10335TIP3    H252421   4.127   0.457  13.336 -1.5667  1.5107 -0.4400
10336TIP3   OH252422   4.739   6.603   0.374  0.2755 -0.0168  0.3745
10336TIP3    H152423   4.729   6.685   0.421  1.5128  0.8686 -0.8816
10336TIP3    H252424   4.813   6.559   0.416  0.2661 -0.0184  0.3885
10337TIP3   OH252425   0.050   5.662   5.975 -0.4646  0.2781 -0.0867
10337TIP3    H152426   0.121   5.628   5.920 -1.4235  0.0953 -1.2374
10337TIP3    H252427   0.066   5.756   5.981  1.1363 -0.0700  1.5411
10338TIP3   OH252428   5.704   4.348   0.270  0.7124 -0.7621 -0.6883
10338TIP3    H152429   5.700   4.442   0.253  1.4848 -0.4911  0.6053
10338TIP3    H252430   5.625   4.330   0.322  1.0387 -0.6664 -0.1601
10339TIP3   OH252431   5.884   4.901  15.929  0.6549 -0.0927  0.0727
10339TIP3    H152432   5.945   4.904  15.855  1.2521 -1.1497  0.5148
10339TIP3    H252433   5.938   4.920  16.006 -0.1029  1.7249  0.1712
10340TIP3   OH252434   1.638   1.612  16.056  0.0180 -0.5050  0.5699
10340TIP3    H152435   1.645   1.517  16.056 -1.4792 -0.6357  0.9361
10340TIP3    H252436   1.607   1.633  15.968  2.6901 -0.1347 -0.3181
10341TIP3   OH252437   6.014   1.862   3.407  0.0752  1.0252  0.0363
10341TIP3    H152438   6.048   1.823   3.488 -1.8042 -1.5171 -0.3294
10341TIP3    H252439   5.919   1.850   3.414 -0.3298  3.2245 -1.3399
10342TIP3   OH252440   3.158   1.474  16.809  0.0668 -0.3267  0.1221
10342TIP3    H152441   3.210   1.394  16.797  0.3515 -0.3127  1.2321
10342TIP3    H252442   3.067   1.445  16.806  0.1453 -0.4933 -0.8474
10343TIP3   OH252443   6.005   3.244   1.049 -0.2973  0.0954  0.2268
10343TIP3    H152444   6.098   3.235   1.029 -0.2169  2.9037 -0.8876
10343TIP3    H252445   6.003   3.288   1.135 -0.6122 -1.1447  0.8649
10344TIP3   OH252446   4.387   0.651   5.508 -0.0367  0.3697 -0.3700
10344TIP3    H152447   4.351   0.637   5.596 -1.0930 -0.1952 -0.8790
10344TIP3    H252448   4.479   0.673   5.523 -0.2025  0.2630  0.8751
10345TIP3   OH252449   4.192   6.055   1.742  0.1212  0.2271  0.0188
10345TIP3    H152450   4.104   6.025   1.721  0.0027  1.5320 -1.4135
10345TIP3    H252451   4.221   5.996   1.812 -1.1094 -1.4895 -0.8680
10346TIP3   OH252452   1.778   2.490  10.544  0.2669 -0.3582  0.4443
10346TIP3    H152453   1.730   2.508  10.624 -0.9596 -0.4531 -0.2537
10346TIP3    H252454   1.739   2.410  10.510  1.6889 -1.0747  0.4420
10347TIP3   OH252455   2.713   6.275  13.906  0.1281  0.2386 -0.2883
10347TIP3    H152456   2.643   6.210  13.913  0.2549 -0.0689 -1.7228
10347TIP3    H252457   2.788   6.234  13.950  0.1408 -0.5085 -0.9852
10348TIP3   OH252458   0.033   1.381   5.792  0.4160 -0.2581  1.0024
10348TIP3    H152459   0.070   1.466   5.768 -0.9962  0.5210  1.4689
10348TIP3    H252460   0.070   1.362   5.878 -0.1860  0.4733  1.4304
10349TIP3   OH252461   3.331   4.707  13.300  0.3751  0.3987  0.4533
10349TIP3    H152462   3.255   4.651  13.309 -0.3487  1.1590 -0.7319
10349TIP3    H252463   3.318   4.751  13.216  1.1846  1.9415  1.1172
10350TIP3   OH252464   3.457   6.711   3.749 -0.6014 -0.5004 -0.4205
10350TIP3    H152465   3.415   6.655   3.814 -2.1884  0.4861 -0.5690
10350TIP3    H252466   3.392   6.779   3.730  0.9003  0.8096 -1.0008
10351TIP3   OH252467   5.939   4.040  14.376  0.1932 -0.7437 -0.7919
10351TIP3    H152468   5.915   4.113  14.434  0.1923 -1.4995  0.1592
10351TIP3    H252469   5.857   4.015  14.334  0.0791 -0.5967 -0.6585
10352TIP3   OH252470   2.505   1.504   1.394  0.3042  0.7820  0.2173
10352TIP3    H152471   2.494   1.599   1.388  1.2715  0.9449  0.9278
10352TIP3    H252472   2.600   1.491   1.397  0.1898 -0.2399 -0.4166
10353TIP3   OH252473   2.178   0.984   5.148  0.4085 -0.7707  0.1410
10353TIP3    H152474   2.140   0.988   5.236  1.7428  2.2843  0.6263
10353TIP3    H252475   2.254   1.041   5.151 -0.2208  0.3939 -3.3469
10354TIP3   OH252476   5.373   5.918   0.318  0.0632 -0.4229  0.5252
10354TIP3    H152477   5.416   5.871   0.246  0.7992  2.5252 -1.0407
10354TIP3    H252478   5.443   5.968   0.359 -0.9014  0.2128  1.4122
10355TIP3   OH252479   0.976   1.322   3.304  0.0716 -1.2081 -0.1229
10355TIP3    H152480   0.906   1.363   3.253  0.6587 -1.6099 -1.2760
10355TIP3    H252481   0.933   1.253   3.354 -0.7196 -0.0004  0.8939
10356TIP3   OH252482   3.653   1.352  11.753 -0.1178  0.0970 -0.1348
10356TIP3    H152483   3.661   1.299  11.833 -0.4471  0.6827  0.2963
10356TIP3    H252484   3.651   1.289  11.682 -1.4711 -0.5264  0.4451
10357TIP3   OH252485   6.502   6.091   1.510  0.0130 -0.2792 -0.3515
10357TIP3    H152486   6.550   6.008   1.511  1.2646  0.4469 -0.0630
10357TIP3    H252487   6.429   6.075   1.449  0.5417 -1.4240 -0.7016
10358TIP3   OH252488   4.111   3.906  13.728 -0.3964 -0.2705 -0.0869
10358TIP3    H152489   4.038   3.880  13.784 -0.0357 -1.5736 -0.2004
10358TIP3    H252490   4.108   4.002  13.728 -1.0403 -0.2752  1.2987
10359TIP3   OH252491   5.310   2.081  13.290  0.1039  0.5986 -0.2948
10359TIP3    H152492   5.235   2.039  13.333  1.2157 -1.8796 -0.6663
10359TIP3    H252493   5.280   2.094  13.200  0.8712 -2.6321 -1.0928
10360TIP3   OH252494   5.385   6.441   0.751 -0.4934 -1.0516  0.1248
10360TIP3    H152495   5.446   6.433   0.824 -1.1141 -2.6509  0.4932
10360TIP3    H252496   5.441   6.456   0.675  0.2725 -1.1700  0.6590
10361TIP3   OH252497   5.002   4.844  15.067  0.2930 -0.3608  0.6234
10361TIP3    H152498   4.945   4.774  15.100  2.7321 -2.7982 -0.1828
10361TIP3    H252499   5.045   4.806  14.990 -0.1567  2.8968 -1.3494
10362TIP3   OH252500   6.265   5.776   2.816  0.0596 -0.3303  0.5398
10362TIP3    H152501   6.326   5.831   2.767 -0.8631 -0.8476 -1.2641
10362TIP3    H252502   6.179   5.797   2.778 -0.6934 -0.7087  2.0011
10363TIP3   OH252503   5.572   0.757   2.406 -0.1061 -0.0892 -0.2691
10363TIP3    H152504   5.584   0.662   2.406  1.8269  0.1311 -0.7457
10363TIP3    H252505   5.492   0.771   2.458 -0.3623 -1.9480 -0.1103
10364TIP3   OH252506   4.253   5.540  12.870 -0.2204 -0.0279  0.0523
10364TIP3    H152507   4.298   5.536  12.786  0.1638 -1.9846  0.3435
10364TIP3    H252508   4.243   5.634  12.887  1.7861  0.4040 -1.0440
10365TIP3   OH252509   0.353   6.123  15.330 -0.1932  0.0414 -0.2759
10365TIP3    H152510   0.383   6.171  15.253 -0.3370  0.1325 -0.2748
10365TIP3    H252511   0.392   6.036  15.321 -0.3509 -0.0007 -0.5360
10366TIP3   OH252512   4.808   3.784  10.661  0.0700 -0.2924  0.4812
10366TIP3    H152513   4.891   3.814  10.698 -0.2760 -0.6019  1.5208
10366TIP3    H252514   4.825   3.694  10.634 -0.1823 -0.6552  1.5235
10367TIP3   OH252515   1.455   6.372  10.470  0.3459  0.3380  0.5085
10367TIP3    H152516   1.365   6.387  10.498 -0.0485  0.1395 -0.6208
10367TIP3    H252517   1.452   6.291  10.419  0.9137  1.0309 -0.6538
10368TIP3   OH252518   0.319   2.828  16.235  0.1032  0.3446  0.1284
10368TIP3    H152519   0.325   2.913  16.278  0.5504  0.7381 -0.7065
10368TIP3    H252520   0.310   2.849  16.142 -0.9817 -0.4965  0.0312
10369TIP3   OH252521   3.894   0.834  16.112  0.3994 -0.4180 -0.3349
10369TIP3    H152522   3.911   0.882  16.193  1.1695 -2.1976  0.5813
10369TIP3    H252523   3.849   0.755  16.139 -1.9581  0.3014 -1.9713
10370TIP3   OH252524   4.344   5.759   4.003  0.2681  0.0236 -0.2691
10370TIP3    H152525   4.321   5.840   4.050 -1.0668  0.3559 -1.4716
10370TIP3    H252526   4.430   5.777   3.965  0.1616  0.7204 -0.1894
10371TIP3   OH252527   4.165   1.708  15.538  0.6476 -0.4107  0.3723
10371TIP3    H152528   4.234   1.711  15.472  1.0303  0.5266  0.8032
10371TIP3    H252529   4.095   1.762  15.502  0.6245 -0.3738  0.4736
10372TIP3   OH252530   4.480   3.127   1.533 -0.1183  0.2650  0.6435
10372TIP3    H152531   4.547   3.059   1.542  0.4317  0.8123  0.7926
10372TIP3    H252532   4.408   3.084   1.487 -0.5591 -0.9421  2.4146
10373TIP3   OH252533   5.809   6.545   4.497 -0.6500 -0.2538 -0.1037
10373TIP3    H152534   5.736   6.563   4.438  1.3990 -1.2474 -3.0190
10373TIP3    H252535   5.853   6.629   4.507 -0.0640 -0.4152 -1.2973
10374TIP3   OH252536   5.301   2.995  11.134  0.0708  0.5729 -0.1265
10374TIP3    H152537   5.340   2.916  11.171 -1.9605 -0.2339  0.3565
10374TIP3    H252538   5.271   2.968  11.047 -0.2580  0.9223 -0.1232
10375TIP3   OH252539   4.277   1.404  15.219 -0.4530 -0.0825 -0.2947
10375TIP3    H152540   4.339   1.380  15.151 -1.0122 -1.7198 -0.2444
10375TIP3    H252541   4.253   1.321  15.260 -0.7774  0.7907  1.3285
10376TIP3   OH252542   2.106   1.285  11.807 -0.4530  0.0383 -0.7619
10376TIP3    H152543   2.049   1.248  11.739  1.5330 -1.7265 -1.5282
10376TIP3    H252544   2.083   1.238  11.886  1.2667 -2.1361 -1.4951
10377TIP3   OH252545   6.671   1.953  17.093 -0.1822  0.8675  0.5268
10377TIP3    H152546   6.654   1.881  17.154 -0.2141 -0.3322 -0.8568
10377TIP3    H252547   6.592   1.957  17.039  1.2421 -0.4700 -1.7434
10378TIP3   OH252548   0.398   5.762  12.581  0.1210  0.0986 -0.4071
10378TIP3    H152549   0.462   5.832  12.565 -1.5183  1.7085 -0.1384
10378TIP3    H252550   0.449   5.691  12.620  1.6287  1.6141  0.4460
10379TIP3   OH252551   4.284   4.086   1.324 -0.4277 -0.1970 -0.1145
10379TIP3    H152552   4.254   4.035   1.249 -0.5120 -0.5735  0.1745
10379TIP3    H252553   4.248   4.041   1.401  1.1973 -0.9010  0.2670
10380TIP3   OH252554   5.659   0.453  11.410  0.1742 -0.0076 -0.4893
10380TIP3    H152555   5.693   0.369  11.380  0.0412 -0.3362  0.2765
10380TIP3    H252556   5.669   0.451  11.505  0.0381  0.7834 -0.4508
10381TIP3   OH252557   2.670   2.750  11.625 -0.2050 -0.2782  0.7063
10381TIP3    H152558   2.591   2.707  11.593 -0.3085 -0.3293  1.0293
10381TIP3    H252559   2.708   2.688  11.688  0.5441 -0.6242 -0.0724
10382TIP3   OH252560   0.678   4.536   3.344  0.4682 -0.1556  0.0048
10382TIP3    H152561   0.650   4.500   3.261 -0.9046  1.6672 -0.3643
10382TIP3    H252562   0.745   4.476   3.375 -1.1891 -2.5720 -0.9139
10383TIP3   OH252563   4.932   1.057  10.657  0.2644  0.3333 -0.5494
10383TIP3    H152564   4.976   1.139  10.633  0.5908  0.0560 -0.9066
10383TIP3    H252565   4.841   1.069  10.627  0.4118  0.4061 -0.9689
10384TIP3   OH252566   4.531   2.065  12.144 -0.7065 -0.0429 -0.5299
10384TIP3    H152567   4.599   2.119  12.103 -1.0304  1.5047  0.9330
10384TIP3    H252568   4.578   2.006  12.202 -0.5084  0.0397 -0.6068
10385TIP3   OH252569   2.814   3.140   0.663  0.5257  0.3635 -0.0732
10385TIP3    H152570   2.871   3.069   0.691 -1.0916 -1.5481 -1.4315
10385TIP3    H252571   2.742   3.140   0.726 -1.1424 -1.3979 -1.9184
10386TIP3   OH252572   2.553   4.314  15.342 -0.1926 -0.1282 -1.0592
10386TIP3    H152573   2.527   4.294  15.252  0.1562 -1.1648 -0.9268
10386TIP3    H252574   2.640   4.275  15.351 -1.3017 -2.2907  0.5449
10387TIP3   OH252575   6.437   1.103   4.456  0.4160  0.4066 -0.3093
10387TIP3    H152576   6.417   1.044   4.528 -0.2592 -0.2920 -1.0553
10387TIP3    H252577   6.358   1.157   4.447  0.0100 -0.3349 -1.3095
10388TIP3   OH252578   6.546   1.680  11.968  0.3553  0.1746  0.6258
10388TIP3    H152579   6.562   1.697  12.061  2.4786 -3.1460  0.9435
10388TIP3    H252580   6.484   1.748  11.942 -0.0981  1.3391  4.4016
10389TIP3   OH252581   5.416   0.022  14.828 -0.4023  0.2321  0.2918
10389TIP3    H152582   5.472   0.037  14.904 -1.0209  0.3028  0.7305
10389TIP3    H252583   5.474   0.035  14.753  0.4673 -0.8675  0.7607
10390TIP3   OH252584   0.387   5.886  13.938  0.1674 -0.6678 -0.2936
10390TIP3    H152585   0.346   5.848  13.860  0.1908 -2.7216  0.6635
10390TIP3    H252586   0.354   5.833  14.010  1.8412 -0.1660  0.8603
10391TIP3   OH252587   4.083   4.661   0.912 -0.2234 -0.1774  0.3455
10391TIP3    H152588   4.072   4.629   0.823 -1.3237 -0.7946  0.6933
10391TIP3    H252589   4.144   4.735   0.904 -1.2643  0.5360 -1.0659
10392TIP3   OH252590   6.639   3.451   0.462  0.2250 -0.3904 -0.4555
10392TIP3    H152591   6.640   3.442   0.366 -0.2955 -2.0028 -0.3285
10392TIP3    H252592   6.720   3.409   0.490 -1.0683 -2.6691 -0.0011
10393TIP3   OH252593   2.337   3.336   4.656  0.2954 -0.3066 -0.4180
10393TIP3    H152594   2.413   3.380   4.619  0.4566 -0.5103 -0.3346
10393TIP3    H252595   2.264   3.360   4.599  0.0370  1.4845  0.6331
10394TIP3   OH252596   1.535   0.017   3.927  0.3504 -0.3216 -0.2184
10394TIP3    H152597   1.488   0.023   4.011  1.4277 -0.7185  0.4145
10394TIP3    H252598   1.591   0.094   3.925 -0.0425 -0.0466 -0.8107
10395TIP3   OH252599   4.777   2.722  11.642 -0.0597  0.2100 -0.2169
10395TIP3    H152600   4.867   2.716  11.675  0.7103  0.8406 -2.1314
10395TIP3    H252601   4.766   2.643  11.589 -0.6795  0.0920  0.0826
10396TIP3   OH252602   0.811   6.049  12.429 -0.4961  0.0717 -0.2087
10396TIP3    H152603   0.786   6.137  12.402  3.5108  1.0223 -1.1995
10396TIP3    H252604   0.842   6.060  12.519 -1.1977 -0.5891  0.1211
10397TIP3   OH252605   1.860   3.353  10.765  0.3816 -0.4377  0.3331
10397TIP3    H152606   1.866   3.358  10.860  0.4071 -0.4285  0.3313
10397TIP3    H252607   1.944   3.387  10.734  0.9135 -1.6943  0.3378
10398TIP3   OH252608   4.503   2.645  14.758 -0.7799  0.6030 -0.2484
10398TIP3    H152609   4.526   2.681  14.673  1.2053 -1.6594 -0.7227
10398TIP3    H252610   4.586   2.643  14.807 -1.4359 -0.3029  0.8720
10399TIP3   OH252611   3.251   0.348   6.055 -0.0091  0.2507 -0.2753
10399TIP3    H152612   3.278   0.280   5.994 -0.0720 -0.6723  0.7180
10399TIP3    H252613   3.325   0.409   6.058 -0.2425  0.6260 -1.7114
10400TIP3   OH252614   1.727   4.679   2.410 -0.1957  0.0964 -0.6879
10400TIP3    H152615   1.753   4.728   2.332  1.8458  2.2749  1.2553
10400TIP3    H252616   1.809   4.642   2.444 -0.9844 -0.4887  0.6229
10401TIP3   OH252617   1.654   6.037   1.882  0.1826 -0.3966  0.0179
10401TIP3    H152618   1.638   5.943   1.891 -1.5129 -0.2995 -1.8132
10401TIP3    H252619   1.748   6.043   1.862  0.9939 -1.4611  3.2413
10402TIP3   OH252620   3.262   5.556   3.255 -0.2083 -0.4397  0.0550
10402TIP3    H152621   3.181   5.548   3.304  0.7903 -0.0770  1.7848
10402TIP3    H252622   3.248   5.503   3.176 -2.2263 -0.1218  0.1859
10403TIP3   OH252623   1.922   6.364   5.380  0.1964  0.1066  0.3019
10403TIP3    H152624   2.010   6.403   5.376 -0.2169  0.8934 -1.0062
10403TIP3    H252625   1.863   6.438   5.390 -0.6285 -0.1266 -2.5888
10404TIP3   OH252626   1.088   3.296  10.795  0.6046 -0.6624 -0.1765
10404TIP3    H152627   1.132   3.265  10.715 -0.3488 -1.0768 -0.5420
10404TIP3    H252628   1.074   3.390  10.779  0.5842 -0.7053 -0.4083
10405TIP3   OH252629   0.959   1.295   0.490 -0.1055  0.9742 -0.2632
10405TIP3    H152630   0.872   1.335   0.490 -0.7127 -0.2893  0.3849
10405TIP3    H252631   0.961   1.241   0.411  0.7946  2.4298 -1.2554
10406TIP3   OH252632   6.030   1.337   4.277 -0.2109 -0.0077 -0.2924
10406TIP3    H152633   6.043   1.321   4.183 -0.1041  2.1006 -0.6710
10406TIP3    H252634   5.939   1.365   4.284  0.1272  1.0360  0.0490
10407TIP3   OH252635   2.203   0.577  11.861  0.6625  0.4940  0.1856
10407TIP3    H152636   2.258   0.508  11.899  1.2625  0.5685 -0.5452
10407TIP3    H252637   2.257   0.617  11.793  0.4538  1.9220  0.8342
10408TIP3   OH252638   6.771   3.784  15.044 -0.4926 -0.6579  0.6158
10408TIP3    H152639   6.737   3.873  15.031 -0.6087 -0.5039  1.9070
10408TIP3    H252640   6.866   3.795  15.041 -0.5254 -0.7430 -0.8146
10409TIP3   OH252641   5.937   2.736  16.479  0.3584 -0.0962 -0.2580
10409TIP3    H152642   5.877   2.765  16.547  1.3930  0.7574  0.3165
10409TIP3    H252643   5.987   2.665  16.520 -1.0358 -1.6258 -1.1216
10410TIP3   OH252644   5.723   3.587   5.282  0.2539 -0.1773 -0.3497
10410TIP3    H152645   5.653   3.532   5.246  0.6050 -0.7125 -0.2247
10410TIP3    H252646   5.678   3.648   5.341 -0.2216  0.1269 -1.0255
10411TIP3   OH252647   1.124   6.079   6.149 -0.3055 -0.1688  0.1541
10411TIP3    H152648   1.111   5.985   6.135  0.1473 -0.7447  3.3760
10411TIP3    H252649   1.037   6.117   6.135 -0.6657 -1.1503 -0.3433
10412TIP3   OH252650   1.888   4.039   1.817  0.3202 -0.6582 -0.1099
10412TIP3    H152651   1.820   4.057   1.754  0.0675 -1.2315 -0.0092
10412TIP3    H252652   1.853   3.968   1.872  0.3814  0.0864  0.9102
10413TIP3   OH252653   1.460   5.994  15.421  0.6438 -0.3375  0.0734
10413TIP3    H152654   1.410   5.927  15.468 -2.7293  1.8418 -0.2865
10413TIP3    H252655   1.413   6.006  15.339  2.3696  1.0432 -0.7414
10414TIP3   OH252656   6.125   6.716  13.013  0.2142  0.6673  0.0424
10414TIP3    H152657   6.130   6.740  13.106  0.0644  2.6072 -0.4319
10414TIP3    H252658   6.158   6.626  13.010 -0.2060  0.4118  2.0320
10415TIP3   OH252659   4.968   6.326   4.702  0.2062 -0.0735  0.3225
10415TIP3    H152660   4.924   6.302   4.784  2.0824  0.5386  1.5376
10415TIP3    H252661   4.943   6.417   4.687 -0.9006 -0.4770 -0.2951
10416TIP3   OH252662   1.465   4.979  11.460 -0.6157  0.1619  0.3740
10416TIP3    H152663   1.371   4.984  11.444 -0.8719 -1.6119  1.1715
10416TIP3    H252664   1.491   4.894  11.423  0.2216 -0.4322  2.2622
10417TIP3   OH252665   3.091   5.819  14.469  0.3648  0.0866  0.3848
10417TIP3    H152666   3.117   5.906  14.439  0.0493  0.3554  0.8936
10417TIP3    H252667   3.164   5.789  14.523  0.0066  0.4842  1.0987
10418TIP3   OH252668   6.121   4.592  13.173  0.5517  0.4234  0.3568
10418TIP3    H152669   6.161   4.533  13.238  2.0519  1.9654  0.8818
10418TIP3    H252670   6.122   4.542  13.092 -0.6235 -1.2467  1.3300
10419TIP3   OH252671   0.112   1.141  15.217  0.1947 -0.6254  0.4224
10419TIP3    H152672   0.172   1.182  15.154 -1.0669  1.2602  0.3922
10419TIP3    H252673   0.081   1.063  15.172 -0.3331  0.4525 -1.1516
10420TIP3   OH252674   5.173   2.945  13.652  0.0756 -0.0986  0.0972
10420TIP3    H152675   5.207   2.856  13.652 -0.8948 -0.4828 -0.3790
10420TIP3    H252676   5.246   2.999  13.682  0.4313 -1.1438  1.1562
10421TIP3   OH252677   6.102   2.084   1.457 -0.0069  0.9830 -0.4011
10421TIP3    H152678   6.097   2.109   1.365  1.4440  2.5966 -0.0753
10421TIP3    H252679   6.195   2.074   1.474 -0.3363 -0.6301  0.5694
10422TIP3   OH252680   4.481   1.365  15.521 -0.0686 -0.0458 -0.2249
10422TIP3    H152681   4.487   1.418  15.441  0.5273 -0.7988 -0.6786
10422TIP3    H252682   4.395   1.386  15.557 -1.4721 -1.7163 -2.4686
10423TIP3   OH252683   1.012   2.297  15.682  0.7561  0.0013  0.1289
10423TIP3    H152684   1.038   2.205  15.693 -0.9489 -0.3950  0.9635
10423TIP3    H252685   1.047   2.341  15.759 -2.2274 -0.8051  1.9891
10424TIP3   OH252686   3.242   0.490  16.567  0.6765  0.1264  0.0187
10424TIP3    H152687   3.151   0.469  16.590  0.3873 -0.3783 -1.4907
10424TIP3    H252688   3.295   0.435  16.624 -0.0415 -3.1265 -2.3037
10425TIP3   OH252689   0.344   0.910   5.045  0.4195  0.0364 -0.2388
10425TIP3    H152690   0.414   0.845   5.044  0.1552 -0.2479 -0.2986
10425TIP3    H252691   0.347   0.949   4.958  1.4841  1.0852  0.2412
10426TIP3   OH252692   2.089   3.038  12.952 -0.5774 -0.2270 -0.0911
10426TIP3    H152693   2.052   3.125  12.937  0.9722  0.5643  0.5447
10426TIP3    H252694   2.024   2.993  13.007 -1.1746  0.6875 -0.0337
10427TIP3   OH252695   1.074   6.190   5.536  0.4072 -0.0478  0.2253
10427TIP3    H152696   1.079   6.210   5.442 -0.5266 -1.3226 -0.1087
10427TIP3    H252697   0.987   6.218   5.562  0.5946  0.1197  0.6734
10428TIP3   OH252698   6.584   2.255   4.889  0.0191  0.0104  0.4787
10428TIP3    H152699   6.524   2.232   4.818 -0.6577  3.1483 -0.0090
10428TIP3    H252700   6.531   2.303   4.952  1.9257  2.6488  0.1480
10429TIP3   OH252701   0.625   4.566  15.893  0.8640 -0.5591  0.4346
10429TIP3    H152702   0.539   4.594  15.926  1.2312 -0.3156  1.2064
10429TIP3    H252703   0.611   4.553  15.799  0.3040  0.7825  0.3068
10430TIP3   OH252704   5.591   2.576   1.302 -0.2034 -0.0604  0.2216
10430TIP3    H152705   5.637   2.493   1.308 -0.3841 -0.3903 -2.5078
10430TIP3    H252706   5.511   2.563   1.353 -0.2778 -1.5726 -0.2653
10431TIP3   OH252707   4.527   0.945   6.217  0.0508 -0.1611 -0.1258
10431TIP3    H152708   4.438   0.909   6.225 -0.6620  1.1082 -1.9841
10431TIP3    H252709   4.580   0.871   6.188 -0.8317 -0.4209 -1.1270
10432TIP3   OH252710   2.001   1.658   5.458  0.1182 -0.6258 -0.4882
10432TIP3    H152711   2.034   1.747   5.472  1.0506 -1.0150 -0.1459
10432TIP3    H252712   2.035   1.634   5.372  1.7310 -1.4641  0.3688
10433TIP3   OH252713   3.503   3.186  12.360 -0.4620 -0.0593  0.6760
10433TIP3    H152714   3.448   3.232  12.424 -0.0670 -0.2012  1.1164
10433TIP3    H252715   3.567   3.252  12.332 -2.5016  0.9502 -1.8719
10434TIP3   OH252716   2.653   3.784   5.567  0.5131  0.7340  0.1835
10434TIP3    H152717   2.663   3.873   5.601  0.9789  1.0986 -0.9118
10434TIP3    H252718   2.742   3.749   5.568  0.3890  0.4229  0.2000
10435TIP3   OH252719   2.527   2.426   2.471  1.0330 -0.1522  0.8501
10435TIP3    H152720   2.511   2.518   2.493 -0.4696  0.4299 -2.4296
10435TIP3    H252721   2.458   2.378   2.518 -0.9230  0.8602 -0.9150
10436TIP3   OH252722   0.318   5.229  14.293 -0.2313  0.4788 -0.4476
10436TIP3    H152723   0.345   5.246  14.383 -0.4139  2.2805 -0.7283
10436TIP3    H252724   0.316   5.133  14.287 -0.4790  0.3367  1.5278
10437TIP3   OH252725   1.408   2.331   1.683 -0.0334 -0.2760 -0.4194
10437TIP3    H152726   1.360   2.296   1.758  1.9352  0.7739  1.3738
10437TIP3    H252727   1.462   2.402   1.719  0.1936  0.9378 -3.0030
10438TIP3   OH252728   5.168   3.118   3.272  0.7198  0.4578  0.4991
10438TIP3    H152729   5.120   3.044   3.309  2.2838  0.0768  1.8173
10438TIP3    H252730   5.111   3.193   3.285 -0.0352 -0.1946  0.9459
10439TIP3   OH252731   5.480   1.283  11.767  0.2693  0.3688  0.1575
10439TIP3    H152732   5.575   1.296  11.764  0.3382  0.0028  0.7278
10439TIP3    H252733   5.461   1.227  11.691  0.6352 -0.3175  0.5642
10440TIP3   OH252734   0.863   1.977   2.015 -1.1914 -0.1160  0.5306
10440TIP3    H152735   0.804   2.026   2.073 -0.7258  0.0152  0.8946
10440TIP3    H252736   0.861   2.026   1.933 -0.1498  0.9572  1.1263
10441TIP3   OH252737   6.031   1.943   0.407  0.1519  0.1320  0.0595
10441TIP3    H152738   5.989   1.880   0.466  0.9340  0.6486  1.1917
10441TIP3    H252739   6.101   1.982   0.460  2.3566 -1.0526 -1.9247
10442TIP3   OH252740   6.271   1.779  12.223 -0.6766 -0.1337  0.6150
10442TIP3    H152741   6.331   1.816  12.158  0.6058  0.8962  2.3278
10442TIP3    H252742   6.324   1.716  12.271 -0.5518  1.6757  2.9473
10443TIP3   OH252743   5.222   5.468   4.245 -0.1227  0.6413 -0.2577
10443TIP3    H152744   5.152   5.409   4.275  0.6178  0.7107  1.6514
10443TIP3    H252745   5.209   5.549   4.294  2.1191  0.1727  1.1976
10444TIP3   OH252746   5.517   1.219  13.148 -0.4477 -0.4800  0.1878
10444TIP3    H152747   5.519   1.143  13.089  0.8932 -0.6961  0.4950
10444TIP3    H252748   5.556   1.187  13.229 -1.0158  0.2067  0.7379
10445TIP3   OH252749   1.923   3.562  12.028 -0.4046  0.1696 -0.2692
10445TIP3    H152750   1.921   3.479  11.979  0.4277  0.4952 -0.8539
10445TIP3    H252751   2.014   3.573  12.054 -0.2562  1.5427 -1.2954
10446TIP3   OH252752   2.550   3.677  11.988 -0.1440 -0.4793 -0.6205
10446TIP3    H152753   2.505   3.736  12.049 -1.7463 -3.1047  0.8629
10446TIP3    H252754   2.639   3.711  11.983 -1.2209  2.5090 -0.4585
10447TIP3   OH252755   0.720   3.907  13.147 -0.5197  0.0553  0.1249
10447TIP3    H152756   0.688   3.930  13.235 -0.8439 -0.1570  0.0644
10447TIP3    H252757   0.685   3.820  13.131 -0.2459 -0.0105 -0.1137
10448TIP3   OH252758   5.659   0.883  16.840  0.2875  0.2535  0.3344
10448TIP3    H152759   5.572   0.863  16.805  1.7705 -1.6305 -2.4376
10448TIP3    H252760   5.698   0.797  16.858  1.6172  1.0825  1.5319
10449TIP3   OH252761   2.884   0.826   1.932  0.2749 -0.4155  0.1488
10449TIP3    H152762   2.831   0.797   2.005 -1.4411  0.4934 -0.7000
10449TIP3    H252763   2.870   0.760   1.864 -0.3237  0.1710 -0.3098
10450TIP3   OH252764   6.320   1.235   0.300  0.0427  0.0765 -0.2419
10450TIP3    H152765   6.281   1.152   0.328  0.2205 -0.4235 -1.4481
10450TIP3    H252766   6.247   1.285   0.262  0.1197  0.0864 -0.3785
10451TIP3   OH252767   1.378   1.526  11.686 -0.5315 -0.2478  0.4854
10451TIP3    H152768   1.452   1.586  11.691 -0.5931 -0.2467  1.3730
10451TIP3    H252769   1.357   1.521  11.592 -2.0355  2.9561  0.5874
10452TIP3   OH252770   3.751   2.878   3.823 -0.1669 -0.5719 -0.1213
10452TIP3    H152771   3.734   2.799   3.771 -1.2655  0.1401 -0.8335
10452TIP3    H252772   3.703   2.863   3.905  0.4705 -1.0839  0.1756
10453TIP3   OH252773   2.534   1.398  14.564  0.0140 -0.1651  0.2578
10453TIP3    H152774   2.627   1.413  14.547  0.2300  0.3181  1.7909
10453TIP3    H252775   2.493   1.483  14.551 -0.2359 -0.3978 -0.5041
10454TIP3   OH252776   5.384   4.455   0.372  0.0047 -0.2011 -0.4994
10454TIP3    H152777   5.421   4.411   0.448  1.0565 -0.3495 -1.0819
10454TIP3    H252778   5.314   4.510   0.407 -1.0339 -1.9908  0.2849
10455TIP3   OH252779   2.432   2.841  13.874 -0.1253  0.2556  0.3561
10455TIP3    H152780   2.492   2.783  13.828  0.9061  1.5780  0.0370
10455TIP3    H252781   2.354   2.844  13.819  0.7252  1.0465 -0.8002
10456TIP3   OH252782   2.748   6.238  11.242  0.1461  0.2689 -0.1099
10456TIP3    H152783   2.790   6.255  11.158  0.3299 -0.5326 -0.1876
10456TIP3    H252784   2.713   6.322  11.269 -1.2579  0.2372 -1.7344
10457TIP3   OH252785   5.228   5.931  15.808 -0.3221 -0.0412 -0.3382
10457TIP3    H152786   5.179   5.981  15.874 -0.2311 -0.0013 -0.3028
10457TIP3    H252787   5.265   5.998  15.750 -1.1989 -0.1052 -0.9882
10458TIP3   OH252788   6.753   4.866  17.107  0.0616  0.1555  0.3200
10458TIP3    H152789   6.802   4.871  17.189 -1.3046  1.8478  1.0623
10458TIP3    H252790   6.787   4.788  17.063  0.7532 -0.8127  2.5332
10459TIP3   OH252791   5.737   3.825   4.568  0.0657  0.8792 -0.1306
10459TIP3    H152792   5.779   3.759   4.622  0.0176  0.0206 -1.1338
10459TIP3    H252793   5.649   3.834   4.606 -0.6897 -1.2239 -1.3013
10460TIP3   OH252794   0.182   2.757  12.933 -0.2229 -0.2224 -0.0255
10460TIP3    H152795   0.135   2.839  12.918  2.0444  1.4592  1.5709
10460TIP3    H252796   0.227   2.740  12.850 -0.3024  0.4659 -0.2172
10461TIP3   OH252797   2.031   5.067   1.073  0.4641  0.3059  0.2382
10461TIP3    H152798   2.098   5.134   1.080  1.8969 -0.9065 -1.4320
10461TIP3    H252799   1.948   5.115   1.077  1.4552  2.1103 -0.4873
10462TIP3   OH252800   3.427   3.394   0.420  0.0861 -0.0721  0.1825
10462TIP3    H152801   3.467   3.350   0.495  1.9024  1.5112  0.1772
10462TIP3    H252802   3.350   3.438   0.457  1.7670  1.8913  1.4549
10463TIP3   OH252803   0.931   0.358  13.119 -0.5610  0.0909 -0.1018
10463TIP3    H152804   1.012   0.355  13.068  0.1311 -0.2261  0.9704
10463TIP3    H252805   0.909   0.450  13.125  0.2354  0.2609  0.3526
10464TIP3   OH252806   1.991   1.460   4.518 -0.2957  0.3701  0.3113
10464TIP3    H152807   2.081   1.488   4.530  0.4945 -1.0772 -1.9458
10464TIP3    H252808   1.946   1.536   4.482  0.8463  0.1022 -1.7646
10465TIP3   OH252809   5.642   3.604  16.092  0.0960  0.2493 -0.1954
10465TIP3    H152810   5.666   3.648  16.011  0.6079 -0.6483 -0.5417
10465TIP3    H252811   5.724   3.598  16.141 -0.5704  2.5236  1.2465
10466TIP3   OH252812   0.108   0.551  13.485 -0.1540 -0.0517  0.7919
10466TIP3    H152813   0.185   0.550  13.428 -0.3749 -0.6174  0.5032
10466TIP3    H252814   0.108   0.465  13.527  0.0158  0.3632  1.6558
10467TIP3   OH252815   2.650   5.298   3.094  0.2566  0.2390 -0.5620
10467TIP3    H152816   2.594   5.241   3.042  0.8771 -0.8911  0.0076
10467TIP3    H252817   2.588   5.347   3.150 -0.5429  2.5213 -3.2970
10468TIP3   OH252818   0.740   1.155  15.779 -0.1478  0.5320 -0.0721
10468TIP3    H152819   0.656   1.136  15.736  0.6939  0.6140 -1.7760
10468TIP3    H252820   0.754   1.248  15.765  1.0224  0.1875 -1.2196
10469TIP3   OH252821   2.234   0.782  13.033  0.4273  0.2195 -0.2987
10469TIP3    H152822   2.139   0.785  13.025  0.3487  1.5380  0.9970
10469TIP3    H252823   2.266   0.843  12.966  0.3844 -0.3427 -0.8425
10470TIP3   OH252824   2.681   6.317  11.598  0.1512 -0.0448  0.0145
10470TIP3    H152825   2.665   6.393  11.654  1.6277 -0.3645  0.9000
10470TIP3    H252826   2.593   6.283  11.578 -0.4523  0.9501  0.9301
10471TIP3   OH252827   5.922   3.816  12.393 -0.1509  0.4132 -0.8572
10471TIP3    H152828   5.867   3.874  12.445  2.0816  0.8026  1.1732
10471TIP3    H252829   5.924   3.734  12.441  0.1016  0.0359 -1.5069
10472TIP3   OH252830   2.326   4.216  14.501  0.0445 -0.8335  0.9197
10472TIP3    H152831   2.411   4.255  14.479 -0.1174 -0.7307  0.4586
10472TIP3    H252832   2.347   4.129  14.535  0.3388 -0.7771  0.8827
10473TIP3   OH252833   5.044   6.037   4.752  0.4215 -0.2502 -0.0968
10473TIP3    H152834   5.090   5.996   4.679  0.4060 -0.6264  0.1069
10473TIP3    H252835   5.054   6.131   4.737  0.8519 -0.3309 -0.3062
10474TIP3   OH252836   3.146   3.177  12.689 -0.1240  0.4460  0.0710
10474TIP3    H152837   3.102   3.260  12.706 -0.0833 -0.0793  3.0700
10474TIP3    H252838   3.080   3.124  12.644 -0.1830  2.0123 -1.7714
10475TIP3   OH252839   1.446   0.022  10.630  0.0338  0.1463 -0.0137
10475TIP3    H152840   1.447  -0.002  10.537 -4.0303 -0.2418 -0.0459
10475TIP3    H252841   1.403   0.107  10.632  0.5120  0.3592  1.4797
10476TIP3   OH252842   2.571   1.028   2.543 -0.2541 -0.1617  0.4345
10476TIP3    H152843   2.510   1.062   2.609 -0.0263  0.8582  0.1235
10476TIP3    H252844   2.592   1.104   2.489  1.6110 -0.4187  0.7800
10477TIP3   OH252845   2.565   5.928   6.619 -0.1618 -0.1861 -0.3810
10477TIP3    H152846   2.657   5.955   6.609  0.3856 -1.7287  0.3512
10477TIP3    H252847   2.537   5.968   6.701 -0.8789  2.2285 -1.7630
10478TIP3   OH252848   0.613   5.492   1.794  0.0062  0.5329  0.2591
10478TIP3    H152849   0.589   5.454   1.709 -2.2310  0.2303  0.9814
10478TIP3    H252850   0.708   5.479   1.800 -0.1568 -1.6848 -1.1128
10479TIP3   OH252851   0.726   5.719  13.847 -0.3476  0.1025 -1.0155
10479TIP3    H152852   0.644   5.672  13.859  0.1504 -0.5032  0.0195
10479TIP3    H252853   0.780   5.696  13.922  1.7489 -1.5193 -2.9268
10480TIP3   OH252854   2.368   1.274  12.680  0.5252  0.5850  0.1977
10480TIP3    H152855   2.324   1.278  12.765  0.9594  1.7784  0.3685
10480TIP3    H252856   2.460   1.256  12.701  0.2988 -1.0212 -0.1172
10481TIP3   OH252857   3.488   4.633  16.720  0.0545 -0.0366  0.4863
10481TIP3    H152858   3.435   4.690  16.665  0.0488 -0.2586  0.2564
10481TIP3    H252859   3.427   4.569  16.756  0.1549 -0.2523  0.2763
10482TIP3   OH252860   1.181   5.064  15.051  0.1398 -0.1600  0.5465
10482TIP3    H152861   1.191   5.142  15.104  1.6056 -1.4876  2.2722
10482TIP3    H252862   1.264   5.056  15.003 -0.7905  0.4797 -1.2242
10483TIP3   OH252863   6.547   4.356   2.083  1.1399 -0.5803 -0.4351
10483TIP3    H152864   6.510   4.422   2.142 -0.6613 -0.3720 -1.7551
10483TIP3    H252865   6.582   4.406   2.010  2.3590 -0.9183 -0.0976
10484TIP3   OH252866   2.364   4.152   1.199  0.6016  0.1749 -0.4612
10484TIP3    H152867   2.302   4.175   1.268  0.4931  1.0191 -0.8357
10484TIP3    H252868   2.448   4.187   1.230  0.2034  2.2563 -1.6067
10485TIP3   OH252869   3.318   0.809  12.741  0.0282 -0.1364  0.3308
10485TIP3    H152870   3.304   0.719  12.771 -0.3888  0.1220  0.9396
10485TIP3    H252871   3.405   0.832  12.774 -0.5132  0.2152  1.5487
10486TIP3   OH252872   1.050   5.307   2.332  0.1217 -0.4792  0.5638
10486TIP3    H152873   0.992   5.233   2.315  0.2178 -0.5791  0.6705
10486TIP3    H252874   1.066   5.304   2.426 -1.9858  1.2193  1.0166
10487TIP3   OH252875   4.898   1.970  11.968  0.1532 -0.3572 -0.0025
10487TIP3    H152876   4.912   1.933  12.056  1.7107 -0.5369 -0.3217
10487TIP3    H252877   4.861   2.057  11.984 -1.3502 -1.1095  0.7937
10488TIP3   OH252878   6.127   1.532   2.322  0.2993  0.1622 -0.1870
10488TIP3    H152879   6.151   1.472   2.251  0.4724  0.4567 -0.3790
10488TIP3    H252880   6.176   1.612   2.303  1.9114 -0.4207  1.3527
10489TIP3   OH252881   5.368   1.206  11.161  0.5006 -0.2891 -0.0864
10489TIP3    H152882   5.448   1.194  11.109  0.4904  1.0174 -0.4165
10489TIP3    H252883   5.301   1.231  11.098 -0.1621 -1.2797  0.2056
10490TIP3   OH252884   4.546   4.418  15.298 -0.0971  0.5564  0.1371
10490TIP3    H152885   4.500   4.408  15.382 -1.2755  2.0441 -0.3117
10490TIP3    H252886   4.629   4.371  15.311 -2.2078 -3.2809  0.5401
10491TIP3   OH252887   3.063   2.641  16.517  0.1066  0.6676  0.5885
10491TIP3    H152888   3.053   2.596  16.600  0.1542 -1.1542 -0.3831
10491TIP3    H252889   2.992   2.609  16.462 -1.2532  3.4737  0.5823
10492TIP3   OH252890   6.125   0.622  11.133 -0.0247  0.3875 -0.3824
10492TIP3    H152891   6.194   0.643  11.070 -0.0438  0.6248 -0.3261
10492TIP3    H252892   6.110   0.705  11.179 -0.0713  0.2353 -0.1268
10493TIP3   OH252893   2.836   6.125   0.855 -0.6981 -0.4686  0.0310
10493TIP3    H152894   2.895   6.115   0.780  2.4893  2.5885  1.9883
10493TIP3    H252895   2.764   6.178   0.821  0.5080  0.5498 -0.9941
10494TIP3   OH252896   5.266   5.220  16.080 -0.2013 -0.5960 -0.1464
10494TIP3    H152897   5.290   5.311  16.065 -0.5788 -0.5908 -0.7161
10494TIP3    H252898   5.350   5.173  16.081  0.1519 -0.0025  1.9287
10495TIP3   OH252899   0.789   3.315  10.854 -0.4980 -0.1350 -0.0507
10495TIP3    H152900   0.760   3.225  10.839 -1.2297 -0.1727  1.5573
10495TIP3    H252901   0.881   3.306  10.880 -0.6667 -0.4456  0.4470
10496TIP3   OH252902   0.524   1.010  11.141  0.0837 -0.5112 -0.4266
10496TIP3    H152903   0.533   0.927  11.189 -0.0224 -0.9175 -1.0955
10496TIP3    H252904   0.586   1.001  11.068 -2.9884 -1.8082 -3.0151
10497TIP3   OH252905   1.933   4.096   4.371  0.1360 -0.4923 -0.0856
10497TIP3    H152906   1.903   4.180   4.406  1.2723 -0.4282  0.7831
10497TIP3    H252907   1.998   4.066   4.435 -0.6224 -2.2754 -0.1498
10498TIP3   OH252908   1.625   5.178   4.252 -0.1836 -0.0225  0.1339
10498TIP3    H152909   1.682   5.128   4.193  0.5745  0.0915  0.7586
10498TIP3    H252910   1.556   5.213   4.196 -1.4732 -2.8551 -0.1325
10499TIP3   OH252911   0.958   5.191  11.523  0.4219  0.1523 -0.3833
10499TIP3    H152912   0.969   5.235  11.439  0.0224  0.9754 -0.0183
10499TIP3    H252913   0.977   5.099  11.505  0.5258  0.3503 -1.3275
10500TIP3   OH252914   6.778   4.679  15.432 -0.1910 -0.3341 -0.3968
10500TIP3    H152915   6.865   4.719  15.432  0.3448 -1.4726 -1.0489
10500TIP3    H252916   6.789   4.597  15.384 -1.8262 -0.0596 -1.2764
10501TIP3   OH252917   2.587   3.024  11.617 -0.9422 -0.1229  0.5001
10501TIP3    H152918   2.607   2.931  11.633  3.6942  0.9030  1.3527
10501TIP3    H252919   2.585   3.063  11.704 -0.3617  0.9894  0.0219
10502TIP3   OH252920   2.648   2.007   1.819 -0.0425 -0.1905 -0.1648
10502TIP3    H152921   2.720   2.070   1.819 -0.9156  0.8193 -0.1697
10502TIP3    H252922   2.645   1.974   1.729 -0.5244  0.8698 -0.5473
10503TIP3   OH252923   3.744   5.738   5.211 -0.2874  0.2809 -0.0335
10503TIP3    H152924   3.730   5.718   5.119 -1.0932  4.3959 -0.8855
10503TIP3    H252925   3.664   5.709   5.255 -0.7995  0.2672 -0.9753
10504TIP3   OH252926   2.566   1.418   1.018  0.6641 -0.2238  0.6459
10504TIP3    H152927   2.598   1.352   1.079  0.8866 -0.5943  0.1302
10504TIP3    H252928   2.619   1.496   1.036  1.3058 -0.5924  0.3434
10505TIP3   OH252929   4.779   1.618   5.516 -0.3825  0.6019  0.2562
10505TIP3    H152930   4.814   1.664   5.592 -2.1326 -0.0416  1.5017
10505TIP3    H252931   4.771   1.685   5.449  1.2275  1.1693  0.6226
10506TIP3   OH252932   0.061   1.062  11.587 -0.8735  0.4297  0.1813
10506TIP3    H152933   0.028   1.075  11.676 -0.0500  0.6101  0.4616
10506TIP3    H252934   0.152   1.091  11.591 -0.3467 -1.1349 -0.3044
10507TIP3   OH252935   4.908   3.898  11.693  0.0681  0.3204 -0.2428
10507TIP3    H152936   4.935   3.980  11.733 -2.2060  1.3564 -0.7532
10507TIP3    H252937   4.906   3.835  11.766 -1.7188  1.6111  0.8760
10508TIP3   OH252938   3.975   1.525   2.653  0.2755 -0.3340  0.3382
10508TIP3    H152939   3.976   1.613   2.616  0.2456  0.2166  1.6177
10508TIP3    H252940   4.065   1.510   2.684  0.6764 -1.3694 -1.2788
10509TIP3   OH252941   1.795   4.743  12.896 -0.9714 -0.3592  0.3187
10509TIP3    H152942   1.782   4.649  12.881 -0.8079 -0.4115  0.5019
10509TIP3    H252943   1.889   4.751  12.916 -0.6751  0.0334 -1.1600
10510TIP3   OH252944   2.970   3.148  16.513 -0.0355  0.0037 -0.3330
10510TIP3    H152945   2.931   3.081  16.458  1.1021 -1.9807  1.1936
10510TIP3    H252946   3.033   3.100  16.568 -0.0703  2.1264  1.6309
10511TIP3   OH252947   2.089   3.842   5.493 -0.3466  0.2969  0.1588
10511TIP3    H152948   2.144   3.839   5.572  1.1859  0.4896 -0.8829
10511TIP3    H252949   2.074   3.935   5.477 -1.8509  0.2179  1.0172
10512TIP3   OH252950   4.464   0.172   5.751 -0.6629 -0.1769 -0.2580
10512TIP3    H152951   4.438   0.225   5.826  2.5796  0.9240  0.1740
10512TIP3    H252952   4.503   0.093   5.790  0.3362  0.0500 -0.7794
10513TIP3   OH252953   6.690   5.803   2.989  1.1812  0.7395 -0.0734
10513TIP3    H152954   6.733   5.812   3.075  1.7437  1.8633 -0.4674
10513TIP3    H252955   6.746   5.853   2.929  0.2384  0.7947 -0.9105
10514TIP3   OH252956   1.686   0.765  16.343  0.1872 -0.5774 -0.1420
10514TIP3    H152957   1.633   0.845  16.344  1.0565 -0.0019 -0.2601
10514TIP3    H252958   1.734   0.767  16.426  0.4335 -0.8269 -0.2780
10515TIP3   OH252959   4.266   1.192  16.968 -0.7914 -0.2840  0.2104
10515TIP3    H152960   4.268   1.213  16.875 -0.1179  1.3594  0.5699
10515TIP3    H252961   4.184   1.144  16.981 -1.3920  0.3884 -1.0518
10516TIP3   OH252962   2.716   1.872   6.311  0.3652 -0.8087  0.1271
10516TIP3    H152963   2.796   1.860   6.260 -0.1181 -2.0093 -0.3726
10516TIP3    H252964   2.728   1.956   6.355  1.5237 -0.5636 -0.6259
10517TIP3   OH252965   2.609   3.675  15.034  0.4037  0.4723 -0.0177
10517TIP3    H152966   2.627   3.698  14.943  1.1244 -2.6626 -0.7195
10517TIP3    H252967   2.535   3.615  15.030  0.6611  0.0310  1.4167
10518TIP3   OH252968   5.900   1.554   1.118 -0.6484  0.2128 -0.2016
10518TIP3    H152969   5.914   1.480   1.059  1.2595  0.6967 -0.3954
10518TIP3    H252970   5.814   1.589   1.093 -0.6182 -0.6394 -1.5422
10519TIP3   OH252971   5.684   1.233  13.949  0.0946 -0.1422 -0.1167
10519TIP3    H152972   5.653   1.167  14.010  1.4235 -0.9503 -0.3058
10519TIP3    H252973   5.645   1.209  13.865  0.4008 -0.5656 -0.1376
10520TIP3   OH252974   5.811   3.136   2.481  0.2946 -0.3699  0.1348
10520TIP3    H152975   5.758   3.174   2.551 -0.6753 -0.6597 -0.4399
10520TIP3    H252976   5.748   3.095   2.422  1.1380 -0.5034 -0.6892
10521TIP3   OH252977   4.945   2.810   2.473  0.0850 -0.1802  0.0210
10521TIP3    H152978   4.879   2.793   2.540 -1.0961 -0.0536 -1.0897
10521TIP3    H252979   4.908   2.881   2.420  1.2194  0.0663 -0.4696
10522TIP3   OH252980   6.125   1.166   4.479  0.3088 -0.6008  0.0352
10522TIP3    H152981   6.095   1.163   4.570  1.2808  0.7143  0.4232
10522TIP3    H252982   6.067   1.230   4.437 -1.5359 -2.7568 -0.8499
10523TIP3   OH252983   0.516   0.964  12.784  0.0475  0.5400 -0.1910
10523TIP3    H152984   0.599   0.961  12.738  0.2099 -1.4216  0.2002
10523TIP3    H252985   0.467   0.888  12.752 -1.9961  2.2088 -1.1616
10524TIP3   OH252986   2.797   2.438  14.998 -0.4502  0.2741 -0.2138
10524TIP3    H152987   2.738   2.511  15.017 -0.3366  0.5191 -0.7932
10524TIP3    H252988   2.879   2.480  14.972 -0.2741 -0.0625 -0.2095
10525TIP3   OH252989   1.028   3.225   4.343  0.0749 -0.1809  0.3567
10525TIP3    H152990   1.061   3.265   4.263  0.1348  0.0609  0.5002
10525TIP3    H252991   1.100   3.169   4.373 -0.5147 -1.4534 -0.5680
10526TIP3   OH252992   3.695   1.375  15.327  0.4194  0.8794  0.2843
10526TIP3    H152993   3.745   1.450  15.359  0.4552  0.9282  0.1168
10526TIP3    H252994   3.753   1.300  15.339  0.2829  0.8381  0.7012
10527TIP3   OH252995   4.005   1.913  10.799 -0.0733 -0.4833 -0.0521
10527TIP3    H152996   3.940   1.963  10.848 -0.0908 -0.7525  0.1983
10527TIP3    H252997   3.955   1.843  10.758 -0.5830  1.4627 -2.8974
10528TIP3   OH252998   3.538   3.224  16.343 -0.3961 -0.7308  0.3313
10528TIP3    H152999   3.553   3.202  16.251  1.8556 -0.0060  0.5006
10528TIP3    H253000   3.552   3.319  16.347 -1.3033 -0.6287  1.2739
10529TIP3   OH253001   4.417   5.913   2.888 -0.1533 -0.3332  0.4171
10529TIP3    H153002   4.465   5.855   2.947 -2.1465 -1.9014  0.5856
10529TIP3    H253003   4.379   5.980   2.945 -0.6797 -0.8690  0.7035
10530TIP3   OH253004   3.230   3.592  11.246 -0.0593  0.2281  0.6070
10530TIP3    H153005   3.181   3.605  11.164 -0.0483 -0.6722  0.4533
10530TIP3    H253006   3.257   3.500  11.243  3.7046  1.2680 -0.4521
10531TIP3   OH253007   3.944   2.449  11.252 -0.0144 -1.3819 -0.1262
10531TIP3    H153008   3.994   2.509  11.196 -0.2496 -1.7175 -0.7056
10531TIP3    H253009   3.885   2.506  11.301 -0.0835 -1.1167 -0.5145
10532TIP3   OH253010   4.976   0.678   3.321  0.0907 -0.6994 -0.0322
10532TIP3    H153011   4.996   0.772   3.319 -2.4712 -0.1408 -2.6193
10532TIP3    H253012   5.007   0.645   3.236 -0.6500 -1.8012  0.1123
10533TIP3   OH253013   0.868   4.765   0.863 -0.1065 -0.4992 -0.0245
10533TIP3    H153014   0.905   4.717   0.788 -0.1137  0.2619 -0.5208
10533TIP3    H253015   0.774   4.758   0.852 -0.1078  0.4321 -0.6184
10534TIP3   OH253016   4.855   4.966   2.940 -0.0794 -0.8047  0.2996
10534TIP3    H153017   4.898   4.881   2.949 -1.0089 -1.1010  2.3890
10534TIP3    H253018   4.899   5.021   3.005 -0.8339 -0.2920  0.3875
10535TIP3   OH253019   1.516   2.097   1.952  0.1865  0.1906 -0.3516
10535TIP3    H153020   1.572   2.031   1.992 -0.1670 -0.1103 -0.3505
10535TIP3    H253021   1.576   2.169   1.930  0.3158  0.4942  0.9993
10536TIP3   OH253022   5.840   3.236   5.410 -0.6765 -0.1889 -0.2027
10536TIP3    H153023   5.900   3.163   5.421 -0.2266  0.1933 -0.1104
10536TIP3    H253024   5.815   3.261   5.499  0.2706  0.6721 -0.1669
10537TIP3   OH253025   2.199   3.691   4.319 -0.4442  0.0225 -0.2411
10537TIP3    H153026   2.146   3.694   4.240  0.5996 -2.2368 -1.0649
10537TIP3    H253027   2.288   3.712   4.289  0.1858 -2.0791  0.0958
10538TIP3   OH253028   3.453   5.451  15.867  0.1994  0.5091 -0.0612
10538TIP3    H153029   3.498   5.402  15.935 -0.8610  0.1505  0.3966
10538TIP3    H253030   3.486   5.415  15.785  1.5014  0.9598  0.2476
10539TIP3   OH253031   5.798   4.196  14.003  0.0438  0.4427  0.2241
10539TIP3    H153032   5.813   4.274  13.949 -1.3785  0.5469 -0.0284
10539TIP3    H253033   5.805   4.123  13.942  0.1774  0.4442  0.2373
10540TIP3   OH253034   6.274   0.275  13.293  0.4206 -0.3543 -0.4220
10540TIP3    H153035   6.275   0.214  13.367  0.6216 -0.9634 -0.9267
10540TIP3    H253036   6.306   0.223  13.219  2.1727  0.7947 -0.5090
10541TIP3   OH253037   0.389   4.792  13.519  0.0837  0.1216  0.7962
10541TIP3    H153038   0.472   4.776  13.476  0.6542  0.1428  1.8678
10541TIP3    H253039   0.366   4.882  13.494 -1.5840 -1.2020 -2.6879
10542TIP3   OH253040   5.384   5.680   3.634  0.6962 -0.6192  0.2325
10542TIP3    H153041   5.324   5.681   3.560 -0.3132 -0.6702  1.0463
10542TIP3    H253042   5.451   5.745   3.611  0.6619 -0.9961 -0.9447
10543TIP3   OH253043   0.034   1.248   1.519 -0.2876 -0.3333 -0.3750
10543TIP3    H153044  -0.028   1.297   1.466 -0.6388 -1.1759 -0.7502
10543TIP3    H253045   0.101   1.218   1.457  0.0841 -0.0772 -0.1006
10544TIP3   OH253046   1.148   3.030   2.574  0.5405  0.2097  0.2342
10544TIP3    H153047   1.111   3.054   2.658  2.5425  0.6646  1.0250
10544TIP3    H253048   1.127   2.937   2.564  0.1337  0.2046  1.1498
10545TIP3   OH253049   4.513   4.524   2.190 -0.7745  0.2409  0.5815
10545TIP3    H153050   4.552   4.595   2.139  0.0155 -0.5526  0.0613
10545TIP3    H253051   4.419   4.531   2.172 -0.7025  1.1400  0.5184
10546TIP3   OH253052   1.620   1.213   0.558  0.1092 -0.3345  0.0274
10546TIP3    H153053   1.636   1.150   0.488 -0.9376  0.3342 -0.8283
10546TIP3    H253054   1.534   1.190   0.593 -0.2998  0.6375 -0.3219
10547TIP3   OH253055   6.069   1.252   0.191  0.2070 -0.7325 -0.3640
10547TIP3    H153056   6.027   1.221   0.111  1.4132 -1.4072 -0.7477
10547TIP3    H253057   6.040   1.191   0.258  0.8622 -1.4209 -0.7015
10548TIP3   OH253058   5.756   0.041   0.290 -0.3300 -0.4133 -0.3296
10548TIP3    H153059   5.782   0.081   0.374  1.7872 -0.0608 -1.1288
10548TIP3    H253060   5.714  -0.041   0.315  0.6447 -0.5086  1.0557
10549TIP3   OH253061   2.063   1.578   3.525  0.1330 -0.3380 -0.0598
10549TIP3    H153062   2.148   1.578   3.480  0.7912  0.3997  1.1538
10549TIP3    H253063   2.033   1.487   3.520  0.6413 -0.4526 -1.1495
10550TIP3   OH253064   1.575   0.637  17.170 -0.9461  0.2238 -0.0554
10550TIP3    H153065   1.593   0.686  17.090  0.6997 -0.8036 -0.3420
10550TIP3    H253066   1.479   0.634  17.176 -1.0723  2.5478 -0.5786
10551TIP3   OH253067   5.697   3.040   4.550 -0.4898  0.6851  0.2695
10551TIP3    H153068   5.760   3.022   4.480 -2.7917 -2.6066 -1.0590
10551TIP3    H253069   5.746   3.021   4.631  0.4188 -1.3036 -0.7132
10552TIP3   OH253070   2.652   5.148  11.821 -0.8213 -0.2961 -0.5537
10552TIP3    H153071   2.703   5.228  11.807  0.0204 -1.1206 -2.2763
10552TIP3    H253072   2.670   5.125  11.912  1.6278 -0.3693 -1.0174
10553TIP3   OH253073   2.964   6.647   1.718  0.1896  0.0806  0.4106
10553TIP3    H153074   2.963   6.651   1.622  1.0598 -0.6797  0.3701
10553TIP3    H253075   2.872   6.656   1.743 -0.1916 -1.1135 -0.5442
10554TIP3   OH253076   0.492   4.136   2.220  0.1300  0.2466 -0.4026
10554TIP3    H153077   0.572   4.105   2.263 -0.5952 -0.5232  0.4017
10554TIP3    H253078   0.503   4.112   2.128  0.1668 -1.1868 -0.0290
10555TIP3   OH253079   5.564   3.972   4.314  0.1999 -0.2397 -0.0476
10555TIP3    H153080   5.539   3.912   4.384  2.6543 -0.6664  0.5279
10555TIP3    H253081   5.660   3.972   4.316  0.2846  3.0881 -0.5716
10556TIP3   OH253082   6.291   6.248  13.920 -0.4263  0.0806  0.5122
10556TIP3    H153083   6.310   6.258  13.827 -2.7083 -1.5282 -0.1585
10556TIP3    H253084   6.207   6.293  13.932 -0.7898 -0.8594  1.5134
10557TIP3   OH253085   6.381   5.258   4.659 -0.0098  0.5463 -0.0497
10557TIP3    H153086   6.398   5.167   4.633  2.2020  1.0249 -0.4055
10557TIP3    H253087   6.366   5.254   4.753  0.8254 -0.1279  0.0646
10558TIP3   OH253088   4.620   2.169  16.920 -0.3111 -0.6821 -0.2495
10558TIP3    H153089   4.702   2.219  16.923 -0.3561 -0.6532  0.5437
10558TIP3    H253090   4.647   2.078  16.934 -0.3920 -0.7059 -0.2483
10559TIP3   OH253091   4.685   5.846   4.901  0.1820  0.3546  0.2093
10559TIP3    H153092   4.714   5.919   4.846  0.9666  0.4201  0.6889
10559TIP3    H253093   4.700   5.877   4.991 -0.9279  0.1925  0.4595
10560TIP3   OH253094   4.469   5.280  12.570  0.8497 -0.0193  0.1367
10560TIP3    H153095   4.449   5.191  12.599  3.4046 -1.0979 -1.2553
10560TIP3    H253096   4.494   5.271  12.478  1.2723  2.1309  0.0061
10561TIP3   OH253097   2.161   4.278  17.045  0.3128  0.2385 -0.4745
10561TIP3    H153098   2.199   4.363  17.021  3.4244  0.2449  3.9239
10561TIP3    H253099   2.221   4.214  17.007 -1.5295 -0.0324 -3.0060
10562TIP3   OH253100   4.709   4.954   0.949 -0.5310  0.1997 -0.2314
10562TIP3    H153101   4.702   4.956   0.854 -2.9471 -1.1964 -0.1213
10562TIP3    H253102   4.790   4.905   0.966 -1.1107 -1.2570 -1.5686
10563TIP3   OH253103   2.391   1.436   3.971  0.4205  0.3610  0.1454
10563TIP3    H153104   2.437   1.482   3.901 -0.0063 -0.0046 -0.3825
10563TIP3    H253105   2.458   1.380   4.012  0.5084  0.0286 -0.4492
10564TIP3   OH253106   6.120   5.191   2.178 -0.1603  0.1113 -0.6519
10564TIP3    H153107   6.053   5.146   2.128 -1.1942  1.8094 -0.8535
10564TIP3    H253108   6.079   5.274   2.203  0.1122 -0.9011  3.4950
10565TIP3   OH253109   2.424   1.789  12.168 -0.0083 -0.7419 -0.8457
10565TIP3    H153110   2.467   1.866  12.132 -0.7482 -0.2090 -0.5898
10565TIP3    H253111   2.457   1.783  12.258  0.2839 -0.9078 -0.9620
10566TIP3   OH253112   1.528   3.949  10.889  0.9105  0.0463 -0.3702
10566TIP3    H153113   1.565   3.982  10.972 -0.5403 -0.5332  0.5187
10566TIP3    H253114   1.554   3.857  10.886  1.8304  0.3261 -1.0623
10567TIP3   OH253115   1.283   4.168  15.417 -0.7557  0.5477 -0.0374
10567TIP3    H153116   1.276   4.110  15.493  1.0997  1.1310  0.5959
10567TIP3    H253117   1.200   4.215  15.416 -1.4519 -0.6304  0.6683
10568TIP3   OH253118   4.065   2.854   2.743  0.4620 -0.8067 -0.5694
10568TIP3    H153119   3.999   2.793   2.708  0.5582 -2.8736  2.6336
10568TIP3    H253120   4.139   2.847   2.683 -0.2354 -2.4896 -1.2631
10569TIP3   OH253121   0.975   6.140   0.472 -0.0514  0.1932 -0.0605
10569TIP3    H153122   1.054   6.139   0.526 -0.9868  3.7145  1.4812
10569TIP3    H253123   0.908   6.101   0.527  0.3723 -2.0321 -1.0684
10570TIP3   OH253124   2.702   2.761   2.707 -0.2532  0.2994 -0.5821
10570TIP3    H153125   2.712   2.774   2.802  1.3958 -0.3196 -0.6618
10570TIP3    H253126   2.750   2.681   2.689 -3.2183 -1.3195 -1.4751
10571TIP3   OH253127   2.763   6.726   5.659  0.0161  0.1150  0.2940
10571TIP3    H153128   2.827   6.749   5.591 -0.2417  0.4332  0.1582
10571TIP3    H253129   2.681   6.711   5.611 -0.0418 -0.1740  0.4801
10572TIP3   OH253130   5.439   0.212  16.630  0.5997  0.1751 -0.2099
10572TIP3    H153131   5.349   0.178  16.628  0.6203 -0.0591  1.6032
10572TIP3    H253132   5.482   0.171  16.556 -0.1064 -1.7325  0.3944
10573TIP3   OH253133   6.436   3.709   4.626  0.0502  0.3504  0.0408
10573TIP3    H153134   6.519   3.667   4.604  0.1109  0.8675 -0.7368
10573TIP3    H253135   6.380   3.693   4.550 -0.3053  0.6656  0.2330
10574TIP3   OH253136   1.998   1.769   2.658  0.1100 -0.0533  0.2718
10574TIP3    H153137   2.009   1.848   2.606 -1.3582  0.5975  0.9241
10574TIP3    H253138   1.935   1.716   2.610 -0.1542 -0.0912  0.6529
10575TIP3   OH253139   2.350   2.386  15.467 -0.7262  0.2734  0.4048
10575TIP3    H153140   2.273   2.333  15.443  0.5829 -0.7527 -1.6530
10575TIP3    H253141   2.337   2.406  15.560 -3.0030 -0.6972  0.3345
10576TIP3   OH253142   1.414   6.203  16.519  0.1367 -0.4304  0.0341
10576TIP3    H153143   1.477   6.236  16.455 -0.8596 -0.4220 -0.9575
10576TIP3    H253144   1.432   6.253  16.599  0.5211  0.4926 -0.6247
10577TIP3   OH253145   3.264   4.552   4.712 -0.5481 -0.1003 -0.4300
10577TIP3    H153146   3.268   4.571   4.806 -2.9333  0.7173 -0.4784
10577TIP3    H253147   3.171   4.550   4.692 -0.1221 -2.5438 -2.3405
10578TIP3   OH253148   0.662   6.029  11.875  0.0846 -0.5644 -0.2364
10578TIP3    H153149   0.749   5.991  11.859  1.1138  1.6656 -0.1670
10578TIP3    H253150   0.649   6.090  11.802 -1.7196 -1.3300 -0.5825
10579TIP3   OH253151   2.838   4.258   5.115 -0.4077  0.5779  0.2657
10579TIP3    H153152   2.867   4.172   5.145 -0.3350  0.7384  0.6575
10579TIP3    H253153   2.906   4.285   5.053 -0.9848 -0.1147 -0.6934
10580TIP3   OH253154   4.818   4.605   4.024  0.4119 -0.0737  0.2183
10580TIP3    H153155   4.728   4.573   4.034 -0.4280  2.7285  2.7807
10580TIP3    H253156   4.822   4.637   3.934 -1.7258  1.1347  0.4887
10581TIP3   OH253157   3.837   0.149  17.117  0.0510  0.1232  0.0218
10581TIP3    H153158   3.842   0.155  17.022  0.2936 -1.3159 -0.0697
10581TIP3    H253159   3.754   0.103  17.133  0.6839 -0.8914  0.4385
10582TIP3   OH253160   0.079   5.691   2.346 -0.1780  0.4181 -0.5332
10582TIP3    H153161   0.066   5.732   2.432 -0.5040 -0.5576 -0.1040
10582TIP3    H253162   0.119   5.606   2.367  0.4244  0.4901 -1.3967
10583TIP3   OH253163   1.414   4.576   2.676 -0.1532  0.2972  0.4364
10583TIP3    H153164   1.469   4.554   2.601 -0.6250  2.7822 -0.7017
10583TIP3    H253165   1.469   4.630   2.732 -0.3201 -0.2115  1.1075
10584TIP3   OH253166   4.987   2.349  11.053 -0.3418  0.4390  0.0397
10584TIP3    H153167   4.959   2.273  11.002 -1.0984  0.3776  0.5391
10584TIP3    H253168   5.026   2.408  10.989 -0.9190  0.1823 -0.5522
10585TIP3   OH253169   2.212   0.349  16.468  0.2501 -0.7277 -0.3311
10585TIP3    H153170   2.142   0.413  16.474  1.0946  0.4317 -2.2216
10585TIP3    H253171   2.261   0.375  16.390  2.2785 -2.0062  0.4809
10586TIP3   OH253172   1.091   3.756  11.483 -0.1856 -0.4526  0.6968
10586TIP3    H153173   1.037   3.799  11.417  0.9282 -0.3570 -0.1510
10586TIP3    H253174   1.074   3.806  11.563  0.2391  0.8650 -0.0207
10587TIP3   OH253175   6.412   3.795  10.507  0.5310  0.4958 -0.2400
10587TIP3    H153176   6.367   3.738  10.446 -2.6811  0.9955  1.5436
10587TIP3    H253177   6.462   3.736  10.563  0.4510 -0.2385 -0.9460
10588TIP3   OH253178   1.501   0.872   4.797  0.2690  0.6673  0.2410
10588TIP3    H153179   1.564   0.801   4.789 -1.0810 -0.5453  0.1376
10588TIP3    H253180   1.494   0.887   4.892 -1.0888 -0.8735  0.4094
10589TIP3   OH253181   5.196   4.860  15.520 -0.0105 -0.0142 -0.2714
10589TIP3    H153182   5.176   4.767  15.532  1.9950 -0.3722  0.6050
10589TIP3    H253183   5.135   4.905  15.577 -1.6852 -0.7105 -1.4603
10590TIP3   OH253184   0.205   1.817  13.593  0.2367  0.0053  0.6452
10590TIP3    H153185   0.207   1.758  13.668 -0.1824  0.7830  1.2841
10590TIP3    H253186   0.113   1.842  13.584  0.1843 -0.5928 -0.5454
10591TIP3   OH253187   0.955   3.099   3.662  0.4653  0.3994 -0.6256
10591TIP3    H153188   1.041   3.067   3.632  0.3591  0.7573 -1.3351
10591TIP3    H253189   0.920   3.146   3.586  0.6088  2.2027  0.3942
10592TIP3   OH253190   2.623   0.445  14.274 -0.1723  0.3026  0.4904
10592TIP3    H153191   2.585   0.475  14.356 -1.6768 -2.1610  0.7547
10592TIP3    H253192   2.692   0.384  14.299 -0.0237  0.2309 -0.0730
10593TIP3   OH253193   4.087   0.906   4.162 -0.1122  0.0788 -0.4426
10593TIP3    H153194   4.130   0.873   4.241 -1.5151 -1.8755 -0.4644
10593TIP3    H253195   4.102   0.838   4.096 -1.1522  0.5209 -1.1427
10594TIP3   OH253196   2.825   4.134   5.481  0.0276 -0.2210  0.1219
10594TIP3    H153197   2.837   4.117   5.388 -0.7125  3.7153 -0.7815
10594TIP3    H253198   2.896   4.193   5.504 -1.0470  0.5835  1.4850
10595TIP3   OH253199   0.234   1.358  10.674  0.2195  0.1120  0.3475
10595TIP3    H153200   0.184   1.345  10.593 -1.0972  1.6353  0.8987
10595TIP3    H253201   0.274   1.444  10.664 -0.2344  0.4566  1.4661
10596TIP3   OH253202   4.886   4.561   2.180  0.0166  0.0339 -0.4741
10596TIP3    H153203   4.930   4.481   2.208  1.3684  0.8759 -0.1682
10596TIP3    H253204   4.795   4.547   2.205  0.2975 -1.2556 -0.0978
10597TIP3   OH253205   0.260   3.594   2.779  0.5355  0.3120 -0.0831
10597TIP3    H153206   0.342   3.610   2.826  1.1990 -1.2276 -0.6438
10597TIP3    H253207   0.288   3.558   2.694 -0.7211 -2.3649  0.5600
10598TIP3   OH253208   1.380   0.506   1.015 -0.2853 -0.5954 -0.5160
10598TIP3    H153209   1.299   0.555   1.033 -0.3866 -0.7312 -0.5961
10598TIP3    H253210   1.437   0.569   0.970  0.5946  0.2341  1.7001
10599TIP3   OH253211   6.186   1.319  14.586 -0.6446 -0.5717  0.8235
10599TIP3    H153212   6.229   1.399  14.617 -1.4907  0.2973 -0.2059
10599TIP3    H253213   6.248   1.249  14.605  0.8361  0.5502  0.2035
10600TIP3   OH253214   4.987   0.878   1.266  0.6630 -0.4519 -0.7940
10600TIP3    H153215   4.904   0.898   1.222  1.1842  0.8039 -1.2400
10600TIP3    H253216   4.982   0.925   1.349  0.6623 -0.9076 -0.5345
10601TIP3   OH253217   1.053   5.205  12.611  0.2967  0.5801  0.4996
10601TIP3    H153218   1.110   5.187  12.686  1.2716  3.3097  0.4801
10601TIP3    H253219   1.110   5.247  12.547 -1.3207  1.6214 -0.2929
10602TIP3   OH253220   4.713   4.133   6.318 -0.4294  0.0693 -0.1846
10602TIP3    H153221   4.753   4.046   6.324  0.5280  0.4839 -0.5438
10602TIP3    H253222   4.774   4.184   6.266 -0.6663  1.1481  0.5773
10603TIP3   OH253223   3.131   1.759  13.411  0.3034 -0.0519 -0.0884
10603TIP3    H153224   3.093   1.753  13.498  0.4421 -1.3001 -0.1106
10603TIP3    H253225   3.072   1.818  13.363 -0.6621 -0.6327  0.3761
10604TIP3   OH253226   6.772   3.654  15.903  0.2369 -0.1486 -0.2317
10604TIP3    H153227   6.755   3.681  15.813 -1.8043 -0.3007  0.0787
10604TIP3    H253228   6.758   3.559  15.903  1.2860 -0.3037  0.0111
10605TIP3   OH253229   0.022   0.444  13.974  0.8900  0.1361 -0.2543
10605TIP3    H153230   0.026   0.399  14.059  0.8165 -0.6520 -0.6658
10605TIP3    H253231  -0.066   0.482  13.972  1.2718  1.0596  0.4797
10606TIP3   OH253232   5.011   1.499   3.646  0.7031  0.0883 -0.0207
10606TIP3    H153233   4.969   1.574   3.687  1.4836 -0.4569  1.8747
10606TIP3    H253234   4.939   1.441   3.621  0.1885  0.5639  0.3539
10607TIP3   OH253235   6.219   5.962   4.802 -0.6820  0.3052  0.3538
10607TIP3    H153236   6.129   5.988   4.781 -0.7427 -0.6679 -0.6301
10607TIP3    H253237   6.263   6.044   4.822 -1.4630  0.9289 -0.4175
10608TIP3   OH253238   2.399   5.956   0.446  0.6949 -0.5427  0.2963
10608TIP3    H153239   2.436   6.044   0.443  0.0793 -0.2613  0.8926
10608TIP3    H253240   2.474   5.898   0.434  1.0496  0.0729 -0.4400
10609TIP3   OH253241   5.691   2.554   5.124 -0.3611 -0.3279 -0.1427
10609TIP3    H153242   5.670   2.497   5.198  0.6952 -1.5197 -0.7442
10609TIP3    H253243   5.776   2.524   5.093 -0.2520  0.9166 -1.1263
10610TIP3   OH253244   6.326   2.387  13.167 -0.6467 -0.1824  0.5018
10610TIP3    H153245   6.292   2.303  13.135 -1.9165  0.1760  0.8678
10610TIP3    H253246   6.294   2.451  13.103 -0.6542  0.1663  0.8557
10611TIP3   OH253247   4.784   3.886  11.034 -0.1561  0.3024 -0.1111
10611TIP3    H153248   4.875   3.890  11.062 -0.1215 -1.9207  0.1714
10611TIP3    H253249   4.748   3.810  11.079 -1.7165  0.2146 -1.4620
10612TIP3   OH253250   4.654   2.435  16.341  0.4767 -0.2459  0.2600
10612TIP3    H153251   4.602   2.389  16.276 -0.1350  1.5064 -0.5022
10612TIP3    H253252   4.618   2.405  16.425 -2.5927  1.7591 -0.2335
10613TIP3   OH253253   5.565   4.947  16.804 -0.9146  0.8276 -0.1123
10613TIP3    H153254   5.526   5.027  16.840  0.6236  1.1325  0.9427
10613TIP3    H253255   5.494   4.884  16.802 -2.0220  2.0635 -0.4343
10614TIP3   OH253256   1.571   0.187   0.227 -0.3611 -0.1714 -0.0904
10614TIP3    H153257   1.637   0.247   0.262 -1.1967  0.7161 -0.0105
10614TIP3    H253258   1.509   0.244   0.181 -1.1370 -0.9819 -0.0527
10615TIP3   OH253259   4.046   5.595  15.698  0.3762 -0.1922  0.8295
10615TIP3    H153260   3.955   5.567  15.698  1.4706 -4.1182 -0.1745
10615TIP3    H253261   4.073   5.591  15.790 -0.4840  1.0825  1.1377
10616TIP3   OH253262   5.890   3.325  12.654 -0.2182  0.5460 -0.2736
10616TIP3    H153263   5.922   3.262  12.589 -0.0974  1.5228 -1.1793
10616TIP3    H253264   5.905   3.282  12.738  0.6190 -0.2981 -0.8393
10617TIP3   OH253265   5.804   3.633   0.674  0.3477 -0.6865 -0.2482
10617TIP3    H153266   5.868   3.582   0.724  0.4006 -0.2381  0.1379
10617TIP3    H253267   5.730   3.643   0.733  0.0956 -0.8203 -0.5380
10618TIP3   OH253268   5.018   3.700  17.135 -0.6010  0.3167 -0.8466
10618TIP3    H153269   5.040   3.631  17.072 -0.1151 -0.8946  0.6197
10618TIP3    H253270   5.095   3.757  17.135  0.4204 -1.0103  0.3857
10619TIP3   OH253271   5.169   4.421  15.035 -0.3375 -0.3592 -0.2173
10619TIP3    H153272   5.211   4.506  15.024  0.4411 -0.7170 -0.0571
10619TIP3    H253273   5.189   4.396  15.125 -1.5095 -0.2111  0.0967
10620TIP3   OH253274   1.255   5.344  16.657 -0.3168  0.1702  0.0515
10620TIP3    H153275   1.164   5.374  16.669  0.2371  1.5392  0.9665
10620TIP3    H253276   1.258   5.260  16.702 -0.5856  1.1455  1.9983
10621TIP3   OH253277   2.398   4.154  10.707 -0.0742 -0.4624 -0.2931
10621TIP3    H153278   2.401   4.077  10.765  0.0710 -2.7058 -3.1551
10621TIP3    H253279   2.490   4.172  10.687  0.0463  1.9645  2.1899
10622TIP3   OH253280   2.679   5.597  14.595 -0.5014  0.2970 -0.3427
10622TIP3    H153281   2.590   5.612  14.626 -0.6762  1.7389 -1.4713
10622TIP3    H253282   2.733   5.657  14.647 -0.0850 -1.0360  0.7914
10623TIP3   OH253283   0.807   6.284  11.882  0.2883  0.0468 -0.5288
10623TIP3    H153284   0.712   6.276  11.870  0.3423  0.3758 -1.1920
10623TIP3    H253285   0.831   6.208  11.935 -0.6219  0.9058  1.1831
10624TIP3   OH253286   0.061   1.279  16.681  0.3107 -0.7631 -0.0736
10624TIP3    H153287   0.099   1.361  16.650 -0.4610 -0.2334  0.3669
10624TIP3    H253288   0.090   1.271  16.772  1.0265 -1.3776 -0.3464
10625TIP3   OH253289   3.934   0.955  16.359 -0.0323 -0.2209  0.1229
10625TIP3    H153290   3.891   1.010  16.425 -0.9711 -0.9301  0.1190
10625TIP3    H253291   4.027   0.961  16.379 -0.2193  0.4883  0.8019
10626TIP3   OH253292   2.909   1.179   0.007 -0.0929  0.1265  1.3058
10626TIP3    H153293   2.818   1.209   0.014 -0.1625  0.2578 -0.1695
10626TIP3    H253294   2.933   1.158   0.098 -0.7852  2.4602  2.0772
10627TIP3   OH253295   5.594   0.217   2.535 -0.2661  0.1908  0.1948
10627TIP3    H153296   5.609   0.148   2.471  1.5801  0.1768  0.6204
10627TIP3    H253297   5.680   0.253   2.553 -1.0064  1.5234  1.1993
10628TIP3   OH253298   3.782   4.615   3.211  0.1495  0.5699  0.2366
10628TIP3    H153299   3.705   4.576   3.253 -1.1899  1.0867 -1.6891
10628TIP3    H253300   3.845   4.625   3.282 -0.5494 -2.3604  1.3685
10629TIP3   OH253301   4.553   4.362   0.739 -0.5123 -0.4554  0.1139
10629TIP3    H153302   4.639   4.403   0.729 -0.3789 -0.6213  0.6011
10629TIP3    H253303   4.491   4.431   0.718 -0.2531 -0.4313 -0.5942
10630TIP3   OH253304   5.715   6.636   3.200  0.3557  0.2428  0.0067
10630TIP3    H153305   5.692   6.711   3.255 -2.5248 -1.2991  0.9811
10630TIP3    H253306   5.670   6.652   3.117  2.1421  1.0049 -0.8441
10631TIP3   OH253307   6.527   2.884   0.612  0.1221 -0.5692 -0.2522
10631TIP3    H153308   6.605   2.841   0.575  0.4599 -1.2758  1.2228
10631TIP3    H253309   6.501   2.826   0.683 -1.2474  0.1334 -0.1856
10632TIP3   OH253310   1.183   1.018  13.438  0.1701 -0.1024  0.6201
10632TIP3    H153311   1.210   0.952  13.501  0.3837 -0.4159  0.2037
10632TIP3    H253312   1.253   1.084  13.440  0.1449 -0.0818  0.7602
10633TIP3   OH253313   2.568   4.438   5.574 -0.6891 -0.1103  0.0135
10633TIP3    H153314   2.640   4.427   5.511 -0.9637 -1.7068 -0.0404
10633TIP3    H253315   2.537   4.528   5.559 -0.2711 -0.2184 -1.6118
10634TIP3   OH253316   2.284   2.645   2.001 -0.3101 -0.0888 -0.4822
10634TIP3    H153317   2.342   2.716   1.974 -0.9337  1.8207  2.8962
10634TIP3    H253318   2.344   2.575   2.029  0.3703  0.7628  0.2424
10635TIP3   OH253319   5.655   3.416  12.472  0.1635 -0.4645  0.1595
10635TIP3    H153320   5.659   3.335  12.521  2.3855 -0.7607 -0.4601
10635TIP3    H253321   5.665   3.485  12.537  0.3849 -0.7595  0.4371
10636TIP3   OH253322   2.033   0.639  11.588  0.0114  0.4939 -0.2105
10636TIP3    H153323   1.990   0.606  11.509 -0.6422 -0.3543  0.4944
10636TIP3    H253324   2.105   0.693  11.555 -1.7950  2.2021 -1.3811
10637TIP3   OH253325   0.020   4.938  14.673 -0.0053 -0.1277 -0.6019
10637TIP3    H153326  -0.028   4.856  14.656 -1.2745  0.6396 -0.7619
10637TIP3    H253327  -0.024   4.977  14.747  0.1106  0.8072 -1.0239
10638TIP3   OH253328   2.899   4.447   3.782 -0.0541 -0.3244 -0.6361
10638TIP3    H153329   2.950   4.409   3.711 -1.7138 -2.0582 -0.9442
10638TIP3    H253330   2.808   4.444   3.752 -0.6102  0.5065  0.8624
10639TIP3   OH253331   5.778   0.884  16.199 -0.0776  0.4889 -0.0180
10639TIP3    H153332   5.686   0.863  16.181  0.3381 -0.4470 -1.1771
10639TIP3    H253333   5.817   0.897  16.112  0.2050  4.0417  0.5801
10640TIP3   OH253334   4.408   6.443  15.603 -0.4056  0.1792  0.1040
10640TIP3    H153335   4.334   6.484  15.558  0.8909  1.3166 -1.0494
10640TIP3    H253336   4.409   6.483  15.690 -1.8129 -0.6748  0.5282
10641TIP3   OH253337   5.305   4.337  11.433  1.0904  0.1539  0.0533
10641TIP3    H153338   5.388   4.380  11.412  0.8145  0.7487  0.1600
10641TIP3    H253339   5.304   4.259  11.378  0.8503  1.1478 -1.3771
10642TIP3   OH253340   5.185   2.630   2.849 -0.0660  0.0592 -0.4914
10642TIP3    H153341   5.181   2.684   2.928 -1.4545 -0.8567  0.0841
10642TIP3    H253342   5.275   2.599   2.846  0.0176  0.1583  0.7020
10643TIP3   OH253343   2.998   0.180   4.943  0.2723  0.6834 -0.5133
10643TIP3    H153344   2.949   0.249   4.987 -1.0104 -1.0589  0.8462
10643TIP3    H253345   3.065   0.154   5.005 -0.5753 -0.7305 -0.1775
10644TIP3   OH253346   4.387   3.291  13.448 -0.4854 -0.5210  0.4881
10644TIP3    H153347   4.464   3.334  13.411 -1.3458 -0.0176 -0.7923
10644TIP3    H253348   4.361   3.228  13.381 -2.1301  0.4558  0.1706
10645TIP3   OH253349   2.701   3.667  16.210 -0.0520 -0.3093 -0.1517
10645TIP3    H153350   2.654   3.749  16.198 -1.0937 -0.8314  0.3313
10645TIP3    H253351   2.675   3.613  16.135 -0.4214 -0.7023  0.2677
10646TIP3   OH253352   1.742   0.583  16.835  0.8078 -0.3869  0.2500
10646TIP3    H153353   1.663   0.561  16.785  1.3264 -0.0861 -0.7182
10646TIP3    H253354   1.712   0.644  16.902  0.1525 -0.5539  0.1154
10647TIP3   OH253355   1.867   4.341   5.369 -0.1704 -0.0693  0.5326
10647TIP3    H153356   1.818   4.259   5.372 -1.6897  0.7880 -0.3050
10647TIP3    H253357   1.955   4.316   5.339 -0.6149 -1.3757  0.3059
10648TIP3   OH253358   0.366   0.024  12.854  0.4587 -0.2471 -0.3525
10648TIP3    H153359   0.420  -0.043  12.813  0.9448  0.8291 -1.5341
10648TIP3    H253360   0.297   0.041  12.789  0.5172  0.6047 -0.1938
10649TIP3   OH253361   0.573   3.093  16.812  0.1085 -0.6320 -0.1182
10649TIP3    H153362   0.500   3.143  16.776  0.3559  0.2276  0.5415
10649TIP3    H253363   0.624   3.066  16.735  1.2243  2.1101 -0.4088
10650TIP3   OH253364   3.406   1.803   4.092 -0.4383  0.3149 -0.4132
10650TIP3    H153365   3.405   1.782   3.999  2.2546 -4.1953  0.4322
10650TIP3    H253366   3.490   1.847   4.106  0.7856 -2.1797  0.3982
10651TIP3   OH253367   2.649   4.821   4.009  0.3486 -0.1986 -0.5364
10651TIP3    H153368   2.606   4.845   3.926 -0.0450 -0.5671 -0.4389
10651TIP3    H253369   2.674   4.905   4.047 -0.0439  0.0095 -0.7253
10652TIP3   OH253370   0.418   3.557  11.327  0.0743 -0.1257 -0.0138
10652TIP3    H153371   0.462   3.543  11.411  1.0637 -1.0795 -0.6747
10652TIP3    H253372   0.345   3.495  11.329  1.0642 -1.3423 -0.5229
10653TIP3   OH253373   4.863   3.900   4.975 -0.2331  0.3499 -0.0060
10653TIP3    H153374   4.878   3.947   5.058 -0.1491  1.1797 -0.4894
10653TIP3    H253375   4.781   3.853   4.989  0.5608 -0.7587  1.1100
10654TIP3   OH253376   2.291   1.210  10.502 -0.1390  1.2377 -0.9234
10654TIP3    H153377   2.278   1.134  10.445 -1.9307  2.1283 -1.7708
10654TIP3    H253378   2.381   1.201  10.534  0.4025 -0.0902 -2.7088
10655TIP3   OH253379   1.026   5.647  13.721  0.1344 -0.5433  0.1197
10655TIP3    H153380   1.088   5.601  13.664  1.6702  3.1602 -1.3089
10655TIP3    H253381   0.947   5.655  13.668  0.2449 -0.5150 -0.0432
10656TIP3   OH253382   6.478   5.192  13.785  0.3684 -0.0870  0.8673
10656TIP3    H153383   6.392   5.176  13.745  0.0162 -0.5345  1.7967
10656TIP3    H253384   6.511   5.105  13.807  1.5630 -0.0049 -0.4914
10657TIP3   OH253385   2.015   1.878  16.135 -0.0492  0.2202 -0.0000
10657TIP3    H153386   2.093   1.824  16.126 -0.9969 -1.3649  1.1284
10657TIP3    H253387   1.946   1.817  16.162 -1.1264  1.9799  1.3358
10658TIP3   OH253388   2.403   4.074   4.081 -0.1290  0.0133  0.2026
10658TIP3    H153389   2.464   4.003   4.101 -2.1507 -1.7166  0.3988
10658TIP3    H253390   2.359   4.046   4.001  0.7155  2.1884 -1.0740
10659TIP3   OH253391   1.422   4.114  12.783 -0.1933  0.2852 -0.1156
10659TIP3    H153392   1.487   4.154  12.725  0.4499 -0.3255  0.1765
10659TIP3    H253393   1.464   4.033  12.813 -1.9780 -1.3226 -1.7920
10660TIP3   OH253394   2.742   6.764  16.953 -0.2958 -0.8377 -0.1233
10660TIP3    H153395   2.689   6.832  16.994  1.4779  0.3504  0.2680
10660TIP3    H253396   2.797   6.730  17.024  0.2911 -1.2174 -0.7455
10661TIP3   OH253397   2.278   2.569  14.375 -0.0015 -0.4385 -1.0997
10661TIP3    H153398   2.309   2.480  14.396  0.4975 -0.2516 -1.0437
10661TIP3    H253399   2.356   2.616  14.349 -0.1244  0.2305 -0.2928
10662TIP3   OH253400   6.196   1.736   0.704  0.4002 -0.5357  0.0130
10662TIP3    H153401   6.253   1.662   0.723  0.3760 -1.1887 -2.3369
10662TIP3    H253402   6.253   1.802   0.666  0.5023  0.8685  2.5057
10663TIP3   OH253403   1.628   6.581   3.693 -0.5992  0.2104  0.3017
10663TIP3    H153404   1.676   6.538   3.623 -0.9667 -2.9624  1.9289
10663TIP3    H253405   1.591   6.510   3.745 -2.5634  2.5169  2.1915
10664TIP3   OH253406   2.829   5.588  13.310 -0.4616 -0.1578  0.1747
10664TIP3    H153407   2.749   5.640  13.310  0.0261  0.6193  1.4567
10664TIP3    H253408   2.805   5.507  13.355 -0.8340 -0.4212 -0.4968
10665TIP3   OH253409   2.493   2.805  15.261 -0.3370 -0.0195  0.2188
10665TIP3    H153410   2.500   2.736  15.327 -1.0863  0.3453  0.6854
10665TIP3    H253411   2.466   2.882  15.310 -2.7283 -0.1801 -0.7745
10666TIP3   OH253412   3.733   3.592   4.658 -0.3989  0.8528  0.0740
10666TIP3    H153413   3.802   3.534   4.627  0.7753  2.0348  0.3988
10666TIP3    H253414   3.737   3.585   4.754  0.0266  1.7744  0.1275
10667TIP3   OH253415   2.972   4.929   2.742  0.1732  0.0218  0.0135
10667TIP3    H153416   2.923   4.862   2.788 -1.2297 -0.3976 -2.0543
10667TIP3    H253417   3.064   4.901   2.750 -0.1329 -0.6196  1.5421
10668TIP3   OH253418   3.182   3.311  14.173 -0.4543  0.5221  0.6541
10668TIP3    H153419   3.160   3.253  14.246 -0.5343 -0.7079 -0.3313
10668TIP3    H253420   3.277   3.310  14.170 -0.4966 -1.7699 -1.0778
10669TIP3   OH253421   2.593   0.059   2.519 -0.0392  0.1511  0.7019
10669TIP3    H153422   2.521   0.027   2.465  0.1683  0.2051  0.3888
10669TIP3    H253423   2.664   0.076   2.457 -0.4710  2.1583  0.7227
10670TIP3   OH253424   1.819   0.786  15.092 -0.6234 -0.5096  0.2470
10670TIP3    H153425   1.765   0.707  15.105 -1.4405  0.3052  2.0317
10670TIP3    H253426   1.866   0.769  15.011 -0.3878 -3.0818  0.8477
10671TIP3   OH253427   4.030   0.592  11.769 -0.4364 -0.2737 -0.2987
10671TIP3    H153428   3.996   0.674  11.806 -0.0617 -0.4441  0.4217
10671TIP3    H253429   3.975   0.524  11.808 -0.0564 -0.4511 -0.0721
10672TIP3   OH253430   5.184   5.950   4.488  0.3535 -0.2881  0.3227
10672TIP3    H153431   5.216   5.994   4.409 -0.8708 -0.5264 -0.3166
10672TIP3    H253432   5.119   5.888   4.456 -0.0464 -0.4967  1.5143
10673TIP3   OH253433   0.874   4.679   2.589  0.0813  0.1594 -0.6450
10673TIP3    H153434   0.908   4.624   2.519 -0.9493 -2.4140  0.8100
10673TIP3    H253435   0.780   4.661   2.590 -0.2433  1.7763  0.0280
10674TIP3   OH253436   2.985   2.824   5.315  0.6042  0.3116 -0.3161
10674TIP3    H153437   3.059   2.765   5.303  0.0812 -0.2577 -0.7820
10674TIP3    H253438   2.945   2.829   5.228 -1.0546 -0.9212  0.3667
10675TIP3   OH253439   4.613   0.336  16.053 -0.7801 -0.1513 -0.4548
10675TIP3    H153440   4.683   0.398  16.034 -0.0587  0.4794  3.7319
10675TIP3    H253441   4.653   0.250  16.045  0.3088  0.1839  1.0911
10676TIP3   OH253442   6.224   1.528   4.327  0.5242  0.0245 -0.6380
10676TIP3    H153443   6.159   1.598   4.323  0.4509 -0.0020 -0.0038
10676TIP3    H253444   6.172   1.449   4.346  0.8683  0.2001  1.0633
10677TIP3   OH253445   5.475   3.300   5.995 -0.2617 -0.1972  0.1570
10677TIP3    H153446   5.497   3.312   6.087 -0.6739  0.0469  0.2243
10677TIP3    H253447   5.409   3.231   5.994  2.6051 -3.0246 -0.2871
10678TIP3   OH253448   1.162   0.736   1.595  0.1599 -0.4441  0.1256
10678TIP3    H153449   1.134   0.808   1.651  1.6456  0.0032  0.3302
10678TIP3    H253450   1.174   0.777   1.509 -0.5050 -0.7814 -0.1311
10679TIP3   OH253451   6.776   5.206  14.273 -0.4308  0.3586 -0.1732
10679TIP3    H153452   6.755   5.260  14.196 -0.3896 -0.4855 -0.7885
10679TIP3    H253453   6.871   5.211  14.281 -0.4932  0.9351  0.1836
10680TIP3   OH253454   4.432   2.091   0.925 -0.2683 -0.8129  0.2402
10680TIP3    H153455   4.498   2.125   0.865 -0.7611  1.8606  1.1520
10680TIP3    H253456   4.373   2.041   0.869  0.7652 -0.6004 -1.0765
10681TIP3   OH253457   5.777   3.620   4.770 -0.0641  0.2476  0.2076
10681TIP3    H153458   5.689   3.640   4.802 -1.1013 -1.6555 -1.3807
10681TIP3    H253459   5.832   3.624   4.848 -1.9370 -0.8324  1.6289
10682TIP3   OH253460   2.142   1.697   2.870  0.3014 -0.0733 -0.2937
10682TIP3    H153461   2.203   1.624   2.857 -2.3567 -2.6715  1.3713
10682TIP3    H253462   2.103   1.711   2.783  1.0297 -0.4326 -0.6897
10683TIP3   OH253463   5.347   0.099   2.208  0.0016 -0.0029 -0.0987
10683TIP3    H153464   5.326   0.006   2.203  0.2995  0.0126 -1.6949
10683TIP3    H253465   5.408   0.115   2.137  0.7140  1.2276  0.7525
10684TIP3   OH253466   5.710   3.659   4.356 -0.6568  0.1312  0.1852
10684TIP3    H153467   5.792   3.614   4.339 -0.1661  1.4407 -1.0026
10684TIP3    H253468   5.734   3.736   4.407 -1.3565 -0.3603  1.2803
10685TIP3   OH253469   4.748   2.927  11.387 -0.2499 -0.1860  0.0350
10685TIP3    H153470   4.722   2.868  11.458  1.1927 -2.1638 -1.0437
10685TIP3    H253471   4.756   2.870  11.310  0.0415  1.6144 -1.2937
10686TIP3   OH253472   2.786   3.199  11.766 -0.0309 -0.1254 -0.0222
10686TIP3    H153473   2.785   3.210  11.861  0.5143  0.3196 -0.0688
10686TIP3    H253474   2.778   3.287  11.731  0.7910 -0.1903 -0.3849
10687TIP3   OH253475   1.916   0.060  13.920  0.6467 -0.2748 -0.3587
10687TIP3    H153476   1.930   0.024  14.007  0.9594 -0.6806 -0.5767
10687TIP3    H253477   1.984   0.126  13.909 -0.4729  1.0196  0.3858
10688TIP3   OH253478   3.055   2.478   6.197  0.6940  0.2629  0.0704
10688TIP3    H153479   3.112   2.484   6.121 -1.3051 -1.1408 -1.6215
10688TIP3    H253480   3.006   2.561   6.198 -0.0835 -0.1720 -0.8784
10689TIP3   OH253481   0.453   5.782   0.268  0.4742  0.0424  0.1272
10689TIP3    H153482   0.429   5.749   0.355  0.1730 -0.6175 -0.2053
10689TIP3    H253483   0.377   5.834   0.241 -0.3575 -1.5351 -0.6590
10690TIP3   OH253484   2.642   5.205   1.401 -0.4112  0.2050  0.4741
10690TIP3    H153485   2.588   5.154   1.340  1.3583 -0.4371 -0.6027
10690TIP3    H253486   2.585   5.220   1.476 -1.9828 -0.7316 -0.4923
10691TIP3   OH253487   0.454   4.234  16.639  0.2762 -0.4281  0.3229
10691TIP3    H153488   0.532   4.269  16.681  0.7147 -1.0491  0.0337
10691TIP3    H253489   0.401   4.200  16.711 -0.9122  2.2516  0.7924
10692TIP3   OH253490   5.531   3.280   3.344  0.3647 -0.0188 -0.0168
10692TIP3    H153491   5.467   3.210   3.357  0.6048 -0.1182  0.7091
10692TIP3    H253492   5.487   3.343   3.287 -1.1692  0.9109  2.1223
10693TIP3   OH253493   4.143   2.917   5.053 -0.0113 -0.6067  0.2936
10693TIP3    H153494   4.161   2.941   4.962 -0.1695  0.5882  0.5790
10693TIP3    H253495   4.217   2.862   5.078  0.2078 -0.6525 -0.4431
10694TIP3   OH253496   5.119   0.244   2.235 -0.3592 -0.0588  0.2529
10694TIP3    H153497   5.210   0.215   2.229  0.4785  2.5835 -0.8746
10694TIP3    H253498   5.080   0.190   2.303  1.6185 -2.3280 -0.3685
10695TIP3   OH253499   2.416   6.103   1.028  0.5164  0.1673  0.3030
10695TIP3    H153500   2.401   6.110   0.934  2.3326 -1.1028 -0.1154
10695TIP3    H253501   2.344   6.047   1.059 -0.1473  0.6695 -0.3039
10696TIP3   OH253502   3.646   5.226   2.687 -0.1875 -0.5699 -0.0791
10696TIP3    H153503   3.551   5.221   2.684 -0.1881 -0.1667 -1.1545
10696TIP3    H253504   3.670   5.182   2.768 -1.2956 -0.5733  0.2597
10697TIP3   OH253505   5.107   0.445   2.507  0.2791 -0.0985  0.2854
10697TIP3    H153506   5.178   0.472   2.449 -0.2913  0.9832  0.0729
10697TIP3    H253507   5.115   0.350   2.512  0.8049 -0.1306 -0.9422
10698TIP3   OH253508   1.541   4.837   4.534  0.0258  0.3396  0.0218
10698TIP3    H153509   1.458   4.807   4.570  0.0388 -0.5555 -0.6942
10698TIP3    H253510   1.523   4.926   4.503 -0.6414  0.1756 -0.0637
10699TIP3   OH253511   6.694   5.564  11.953 -0.3054  0.0644  0.5725
10699TIP3    H153512   6.688   5.595  12.044 -3.2040 -1.0146  0.7969
10699TIP3    H253513   6.693   5.644  11.901 -0.7537  0.6258  1.4155
10700TIP3   OH253514   1.222   2.047  13.862 -0.2061 -0.0481  0.2079
10700TIP3    H153515   1.135   2.025  13.894 -0.8433 -0.4591 -1.7695
10700TIP3    H253516   1.236   1.990  13.787  1.8409 -0.0954  0.5974
10701TIP3   OH253517   0.521   0.522  16.274 -0.5216  0.3774 -0.5407
10701TIP3    H153518   0.454   0.465  16.236  0.7468  0.1755 -2.5576
10701TIP3    H253519   0.536   0.485  16.361 -1.8703 -0.5482 -0.6841
10702TIP3   OH253520   5.346   3.327  12.126 -0.0776 -0.0741  0.0672
10702TIP3    H153521   5.423   3.285  12.164 -0.0433 -0.5913 -0.5644
10702TIP3    H253522   5.324   3.272  12.051 -1.5638 -0.4110  0.7387
10703TIP3   OH253523   3.800   0.281  16.334  0.1796 -0.2443 -0.2272
10703TIP3    H153524   3.845   0.203  16.301  1.1789 -0.3625  1.3976
10703TIP3    H253525   3.839   0.298  16.420  0.7769  2.7104 -1.0170
10704TIP3   OH253526   4.977   3.992   4.751 -0.2916  0.3031  0.1426
10704TIP3    H153527   4.909   3.994   4.682  0.0964 -0.7528 -0.2758
10704TIP3    H253528   4.937   3.942   4.822  0.0493 -0.3493 -0.1169
10705TIP3   OH253529   5.881   5.254   0.911 -0.3688  0.0375 -0.3561
10705TIP3    H153530   5.955   5.307   0.943 -1.2680  2.0221 -1.4804
10705TIP3    H253531   5.914   5.213   0.831  0.0556 -0.4156  0.0501
10706TIP3   OH253532   0.861   4.479  13.765 -0.6093  0.2094  0.0194
10706TIP3    H153533   0.781   4.442  13.805 -0.8154 -0.7878 -1.2912
10706TIP3    H253534   0.838   4.493  13.674  0.0518  1.9587  0.1140
10707TIP3   OH253535   4.331   5.216   0.139  0.1013  0.8435  0.1254
10707TIP3    H153536   4.385   5.292   0.117  0.5145  0.0703 -1.6144
10707TIP3    H253537   4.241   5.251   0.141  0.4638  1.7297  1.1022
10708TIP3   OH253538   4.903   1.238  14.142 -0.2927  0.3120  0.2272
10708TIP3    H153539   4.855   1.188  14.077  0.9809 -0.9321  0.2027
10708TIP3    H253540   4.936   1.315  14.094  2.4817 -1.6847 -1.2108
10709TIP3   OH253541   2.682   6.276   6.457  0.7319 -0.4599 -0.2466
10709TIP3    H153542   2.647   6.258   6.370 -0.5121  3.6329 -0.6748
10709TIP3    H253543   2.612   6.247   6.517 -0.5838  1.4087 -0.8385
10710TIP3   OH253544   2.257   2.302  12.612  0.4084 -0.4506  0.7776
10710TIP3    H153545   2.319   2.250  12.663  0.0856 -0.2592  1.3607
10710TIP3    H253546   2.312   2.348  12.548  0.9097 -0.0223  1.5107
10711TIP3   OH253547   1.543   0.023  15.342 -0.4678  0.3768  0.2505
10711TIP3    H153548   1.470   0.051  15.286 -0.9305 -0.6473  0.3288
10711TIP3    H253549   1.563   0.099  15.395 -1.1682  0.8192 -0.1129
10712TIP3   OH253550   6.440   0.973  11.386  0.3567 -0.1223  0.3189
10712TIP3    H153551   6.495   0.922  11.445 -0.7399  0.2460  1.6715
10712TIP3    H253552   6.500   1.037  11.347  1.4492 -1.5253 -0.3361
10713TIP3   OH253553   1.722   1.492  17.106 -0.0935 -0.0237  0.5496
10713TIP3    H153554   1.684   1.420  17.056  1.4382 -2.3695  2.6050
10713TIP3    H253555   1.679   1.487  17.192 -0.3524  1.8794  0.5509
10714TIP3   OH253556   1.668   5.688   4.945 -0.6137  0.8195  0.1573
10714TIP3    H153557   1.657   5.764   5.002 -0.6688  0.2070  0.9897
10714TIP3    H253558   1.638   5.614   4.998  2.2538 -0.1841  0.5219
10715TIP3   OH253559   2.240   1.509  14.245  0.4964  0.6087  0.0751
10715TIP3    H153560   2.244   1.422  14.283  0.5556  0.8186  0.5528
10715TIP3    H253561   2.162   1.507  14.189 -1.1814  1.1454  2.3442
10716TIP3   OH253562   4.733   3.313   5.126 -0.5810  0.1182  0.4137
10716TIP3    H153563   4.784   3.270   5.058 -0.2206 -1.6395  1.7565
10716TIP3    H253564   4.769   3.280   5.208 -1.9732  1.0709  1.4440
10717TIP3   OH253565   4.783   3.166   3.424 -0.6447  0.6862  0.2538
10717TIP3    H153566   4.715   3.162   3.357 -0.6065 -0.8580  0.3012
10717TIP3    H253567   4.859   3.203   3.378 -1.6911  3.0731  0.3771
10718TIP3   OH253568   3.066   5.088  12.010  0.3791 -0.1808 -0.6697
10718TIP3    H153569   3.129   5.022  12.038  1.5735  1.5800  0.8857
10718TIP3    H253570   2.989   5.073  12.064  0.1568 -1.0948 -1.2223
10719TIP3   OH253571   5.692   1.223  14.956 -0.4944  0.6568 -0.2477
10719TIP3    H153572   5.701   1.269  15.039 -0.6499  0.6584 -0.2316
10719TIP3    H253573   5.706   1.131  14.978  0.8008  0.7951 -0.4435
10720TIP3   OH253574   4.499   5.189  12.970  0.0863 -0.2478  0.5873
10720TIP3    H153575   4.461   5.105  12.946  1.7882 -0.6183 -0.8612
10720TIP3    H253576   4.426   5.238  13.009 -0.9116 -2.3583  1.4238
10721TIP3   OH253577   1.940   5.413  13.327  0.4790 -0.0712 -0.1562
10721TIP3    H153578   2.030   5.418  13.360 -0.2708  1.9052  1.6998
10721TIP3    H253579   1.940   5.467  13.248  0.1934  2.6274  1.6394
10722TIP3   OH253580   0.476   1.761   0.488  0.3226  0.0762  0.2207
10722TIP3    H153581   0.461   1.823   0.416 -0.0212  0.4724  0.6217
10722TIP3    H253582   0.514   1.684   0.447 -0.2618  0.1374 -0.4454
10723TIP3   OH253583   2.942   0.451  14.983  0.0346 -0.5839  0.3534
10723TIP3    H153584   3.032   0.482  14.969  1.2076 -2.7053  2.7229
10723TIP3    H253585   2.897   0.527  15.020  0.4977  0.8509 -1.9065
10724TIP3   OH253586   1.232   3.258  14.125 -0.1093  0.1613 -0.6825
10724TIP3    H153587   1.168   3.201  14.167 -0.7897  1.1844 -0.3251
10724TIP3    H253588   1.311   3.250  14.180 -0.5005  0.2862 -0.0980
10725TIP3   OH253589   4.577   3.520   4.753  0.2783  0.2454 -0.5073
10725TIP3    H153590   4.554   3.439   4.799  1.2402  0.1586 -0.1581
10725TIP3    H253591   4.604   3.580   4.823 -0.0309  0.7323 -0.8011
10726TIP3   OH253592   5.341   1.954   3.029  0.3317  0.3467 -0.6834
10726TIP3    H153593   5.424   1.922   3.064  0.7311  1.0274 -0.9948
10726TIP3    H253594   5.281   1.952   3.104 -0.1587 -2.7520 -1.0605
10727TIP3   OH253595   6.556   4.048  11.271 -0.0294  0.3475 -0.2133
10727TIP3    H153596   6.551   3.958  11.303  0.4359  0.9306  1.5567
10727TIP3    H253597   6.635   4.050  11.218 -0.1962 -0.3663 -0.4931
10728TIP3   OH253598   0.763   0.375  15.129 -0.0647 -0.2936 -0.4843
10728TIP3    H153599   0.834   0.344  15.073  1.3839 -1.5997  1.9679
10728TIP3    H253600   0.736   0.298  15.179  1.3836  1.5851  3.3988
10729TIP3   OH253601   4.298   6.184  16.899 -0.2761  0.6262  0.0579
10729TIP3    H153602   4.287   6.099  16.858  3.0362  0.6593 -1.0775
10729TIP3    H253603   4.249   6.244  16.843  0.7820  0.0523 -1.5078
10730TIP3   OH253604   0.980   4.241   2.566 -0.4043  0.3901  0.1176
10730TIP3    H153605   1.052   4.195   2.521  1.2000  1.0226  2.0080
10730TIP3    H253606   0.992   4.333   2.543 -0.4716  0.5274  0.6312
10731TIP3   OH253607   5.964   2.980  14.151  0.4824 -0.3906 -0.0420
10731TIP3    H153608   5.922   2.978  14.237  1.7450 -0.3788  0.5835
10731TIP3    H253609   5.922   3.053  14.106 -1.7668 -1.7616 -0.2695
10732TIP3   OH253610   2.465   2.918   0.007 -0.0129  0.5215 -0.2460
10732TIP3    H153611   2.413   2.952   0.079 -0.5173  0.2097 -0.4565
10732TIP3    H253612   2.555   2.946   0.026 -0.1284  0.3816  0.5342
10733TIP3   OH253613   3.748   0.788  11.159  0.2731  0.1739 -0.1294
10733TIP3    H153614   3.809   0.792  11.085  0.5813  0.7971  0.1551
10733TIP3    H253615   3.666   0.757  11.120 -0.0528  2.1169 -1.0756
10734TIP3   OH253616   0.819   2.553  13.996  0.2483 -0.0367  0.2923
10734TIP3    H153617   0.792   2.481  13.939  0.8656  1.6955 -2.2637
10734TIP3    H253618   0.866   2.510  14.067  0.8385 -2.1622 -1.3238
10735TIP3   OH253619   5.328   1.025  12.273  0.2317  0.0015  0.3728
10735TIP3    H153620   5.274   0.946  12.279 -0.8348  0.6575 -0.3064
10735TIP3    H253621   5.283   1.079  12.209  0.7735  1.3047  1.0768
10736TIP3   OH253622   6.328   0.195   5.798 -0.7288 -0.0942 -0.1425
10736TIP3    H153623   6.264   0.151   5.742 -0.4714 -1.8441  0.9086
10736TIP3    H253624   6.299   0.177   5.887  0.0118  0.9281  0.3130
10737TIP3   OH253625   5.263   0.369  17.198  0.5556 -0.2697  0.2705
10737TIP3    H153626   5.219   0.291  17.163 -0.6873 -0.1156  1.4509
10737TIP3    H253627   5.335   0.385  17.137 -0.1231 -1.4179 -0.8598
10738TIP3   OH253628   0.375   1.990  11.410 -0.3898  0.0518 -0.1786
10738TIP3    H153629   0.380   1.941  11.493 -1.4969 -0.8513 -0.6264
10738TIP3    H253630   0.389   1.924  11.342  0.9615  0.8662 -0.7059
10739TIP3   OH253631   5.980   1.527  11.795 -0.2674 -0.1882 -0.7550
10739TIP3    H153632   6.061   1.477  11.780  0.3454  0.7904 -0.7084
10739TIP3    H253633   5.984   1.598  11.731  0.0281  1.2278  0.8406
10740TIP3   OH253634   6.598   5.927  11.870 -0.0639 -0.2246  0.3833
10740TIP3    H153635   6.615   6.012  11.831 -0.6876  0.3386  1.3214
10740TIP3    H253636   6.504   5.915  11.862  0.0935 -1.0794 -0.2503
10741TIP3   OH253637   6.041   5.706  15.955  0.0483  0.7101 -0.0449
10741TIP3    H153638   6.081   5.745  16.033  1.2956 -0.0803 -0.2661
10741TIP3    H253639   6.002   5.780  15.908  1.5195  1.5643  0.0418
10742TIP3   OH253640   4.887   1.369   1.315 -0.5648 -0.1600  0.5814
10742TIP3    H153641   4.868   1.433   1.246 -1.3053  0.3987  1.2848
10742TIP3    H253642   4.943   1.417   1.376 -1.5679 -0.0026  1.3891
10743TIP3   OH253643   1.981   1.094  14.034  0.0916  0.3331  0.0673
10743TIP3    H153644   1.976   1.185  14.062 -0.2167  0.0926  0.8164
10743TIP3    H253645   2.054   1.057  14.084  1.2114  0.5589 -1.3788
10744TIP3   OH253646   5.082   6.057   5.956  0.0476 -0.6056 -0.3586
10744TIP3    H153647   5.055   6.046   5.865 -0.0372 -0.5013 -0.3450
10744TIP3    H253648   5.170   6.094   5.950  0.2775 -1.1596 -0.4049
10745TIP3   OH253649   4.441   2.769  13.450  0.1565  0.1282 -0.3114
10745TIP3    H153650   4.367   2.712  13.470 -0.3045  0.4678 -0.9941
10745TIP3    H253651   4.478   2.792  13.535 -0.4453 -0.1489  0.0292
10746TIP3   OH253652   0.261   3.963  11.754 -0.2804  0.2643 -0.8326
10746TIP3    H153653   0.297   3.904  11.820  0.0391  2.0158  0.5955
10746TIP3    H253654   0.167   3.962  11.769 -0.3595 -0.5543 -1.3809
10747TIP3   OH253655   1.239   1.984  15.674  0.2792  0.1555  0.0075
10747TIP3    H153656   1.208   2.043  15.743 -0.6651 -1.3364  0.8695
10747TIP3    H253657   1.192   2.012  15.596 -0.0513  0.6397  0.3771
10748TIP3   OH253658   5.847   4.394   0.846  0.8225  0.1570 -0.4712
10748TIP3    H153659   5.887   4.324   0.898  1.2195 -1.3289 -2.7145
10748TIP3    H253660   5.754   4.371   0.843  0.7418  0.4328 -0.1480
10749TIP3   OH253661   0.120   4.098  14.593 -0.4960 -0.9991  0.6016
10749TIP3    H153662   0.025   4.097  14.601 -0.8824  0.6681 -3.0587
10749TIP3    H253663   0.142   4.015  14.551 -0.4862 -0.7315  0.0752
10750TIP3   OH253664   2.416   6.522  14.044 -0.1798  0.2595  0.2506
10750TIP3    H153665   2.409   6.617  14.045 -2.9570  0.1110 -0.5432
10750TIP3    H253666   2.466   6.502  13.965 -1.4976  0.9828 -0.7836
10751TIP3   OH253667   1.792   0.688   4.718  0.2876 -0.1556 -0.1489
10751TIP3    H153668   1.777   0.598   4.690  1.0512  0.2471 -1.9829
10751TIP3    H253669   1.886   0.702   4.702  0.0036  1.2150 -0.6948
10752TIP3   OH253670   2.359   0.586  16.595 -0.1723 -0.1134 -0.1459
10752TIP3    H153671   2.384   0.524  16.664  1.3854 -0.9145 -1.4133
10752TIP3    H253672   2.315   0.532  16.529  0.2164  0.3149 -0.7587
10753TIP3   OH253673   6.024   2.746   6.870  0.2196  0.5680  0.3538
10753TIP3    H153674   6.038   2.702   6.954  2.4199  0.3243 -0.1133
10753TIP3    H253675   6.014   2.674   6.807 -1.3789  0.7511  0.3635
10754TIP3   OH253676   5.071   1.651  13.777 -0.6000 -0.5137  0.3160
10754TIP3    H153677   5.109   1.583  13.720 -1.4980 -0.3966 -0.4273
10754TIP3    H253678   5.147   1.702  13.805  0.0103 -1.3928  0.3191
10755TIP3   OH253679   3.217   0.654   4.519  0.4085  0.5001  0.7537
10755TIP3    H153680   3.273   0.602   4.577  0.1094 -0.5520  0.0959
10755TIP3    H253681   3.134   0.662   4.566  0.2572 -0.1191  0.5933
10756TIP3   OH253682   6.698   6.325   0.793 -0.5389  0.1649  0.3221
10756TIP3    H153683   6.784   6.366   0.793 -0.6052  0.4106 -2.2823
10756TIP3    H253684   6.640   6.391   0.754 -1.2221 -1.2135 -1.0645
10757TIP3   OH253685   3.320   3.706  15.476 -0.4795  0.4373  0.0130
10757TIP3    H153686   3.358   3.738  15.395 -2.3644  0.3500 -0.9259
10757TIP3    H253687   3.395   3.691  15.534  0.9392 -0.2493 -1.9627
10758TIP3   OH253688   1.785   2.509  17.045  0.0995 -0.7976 -0.1352
10758TIP3    H153689   1.819   2.541  16.961  1.1892 -1.8061 -0.0976
10758TIP3    H253690   1.693   2.533  17.044  0.1762 -0.5112 -1.4939
10759TIP3   OH253691   3.126   4.508  16.258  0.2859  0.3448 -0.2868
10759TIP3    H153692   3.077   4.533  16.336  0.3099  1.4777 -0.6370
10759TIP3    H253693   3.180   4.584  16.238 -0.3561  0.3759 -1.9119
10760TIP3   OH253694   4.710   2.223  15.709  0.0643 -0.4526 -0.5045
10760TIP3    H153695   4.729   2.293  15.771 -0.2817 -0.1512 -0.7344
10760TIP3    H253696   4.619   2.237  15.685  0.0281 -0.9175 -0.6358
10761TIP3   OH253697   0.965   5.970  11.490 -0.4018  0.4656  0.7825
10761TIP3    H153698   0.922   5.929  11.565  0.9443 -0.8174  0.8720
10761TIP3    H253699   1.049   6.002  11.524 -0.3790  1.1108  0.1407
10762TIP3   OH253700   6.287   1.100  12.145 -0.2351  0.2941 -0.4397
10762TIP3    H153701   6.241   1.040  12.087 -1.2941  1.2222 -0.5618
10762TIP3    H253702   6.349   1.044  12.192 -1.1949 -0.8898 -0.5565
10763TIP3   OH253703   6.385   3.183   6.788 -0.7497 -0.6411 -0.6407
10763TIP3    H153704   6.349   3.193   6.699 -1.2109 -0.4076 -0.4256
10763TIP3    H253705   6.478   3.166   6.773 -0.7434 -0.1861 -1.1561
10764TIP3   OH253706   6.455   0.898  13.970 -0.0124  0.0548 -0.2356
10764TIP3    H153707   6.478   0.859  13.885  0.6704  0.5124 -0.2729
10764TIP3    H253708   6.375   0.853  13.997  0.8948 -1.5625 -0.1517
10765TIP3   OH253709   4.648   2.098  13.165 -0.1329  0.6584  0.0677
10765TIP3    H153710   4.561   2.122  13.196  0.4349  1.0706  1.3808
10765TIP3    H253711   4.665   2.159  13.093 -0.9006  0.6131 -0.1564
10766TIP3   OH253712   5.892   2.968   2.873  0.0181  0.1074 -0.0425
10766TIP3    H153713   5.936   3.044   2.835  1.6058 -0.5898  0.3242
10766TIP3    H253714   5.878   2.909   2.799  0.7040 -0.1234  0.0034
10767TIP3   OH253715   6.080   1.880  15.761 -0.2598  0.5684 -0.4981
10767TIP3    H153716   6.063   1.837  15.678  0.2135  1.7824 -1.2429
10767TIP3    H253717   6.002   1.864  15.814  0.4348 -2.2548 -0.2784
10768TIP3   OH253718   4.515   5.378   3.177  0.0396 -0.3230 -0.0662
10768TIP3    H153719   4.552   5.367   3.089  1.4100  0.6231  0.3780
10768TIP3    H253720   4.591   5.395   3.233 -0.9815  0.8088  1.0083
10769TIP3   OH253721   1.021   0.057  13.516  0.1123 -0.5917 -0.5579
10769TIP3    H153722   0.997   0.005  13.593  0.1126 -2.2393 -1.6395
10769TIP3    H253723   1.116   0.056  13.515  0.1117 -0.6017 -0.6002
10770TIP3   OH253724   4.235   0.203  16.990  0.1586 -0.6476 -0.0032
10770TIP3    H153725   4.304   0.200  17.057  1.6861 -0.5253 -1.5402
10770TIP3    H253726   4.234   0.294  16.961  0.5299 -1.0112 -1.1873
10771TIP3   OH253727   5.125   0.448  11.141  0.1255 -0.6101 -0.0581
10771TIP3    H153728   5.155   0.464  11.051  0.3246 -0.3514  0.0521
10771TIP3    H253729   5.044   0.498  11.149  1.7161  1.9487  0.8794
10772TIP3   OH253730   2.832   2.822   2.965 -0.0529 -0.2201  0.5581
10772TIP3    H153731   2.810   2.729   2.970 -2.4528  0.3211  0.6737
10772TIP3    H253732   2.920   2.828   3.002 -0.0580 -2.3770  0.9842
10773TIP3   OH253733   1.826   3.660   4.793  0.4368  0.0663  0.1560
10773TIP3    H153734   1.897   3.620   4.743 -1.5254 -0.4480 -2.3434
10773TIP3    H253735   1.796   3.733   4.739 -1.3167 -0.0971  0.8734
10774TIP3   OH253736   0.035   0.621   1.051 -0.2446  0.2180  0.0504
10774TIP3    H153737  -0.028   0.555   1.021  0.5820  0.3572 -2.0961
10774TIP3    H253738  -0.013   0.704   1.047 -0.5354  0.0690  0.3906
10775TIP3   OH253739   1.635   1.590  13.727 -0.5157 -0.5037  0.2749
10775TIP3    H153740   1.663   1.654  13.662 -1.9089 -0.0313  0.1269
10775TIP3    H253741   1.646   1.635  13.811  1.5114 -1.1980  0.4001
10776TIP3   OH253742   4.574   4.031   2.075  0.5670  0.2829  0.6743
10776TIP3    H153743   4.585   3.936   2.073  1.7022  0.4153 -1.0944
10776TIP3    H253744   4.606   4.057   2.162  0.9330 -0.8837  0.9010
10777TIP3   OH253745   4.157   0.704   3.997 -0.0626  0.1188  0.6089
10777TIP3    H153746   4.249   0.695   4.022  0.2907 -0.1906 -0.7669
10777TIP3    H253747   4.122   0.615   4.003  0.1299 -0.0290 -0.3711
10778TIP3   OH253748   0.866   3.547  11.660  0.5616  0.2158 -0.6504
10778TIP3    H153749   0.829   3.566  11.573  0.1766 -0.5575 -0.6608
10778TIP3    H253750   0.796   3.500  11.705  0.2344  1.8716  0.5900
10779TIP3   OH253751   2.542   5.405  14.881  0.4725  0.4365  0.6594
10779TIP3    H153752   2.575   5.315  14.873 -1.0202 -0.0409 -0.2233
10779TIP3    H253753   2.480   5.401  14.954 -2.9704 -0.2876 -2.2059
10780TIP3   OH253754   1.140   3.050  12.676  0.4376  0.0023  0.0195
10780TIP3    H153755   1.108   2.961  12.690  1.2122 -0.3828 -0.6039
10780TIP3    H253756   1.150   3.086  12.765  0.3988 -0.6379  0.2855
10781TIP3   OH253757   3.344   4.661   1.340  0.1713  0.4432 -0.8581
10781TIP3    H153758   3.343   4.609   1.260  0.6398 -2.0097  0.6524
10781TIP3    H253759   3.267   4.631   1.389  1.7026 -0.5247  1.0397
10782TIP3   OH253760   2.066   2.902  15.477  0.1875 -0.0024  0.0773
10782TIP3    H153761   2.064   2.847  15.556  1.6209 -0.2905 -0.0572
10782TIP3    H253762   2.110   2.982  15.505  0.6871 -0.0991 -0.4043
10783TIP3   OH253763   5.766   4.445  12.514  0.3901  0.4899  0.1528
10783TIP3    H153764   5.736   4.524  12.468 -0.2456 -0.4724 -1.0982
10783TIP3    H253765   5.861   4.445  12.502  0.3867  1.0257  0.1015
10784TIP3   OH253766   0.226   3.683   3.642 -0.3643  0.0133  0.3087
10784TIP3    H153767   0.263   3.768   3.620  0.8750 -0.7688 -0.7283
10784TIP3    H253768   0.133   3.690   3.620 -0.3027  1.1563  0.4098
10785TIP3   OH253769   0.143   0.784   3.178  0.0695 -0.3191  0.0957
10785TIP3    H153770   0.073   0.736   3.136 -0.9087  0.2202  1.0742
10785TIP3    H253771   0.202   0.716   3.212 -0.2733 -0.7872 -0.2452
10786TIP3   OH253772   2.950   6.102  10.907  0.3289 -0.4011  0.2108
10786TIP3    H153773   2.982   6.070  10.991 -0.8867  0.1908  0.9155
10786TIP3    H253774   2.879   6.042  10.884  1.7039 -1.5371 -1.2006
10787TIP3   OH253775   0.284   0.580  11.525 -0.1172  0.1007 -0.4609
10787TIP3    H153776   0.193   0.554  11.542 -0.2695  0.9612  0.1000
10787TIP3    H253777   0.278   0.642  11.453 -0.2392  1.8982  1.0477
10788TIP3   OH253778   2.117   0.977   4.551  0.5004 -0.2160 -0.7007
10788TIP3    H153779   2.136   0.885   4.568  0.7548  0.0327  0.4079
10788TIP3    H253780   2.032   0.976   4.507  0.6580 -0.9940 -1.0067
10789TIP3   OH253781   3.855   0.499   2.890  0.0044 -0.4692 -0.3948
10789TIP3    H153782   3.852   0.588   2.928  0.6311  0.2483 -1.9910
10789TIP3    H253783   3.827   0.442   2.962 -0.7418  1.0492  0.5563
10790TIP3   OH253784   0.145   3.908   3.884  0.3760  0.3554  0.5808
10790TIP3    H153785   0.154   3.992   3.839  0.4999 -0.2245 -0.4891
10790TIP3    H253786   0.117   3.847   3.816  0.0599 -0.4233  1.3987
10791TIP3   OH253787   1.142   3.397  15.832 -0.2181 -0.1884  0.1851
10791TIP3    H153788   1.112   3.311  15.804 -2.8193  0.7340  0.0233
10791TIP3    H253789   1.073   3.429  15.889  0.5145  1.9892 -0.1042
10792TIP3   OH253790   1.056   4.135  12.140  0.0324  0.5124 -0.0056
10792TIP3    H153791   1.148   4.155  12.158  0.0579 -0.1702  0.6694
10792TIP3    H253792   1.057   4.047  12.101 -0.2509  0.9210 -0.9437
10793TIP3   OH253793   4.771   1.230   5.458  0.2746 -0.1472 -0.3580
10793TIP3    H153794   4.814   1.233   5.372 -0.4498 -0.5253 -0.7433
10793TIP3    H253795   4.831   1.275   5.517  0.5746  0.5223 -1.1593
10794TIP3   OH253796   2.381   6.031  14.375  0.1341 -0.3383  0.2873
10794TIP3    H153797   2.292   6.059  14.397  0.9047  0.1006  3.0860
10794TIP3    H253798   2.421   6.108  14.334 -0.3317 -0.0478  0.3719
10795TIP3   OH253799   3.092   0.433  14.340  0.9860 -0.6409 -0.2807
10795TIP3    H153800   3.011   0.383  14.333 -0.2190  1.4126 -1.9212
10795TIP3    H253801   3.129   0.409  14.425 -1.0978 -1.9935  0.2682
10796TIP3   OH253802   0.920   5.836   4.565 -0.0182 -1.1693  0.1257
10796TIP3    H153803   0.937   5.894   4.639  0.0386 -2.1330  0.8774
10796TIP3    H253804   0.830   5.808   4.577 -0.4559 -0.2539 -0.9338
10797TIP3   OH253805   0.680   6.141  15.282 -0.3531  0.5414 -0.2145
10797TIP3    H153806   0.767   6.151  15.244 -0.3217  2.3103  0.2385
10797TIP3    H253807   0.657   6.049  15.270  0.6914  0.5433 -2.2317
10798TIP3   OH253808   0.847   3.615  17.194  0.2075 -0.2459 -0.1161
10798TIP3    H153809   0.923   3.566  17.226  1.1203  1.4628  0.4398
10798TIP3    H253810   0.876   3.653  17.111 -0.2570 -0.1283 -0.2276
10799TIP3   OH253811   3.686   4.302  13.334  0.6113 -1.0502 -0.0085
10799TIP3    H153812   3.673   4.394  13.356  0.2493 -0.3021 -3.0299
10799TIP3    H253813   3.615   4.282  13.273  0.0664 -3.6519  1.3986
10800TIP3   OH253814   2.749   3.544   0.757  0.5822 -0.5742 -0.7800
10800TIP3    H153815   2.793   3.630   0.758 -2.8806  1.2998  1.9091
10800TIP3    H253816   2.749   3.517   0.849 -0.0976 -2.5412 -1.3487
10801TIP3   OH253817   5.995   1.799  14.343  0.1727 -0.0084  0.0012
10801TIP3    H153818   5.913   1.765  14.379  0.2343 -0.1807 -0.0183
10801TIP3    H253819   5.995   1.768  14.252  0.2129  0.0757 -0.0268
10802TIP3   OH253820   5.306   5.326   5.565 -0.2247 -0.8805 -0.3137
10802TIP3    H153821   5.277   5.284   5.646 -2.5721  1.0865 -0.0705
10802TIP3    H253822   5.237   5.390   5.545  1.4007  0.2106 -2.6780
10803TIP3   OH253823   3.769   1.708  14.509 -0.6710 -0.1457 -0.2332
10803TIP3    H153824   3.814   1.792  14.504 -2.4405  0.8786  0.9637
10803TIP3    H253825   3.745   1.689  14.418 -2.2479  1.7545 -0.2508
10804TIP3   OH253826   3.077   2.892  16.627  0.7934 -0.0077  0.0550
10804TIP3    H153827   2.982   2.894  16.637  0.8243  1.3986  0.1386
10804TIP3    H253828   3.095   2.807  16.588 -0.5714 -0.0022 -0.6172
10805TIP3   OH253829   2.201   0.932   5.542 -0.4444  0.1285  0.3238
10805TIP3    H153830   2.144   1.002   5.574 -1.2249 -0.1958 -0.3672
10805TIP3    H253831   2.154   0.893   5.469  0.7743  0.0250 -0.4292
10806TIP3   OH253832   3.280   1.844   4.660 -0.3580  0.1721 -0.2292
10806TIP3    H153833   3.318   1.826   4.574  1.7217  0.6726  0.5535
10806TIP3    H253834   3.208   1.905   4.643 -1.8965 -2.0379 -1.9268
10807TIP3   OH253835   5.261   4.661  14.633  0.3627  0.0247 -0.2416
10807TIP3    H153836   5.342   4.623  14.666  0.8407 -0.1564 -1.5977
10807TIP3    H253837   5.284   4.752  14.612  0.3494 -0.1757 -1.1190
10808TIP3   OH253838   5.010   2.302  12.993 -0.4358 -0.8173 -0.0905
10808TIP3    H153839   5.006   2.340  12.905  1.1337  0.0118  0.1692
10808TIP3    H253840   5.077   2.354  13.038 -1.7826 -0.6921  1.8523
10809TIP3   OH253841   6.422   3.307  12.738 -0.2438  0.1696  0.9642
10809TIP3    H153842   6.491   3.241  12.741 -1.2430 -1.0656 -1.5607
10809TIP3    H253843   6.432   3.348  12.652 -2.0814  0.5819  0.9216
10810TIP3   OH253844   0.494   2.789   4.010 -0.0226  0.2293 -0.3309
10810TIP3    H153845   0.466   2.825   4.094  1.3150 -1.4887  0.8906
10810TIP3    H253846   0.547   2.713   4.033  0.6181 -0.0957 -2.7366
10811TIP3   OH253847   0.362   0.246   5.034 -0.2720 -0.0732  0.0212
10811TIP3    H153848   0.348   0.288   5.118  1.8904  0.3514  0.2010
10811TIP3    H253849   0.274   0.230   5.000 -1.1492  0.9772  1.7331
10812TIP3   OH253850   3.080   3.383  16.425 -0.2583 -0.3114 -0.3736
10812TIP3    H153851   3.028   3.408  16.348  0.0951  0.2339 -0.4296
10812TIP3    H253852   3.043   3.298  16.451 -0.2013 -0.6289 -1.3045
10813TIP3   OH253853   5.075   3.442   4.696 -0.3560  0.1919  0.1374
10813TIP3    H153854   4.994   3.391   4.683  0.3674 -1.1980  0.9172
10813TIP3    H253855   5.059   3.525   4.651 -1.6578 -0.6452 -0.9847
10814TIP3   OH253856   2.173   1.603   0.138 -0.2472 -0.4093 -0.0854
10814TIP3    H153857   2.192   1.511   0.119 -0.6535 -0.2388 -1.3259
10814TIP3    H253858   2.115   1.600   0.214 -0.8326 -1.2077 -0.5599
10815TIP3   OH253859   2.049   1.953   0.375 -0.4515  0.1171 -0.2083
10815TIP3    H153860   2.047   1.859   0.388  0.5278  0.1954  0.5160
10815TIP3    H253861   2.092   1.965   0.290 -1.8056 -0.1314 -0.9573
10816TIP3   OH253862   3.833   6.441  10.959  0.0603  0.0176 -0.0615
10816TIP3    H153863   3.749   6.394  10.962 -1.7069  3.0423  0.1582
10816TIP3    H253864   3.827   6.495  10.880  1.7716  0.3295  0.0223
10817TIP3   OH253865   6.276   0.961   5.448  0.3168  0.3803 -0.6653
10817TIP3    H153866   6.245   1.030   5.507 -1.9169  0.4944 -1.9018
10817TIP3    H253867   6.365   0.944   5.476 -0.0845  1.7124  1.5614
10818TIP3   OH253868   4.299   0.689  13.224 -0.2281  0.6004  0.6035
10818TIP3    H153869   4.215   0.732  13.244  0.2182  2.6813 -1.6404
10818TIP3    H253870   4.365   0.752  13.253  0.4826  0.3418 -0.4251
10819TIP3   OH253871   3.080   4.349   6.372  0.0395  0.1345  0.3963
10819TIP3    H153872   3.091   4.268   6.324 -0.0789 -0.3702  1.2013
10819TIP3    H253873   3.009   4.395   6.327  0.2164 -0.1373 -0.1570
10820TIP3   OH253874   2.822   4.943   0.258  0.7498  0.0937 -0.0638
10820TIP3    H153875   2.812   4.979   0.346  2.1424  0.0314  0.1273
10820TIP3    H253876   2.788   5.012   0.200 -0.2517  0.0948  0.5175
10821TIP3   OH253877   6.715   6.481  16.281 -0.1175  0.4445 -0.2493
10821TIP3    H153878   6.787   6.446  16.229  0.1607  3.5481 -2.0716
10821TIP3    H253879   6.638   6.473  16.224 -0.4818  0.6750  0.2062
10822TIP3   OH253880   1.583   5.565  14.186  0.5798  0.4615  0.2715
10822TIP3    H153881   1.628   5.515  14.254  0.8539 -0.6291 -0.7060
10822TIP3    H253882   1.646   5.570  14.114 -0.0816  0.7457 -0.2973
10823TIP3   OH253883   5.467   3.233   1.560 -0.7625  0.4869 -1.3203
10823TIP3    H153884   5.550   3.280   1.549  1.3960 -2.5519  1.0616
10823TIP3    H253885   5.429   3.270   1.639 -0.8338  0.6959 -1.4522
10824TIP3   OH253886   4.517   0.927  10.413 -0.0133  0.3428 -0.1286
10824TIP3    H153887   4.477   0.970  10.338 -1.1737 -0.0492  0.2600
10824TIP3    H253888   4.450   0.866  10.444  0.4315  0.5569  1.2719
10825TIP3   OH253889   0.253   5.550  11.916 -0.5830  0.5415 -0.4274
10825TIP3    H153890   0.248   5.562  11.821  1.4398  0.2666 -0.5874
10825TIP3    H253891   0.302   5.468  11.927 -1.4623  0.1814  0.8412
10826TIP3   OH253892   1.572   3.953  11.887  0.3108 -0.1109 -0.3274
10826TIP3    H153893   1.526   3.934  11.805  0.1627  1.5770 -0.6455
10826TIP3    H253894   1.664   3.962  11.861  0.0511  1.9632 -0.5657
10827TIP3   OH253895   0.703   2.784  15.435 -0.1521  0.1757  0.4169
10827TIP3    H153896   0.784   2.819  15.471  0.5807  0.2001 -1.2100
10827TIP3    H253897   0.645   2.860  15.427 -0.2573  0.2016  1.3295
10828TIP3   OH253898   6.035   1.824  14.613  0.0923 -0.3406  0.3979
10828TIP3    H153899   6.029   1.819  14.518 -0.4632  0.0624  0.4092
10828TIP3    H253900   6.029   1.733  14.642  0.7692 -0.5108  0.0260
10829TIP3   OH253901   6.370   6.647   0.006  0.1312 -0.1503  0.2390
10829TIP3    H153902   6.412   6.700   0.073  1.1361  0.3338 -0.7562
10829TIP3    H253903   6.438   6.633  -0.060 -0.4591 -1.7301 -0.0408
10830TIP3   OH253904   5.706   0.955   3.877  0.2228 -0.0815  0.4330
10830TIP3    H153905   5.653   0.878   3.856 -0.5867  1.0273 -1.7469
10830TIP3    H253906   5.796   0.929   3.855  0.0009 -0.5236  0.0312
10831TIP3   OH253907   2.390   0.990  11.358  0.1867 -0.7156  0.6595
10831TIP3    H153908   2.439   1.008  11.278  0.6966  0.1163  1.1442
10831TIP3    H253909   2.382   1.076  11.401 -0.2891 -1.1098  1.3745
10832TIP3   OH253910   0.505   1.478   1.837 -0.0042 -0.1001 -0.2895
10832TIP3    H153911   0.421   1.437   1.816  1.2389 -2.8323 -0.2079
10832TIP3    H253912   0.535   1.516   1.754 -1.3014  0.9062 -0.3088
10833TIP3   OH253913   4.769   3.880   1.369  0.1716  0.7761 -0.4463
10833TIP3    H153914   4.760   3.863   1.276  0.2377 -0.0206 -0.3130
10833TIP3    H253915   4.757   3.975   1.378  1.9354  1.1111 -1.4781
10834TIP3   OH253916   2.402   3.975   2.253 -0.0020  0.0988  0.2570
10834TIP3    H153917   2.494   3.956   2.272 -0.0284  0.0177  0.3050
10834TIP3    H253918   2.366   4.004   2.337  1.0199  4.2667 -0.6584
10835TIP3   OH253919   1.362   3.272   5.073  0.2654 -0.3473 -0.3072
10835TIP3    H153920   1.377   3.201   5.135  0.8617 -1.9367 -2.2032
10835TIP3    H253921   1.392   3.351   5.119 -0.1520 -1.3458  1.7244
10836TIP3   OH253922   5.008   3.708   2.682 -0.3718  0.2229  0.3722
10836TIP3    H153923   5.056   3.652   2.743 -0.9235 -0.5461  0.0985
10836TIP3    H253924   5.008   3.794   2.724  3.1364  0.7955 -0.6056
10837TIP3   OH253925   0.571   5.446  11.652  0.0737 -0.2631 -0.3031
10837TIP3    H153926   0.625   5.371  11.678  2.2042  1.4662  0.3795
10837TIP3    H253927   0.541   5.484  11.735 -1.7060 -0.8183 -0.6616
10838TIP3   OH253928   1.759   3.931  14.773  0.0583 -0.0120 -0.5135
10838TIP3    H153929   1.815   3.854  14.770  1.4408  0.9846 -0.9951
10838TIP3    H253930   1.701   3.923  14.698  0.4711 -0.3834 -0.7880
10839TIP3   OH253931   0.719   3.951  14.030  0.4103  0.5233  0.1716
10839TIP3    H153932   0.744   3.955  13.937 -0.4205 -1.5191 -0.1660
10839TIP3    H253933   0.802   3.950  14.077  0.8887 -0.9346 -0.6845
10840TIP3   OH253934   2.813   5.255  11.218  0.4125  0.2635 -0.4553
10840TIP3    H153935   2.896   5.280  11.259 -0.2465 -0.8876  1.7216
10840TIP3    H253936   2.799   5.165  11.249 -3.1521  1.4972  1.8069
10841TIP3   OH253937   5.225   1.503   4.011  0.2781 -0.5666  0.3305
10841TIP3    H153938   5.255   1.425   4.057  1.2188 -0.9512 -0.9108
10841TIP3    H253939   5.291   1.518   3.943 -1.2560 -0.2255 -1.1270
10842TIP3   OH253940   5.847   0.568  10.382 -0.0770 -0.1017  0.0111
10842TIP3    H153941   5.868   0.661  10.380 -0.3741 -0.0471 -2.3961
10842TIP3    H253942   5.933   0.524  10.386  0.0415  0.2556  1.8213
10843TIP3   OH253943   4.159   6.587  13.393  0.0531  0.1403 -0.6880
10843TIP3    H153944   4.106   6.526  13.444  0.0605  1.3455  0.8064
10843TIP3    H253945   4.097   6.654  13.363  0.5108  0.8942  0.0350
10844TIP3   OH253946   5.967   6.489   1.956 -0.2714  0.1402 -0.0164
10844TIP3    H153947   5.999   6.579   1.952  1.7229 -0.5132  0.3688
10844TIP3    H253948   6.011   6.452   2.034 -1.1730 -1.1071 -0.0881
10845TIP3   OH253949   1.632   6.493  14.673  0.5405 -0.3864 -0.0461
10845TIP3    H153950   1.540   6.517  14.671  0.4676 -0.4371  1.8498
10845TIP3    H253951   1.671   6.552  14.738  1.7430 -0.6799 -0.4837
10846TIP3   OH253952   1.407   1.218  13.523  0.0262  0.5895  0.2305
10846TIP3    H153953   1.462   1.234  13.446  0.0689  0.1985  0.1807
10846TIP3    H253954   1.469   1.215  13.596 -0.0475  1.2785  0.3203
10847TIP3   OH253955   0.433   5.816   1.275  0.3951  0.0636 -0.6218
10847TIP3    H153956   0.405   5.732   1.239 -0.5210  1.0146 -2.1693
10847TIP3    H253957   0.486   5.855   1.205 -0.9054  1.6701 -0.7475
10848TIP3   OH253958   4.548   5.198   5.914 -0.2030  0.0028  0.3332
10848TIP3    H153959   4.500   5.208   5.832  0.0340  0.0658  0.2001
10848TIP3    H253960   4.638   5.220   5.891 -0.0721 -0.3198  0.5330
10849TIP3   OH253961   5.178   0.986   2.750 -0.2124  0.1558  0.4571
10849TIP3    H153962   5.085   0.978   2.772  0.0078  1.0386  1.8073
10849TIP3    H253963   5.180   1.037   2.669 -0.9235 -0.4511  0.0527
10850TIP3   OH253964   4.460   2.724   6.260 -0.7250 -0.4441  0.4768
10850TIP3    H153965   4.426   2.668   6.330 -0.1984 -0.3181  0.8373
10850TIP3    H253966   4.495   2.800   6.306 -1.8875  0.4285 -0.0354
10851TIP3   OH253967   3.389   6.127  10.723 -0.1064  0.8085  0.0138
10851TIP3    H153968   3.384   6.221  10.707  0.5359  0.6013 -1.5442
10851TIP3    H253969   3.469   6.099  10.678 -1.1030 -0.7197 -0.8900
10852TIP3   OH253970   2.470   4.100   5.930  0.4342  0.3561  0.0319
10852TIP3    H153971   2.387   4.055   5.922 -0.5662  2.1792 -0.1338
10852TIP3    H253972   2.508   4.068   6.011 -0.5048 -0.3691  0.1790
10853TIP3   OH253973   1.147   5.008   4.488 -0.0844 -0.1545  0.2807
10853TIP3    H153974   1.135   4.915   4.503  1.4742 -0.5997 -1.0636
10853TIP3    H253975   1.213   5.013   4.419 -0.3640  1.9365  0.1192
10854TIP3   OH253976   5.088   1.332  16.728 -0.4511  0.6142  0.0531
10854TIP3    H153977   5.126   1.401  16.782 -0.6139 -0.0395  1.0053
10854TIP3    H253978   5.042   1.379  16.658  1.8364  1.4186 -0.9588
10855TIP3   OH253979   1.119   1.240  17.108 -0.6600 -0.3468 -0.7725
10855TIP3    H153980   1.159   1.160  17.074  0.9263  0.0589  0.1329
10855TIP3    H253981   1.141   1.241  17.201  0.5852  1.8748 -1.0607
10856TIP3   OH253982   2.754   0.503  10.593 -0.0131 -0.2738 -0.1673
10856TIP3    H153983   2.671   0.535  10.557  0.1797 -0.8966 -1.2061
10856TIP3    H253984   2.806   0.480  10.515  0.9788 -0.2579  0.4832
10857TIP3   OH253985   2.033   6.258   1.002 -0.4544  0.4281  0.3923
10857TIP3    H153986   1.959   6.286   1.056 -0.5044  1.4961 -0.2121
10857TIP3    H253987   2.100   6.324   1.019  1.0449 -1.4938  2.3270
10858TIP3   OH253988   4.433   1.472  13.227 -0.1877  0.6094  0.9119
10858TIP3    H153989   4.434   1.551  13.172 -0.2013  0.1760  0.2856
10858TIP3    H253990   4.525   1.455  13.245 -0.0063 -0.6790 -1.0632
10859TIP3   OH253991   5.933   2.598  15.900  0.9691  0.7721 -0.8292
10859TIP3    H153992   5.884   2.541  15.840  0.9833 -1.2020  0.9875
10859TIP3    H253993   6.006   2.544  15.931 -0.3759  0.9395  2.7952
10860TIP3   OH253994   6.671   1.603  15.853  0.1726  0.6645  0.2215
10860TIP3    H153995   6.695   1.682  15.902 -0.7553  1.0733  0.0212
10860TIP3    H253996   6.604   1.561  15.906 -0.9679  1.2053 -0.7802
10861TIP3   OH253997   5.920   6.035   2.511 -0.2391 -0.3361 -0.4351
10861TIP3    H153998   5.890   5.987   2.434  1.3952  0.3172 -1.4909
10861TIP3    H253999   5.856   6.106   2.521 -1.3124 -1.3112 -0.2655
10862TIP3   OH254000   1.047   2.479  13.443 -0.4389  0.4797  0.1822
10862TIP3    H154001   1.020   2.474  13.352 -0.1408  1.8037  0.0086
10862TIP3    H254002   0.978   2.435  13.492  0.4306 -2.1210 -0.8723
10863TIP3   OH254003   2.281   1.905   6.301  0.0508 -0.1145 -0.3219
10863TIP3    H154004   2.350   1.839   6.309  0.3605  0.2820  0.3327
10863TIP3    H254005   2.213   1.862   6.249 -0.4093 -1.5151  1.3574
10864TIP3   OH254006   6.682   5.188  13.298  0.1135 -0.3785  0.4869
10864TIP3    H154007   6.638   5.255  13.246  1.7269  0.1736 -0.1793
10864TIP3    H254008   6.632   5.186  13.380 -0.9579  0.4602 -0.1234
10865TIP3   OH254009   0.990   0.930  12.194  0.3076  0.4874 -0.4385
10865TIP3    H154010   1.022   0.921  12.104 -1.1795 -1.2633 -0.8392
10865TIP3    H254011   0.904   0.971  12.185 -0.3547 -0.7573  0.0722
10866TIP3   OH254012   4.140   5.712   3.808  0.4951 -0.1683 -0.3657
10866TIP3    H154013   4.154   5.617   3.813 -0.1447 -0.2268  0.4351
10866TIP3    H254014   4.190   5.748   3.882 -0.1400  0.0109 -0.0173
10867TIP3   OH254015   0.046   3.798  13.860  0.1869  0.3934 -0.0570
10867TIP3    H154016   0.081   3.722  13.813 -0.1806 -0.5020  1.1205
10867TIP3    H254017  -0.040   3.813  13.820 -1.0424 -1.6775  1.7457
10868TIP3   OH254018   3.578   5.106   5.107 -0.1403  0.1308  0.2771
10868TIP3    H154019   3.537   5.071   5.186 -0.5121 -0.4162 -0.1583
10868TIP3    H254020   3.661   5.144   5.137  0.2809 -1.1435  0.7385
10869TIP3   OH254021   3.134   5.704   2.521  0.1186 -0.1683 -0.3909
10869TIP3    H154022   3.073   5.751   2.464  1.1260 -0.6071 -1.8945
10869TIP3    H254023   3.084   5.684   2.600 -1.2971  0.5514 -1.0936
10870TIP3   OH254024   5.347   4.726   0.552  0.5271 -0.6639  0.1273
10870TIP3    H154025   5.286   4.685   0.613 -0.3958 -0.0143 -0.3416
10870TIP3    H254026   5.434   4.708   0.588  0.0388 -1.3017  0.9853
10871TIP3   OH254027   3.830   6.409   2.747 -0.3258  0.2290 -0.1877
10871TIP3    H154028   3.903   6.372   2.796  1.3803  1.3770 -1.8007
10871TIP3    H254029   3.837   6.369   2.660 -1.6192  0.3510 -0.3647
10872TIP3   OH254030   2.099   0.075  15.018 -0.1981 -0.3848 -0.2729
10872TIP3    H154031   2.111   0.055  15.111 -0.6753  1.4272  0.1843
10872TIP3    H254032   2.136   0.162  15.006 -2.5738  0.5687 -1.1707
10873TIP3   OH254033   0.731   3.294   3.803 -0.5285  0.1675  0.7657
10873TIP3    H154034   0.748   3.201   3.819 -0.9408 -0.0582 -0.0810
10873TIP3    H254035   0.648   3.311   3.848 -1.4408 -0.3484 -0.7051
10874TIP3   OH254036   4.428   3.599  15.078  0.3020 -0.2065  0.7237
10874TIP3    H154037   4.514   3.611  15.037 -0.1668  0.9374  0.0739
10874TIP3    H254038   4.443   3.621  15.170  1.3122 -2.6176  1.2018
10875TIP3   OH254039   4.624   3.618  11.494  0.1596  0.3073 -0.1993
10875TIP3    H154040   4.657   3.662  11.416  1.6260  0.4511  0.4950
10875TIP3    H254041   4.696   3.621  11.557 -0.3847 -1.3486  0.5519
10876TIP3   OH254042   0.371   1.965   5.721  0.3158  0.2074  0.2535
10876TIP3    H154043   0.451   2.002   5.684  0.7258 -0.2143  0.7228
10876TIP3    H254044   0.400   1.888   5.769 -0.4688 -0.3878 -0.2154
10877TIP3   OH254045   0.211   1.535   5.978  0.3201  0.2827  0.3105
10877TIP3    H154046   0.210   1.611   6.036  1.2593 -0.6390  1.5623
10877TIP3    H254047   0.262   1.469   6.025 -2.7564 -2.1068  0.5140
10878TIP3   OH254048   1.345   3.101  11.971  0.2172  0.0680 -1.0234
10878TIP3    H154049   1.286   3.132  12.039 -0.1218 -1.1584 -0.7471
10878TIP3    H254050   1.289   3.089  11.894  0.3294  0.0734 -1.1068
10879TIP3   OH254051   6.685   2.195  11.474  0.7005 -0.2307 -0.3341
10879TIP3    H154052   6.686   2.271  11.533  1.5430 -1.1101  0.7889
10879TIP3    H254053   6.654   2.231  11.391  1.2467  1.3877  0.1330
10880TIP3   OH254054   1.257   0.916  11.266  0.0416 -0.5746 -0.3065
10880TIP3    H154055   1.193   0.911  11.195 -0.2400 -0.4615 -0.0630
10880TIP3    H254056   1.246   0.835  11.315 -0.6444 -0.0909  0.3502
10881TIP3   OH254057   0.758   0.163  15.309 -0.0712 -0.1784  0.0602
10881TIP3    H154058   0.664   0.176  15.316 -0.0139  0.0351  0.4432
10881TIP3    H254059   0.785   0.136  15.397  0.6143  2.1989  0.6218
10882TIP3   OH254060   4.486   3.026  14.642  0.0719  0.9071 -0.6248
10882TIP3    H154061   4.397   2.991  14.640  0.5086 -0.1813 -2.1939
10882TIP3    H254062   4.540   2.953  14.673  0.3460  1.7832  1.0339
10883TIP3   OH254063   3.394   5.736  14.482 -0.3036  0.4027  0.2799
10883TIP3    H154064   3.384   5.828  14.508 -0.0604  0.6281 -0.4079
10883TIP3    H254065   3.408   5.739  14.387 -2.1100 -0.4670 -0.0379
10884TIP3   OH254066   4.806   6.076  13.034  0.0161 -0.4777 -0.5318
10884TIP3    H154067   4.857   6.142  13.079 -2.3507  2.0095 -1.3572
10884TIP3    H254068   4.756   6.033  13.103  0.3986 -0.3383 -0.1665
10885TIP3   OH254069   5.259   2.369  15.085 -0.1897  0.2929  0.6690
10885TIP3    H154070   5.168   2.392  15.107  0.3257  3.2221 -0.1023
10885TIP3    H254071   5.292   2.445  15.038  1.9755 -1.6694 -1.0773
10886TIP3   OH254072   5.971   3.751  14.734 -0.2749  0.0239 -0.1364
10886TIP3    H154073   5.991   3.796  14.652 -0.9328  0.5382 -0.0157
10886TIP3    H254074   5.950   3.821  14.795 -3.3145 -0.5226 -0.4835
10887TIP3   OH254075   4.219   2.262   4.179  0.6538  0.4825  0.7571
10887TIP3    H154076   4.292   2.249   4.240  2.3465  0.0921 -1.3233
10887TIP3    H254077   4.241   2.343   4.133  1.2144 -1.1325 -1.8690
10888TIP3   OH254078   0.057   0.929  10.863  0.0835 -0.2874  0.0421
10888TIP3    H154079  -0.015   0.874  10.831  0.2294  1.3567 -3.3635
10888TIP3    H254080   0.125   0.866  10.888 -1.8585 -1.7956  1.7093
10889TIP3   OH254081   0.507   0.400  14.908 -0.3989 -0.0641 -0.3635
10889TIP3    H154082   0.469   0.320  14.943 -0.6867  0.1437 -0.2081
10889TIP3    H254083   0.599   0.395  14.934 -0.4076 -0.3552 -0.3775
10890TIP3   OH254084   1.473   5.937   1.619 -0.2359 -0.3440 -0.0222
10890TIP3    H154085   1.484   5.963   1.710  0.3639 -0.3244 -0.0949
10890TIP3    H254086   1.411   6.000   1.583  0.2453  0.2306  0.1357
10891TIP3   OH254087   1.407   4.159  16.490  0.3521  0.6082  0.3657
10891TIP3    H154088   1.347   4.084  16.484 -0.7040  1.3455  1.3036
10891TIP3    H254089   1.406   4.197  16.403  1.3879 -0.8335 -0.2904
10892TIP3   OH254090   3.446   5.713   3.998 -0.0256 -0.1474  0.0064
10892TIP3    H154091   3.360   5.712   3.955 -0.2731 -3.5877  0.3846
10892TIP3    H254092   3.498   5.775   3.947 -2.2208  0.7028 -1.2781
10893TIP3   OH254093   2.152   2.170   2.990  0.2520 -0.3258 -0.0107
10893TIP3    H154094   2.085   2.219   3.036  0.2386 -0.3449 -0.0099
10893TIP3    H254095   2.209   2.238   2.953  0.5655 -0.3169  0.4818
10894TIP3   OH254096   6.523   3.767  16.797 -0.2777 -0.1048  0.4778
10894TIP3    H154097   6.520   3.861  16.778  0.0542 -0.3976 -1.1087
10894TIP3    H254098   6.576   3.760  16.876 -0.5555  1.0684  0.7788
10895TIP3   OH254099   3.338   3.263  17.187  0.8752 -0.0446  0.0711
10895TIP3    H154100   3.324   3.304  17.272 -0.6993 -1.0392  0.3191
10895TIP3    H254101   3.425   3.293  17.160  0.0482  2.9051  0.5109
10896TIP3   OH254102   0.321   0.859   1.337 -0.4197 -0.1009  0.1487
10896TIP3    H154103   0.243   0.805   1.351  0.4471 -1.3104  0.3551
10896TIP3    H254104   0.394   0.803   1.361  0.6512  0.3635 -1.9013
10897TIP3   OH254105   5.397   0.861   0.235  0.2957 -0.2327  0.3193
10897TIP3    H154106   5.354   0.809   0.303 -0.9206 -0.8353 -0.8877
10897TIP3    H254107   5.353   0.836   0.154 -0.3232  2.6740 -0.3021
10898TIP3   OH254108   0.267   2.830  14.191  0.1565  0.7756 -0.2930
10898TIP3    H154109   0.266   2.812  14.285  0.2720  0.0976 -0.4236
10898TIP3    H254110   0.316   2.912  14.183  0.9412  0.3548  0.1601
10899TIP3   OH254111   6.512   2.943  10.189  0.0584 -0.0502 -0.1534
10899TIP3    H154112   6.557   2.971  10.269  1.7331  1.1043 -1.4854
10899TIP3    H254113   6.472   2.859  10.213  1.5822 -0.3307  1.5256
10900TIP3   OH254114   5.411   2.578   5.438 -0.9362 -0.4959  0.2582
10900TIP3    H154115   5.426   2.666   5.403  2.4743 -0.5919  1.3307
10900TIP3    H254116   5.338   2.589   5.499 -2.3044  1.0251 -1.5473
10901TIP3   OH254117   3.983   0.278   2.750 -0.5640 -0.0448 -0.0393
10901TIP3    H154118   3.996   0.300   2.842 -0.0545 -1.3728  0.2179
10901TIP3    H254119   3.925   0.347   2.716 -2.1231 -0.4921  1.6892
10902TIP3   OH254120   4.022   4.407   0.994  0.2056  0.1004  0.3303
10902TIP3    H154121   4.029   4.502   0.986 -0.6334  0.2834  1.5595
10902TIP3    H254122   4.112   4.376   1.005  0.2529  1.0885  3.1153
10903TIP3   OH254123   6.005   4.886  11.793 -0.3256 -0.0673 -0.0090
10903TIP3    H154124   6.020   4.938  11.715  1.1312  1.4354  1.2257
10903TIP3    H254125   6.013   4.795  11.764 -1.3555  0.4115 -1.8796
10904TIP3   OH254126   2.260   2.780   0.372 -0.0300 -0.2003  0.1338
10904TIP3    H154127   2.333   2.790   0.433 -0.3569 -2.0106  0.8366
10904TIP3    H254128   2.245   2.869   0.339  2.9891  0.0922 -0.6317
10905TIP3   OH254129   6.647   4.252  13.107  0.1445 -0.4642 -0.5047
10905TIP3    H154130   6.670   4.205  13.187 -3.2274 -2.0774 -0.3773
10905TIP3    H254131   6.607   4.333  13.137  1.5240  0.2585 -0.6194
10906TIP3   OH254132   6.420   4.241  14.308 -0.3976 -0.2180  0.0788
10906TIP3    H154133   6.487   4.303  14.280 -0.4067 -0.4112 -0.3754
10906TIP3    H254134   6.375   4.216  14.228 -1.2406  0.1674  0.4321
10907TIP3   OH254135   1.630   3.422   4.813  0.0914 -0.9061  0.5272
10907TIP3    H154136   1.707   3.474   4.837 -0.7747  0.3053  0.7307
10907TIP3    H254137   1.635   3.345   4.870  0.9004 -0.6230  0.8579
10908TIP3   OH254138   2.476   6.674   3.972  0.1502  0.5250  0.2186
10908TIP3    H154139   2.561   6.649   3.936 -0.5128 -0.2292 -0.8687
10908TIP3    H254140   2.412   6.627   3.917 -0.9712  1.3093  0.8297
10909TIP3   OH254141   0.873   0.479   1.382  0.1451 -0.2768  0.0063
10909TIP3    H154142   0.824   0.476   1.300 -0.0385 -0.6905  0.1311
10909TIP3    H254143   0.943   0.415   1.370  1.2356  0.9937 -0.5405
10910TIP3   OH254144   3.012   5.776  13.434 -0.0969  0.0562  0.0157
10910TIP3    H154145   2.952   5.715  13.391  0.3389 -1.2243  1.1979
10910TIP3    H254146   3.098   5.755  13.397  0.0783 -0.1354  0.5354
10911TIP3   OH254147   3.204   2.149  13.810  0.6505 -1.0661 -0.1705
10911TIP3    H154148   3.243   2.191  13.734 -2.0637 -0.8207 -1.5110
10911TIP3    H254149   3.225   2.056  13.800  0.6051 -0.9837 -1.0366
10912TIP3   OH254150   4.017   2.009   2.780 -0.2920 -0.1347  0.4620
10912TIP3    H154151   4.039   2.101   2.792  0.1297 -0.1643 -0.0248
10912TIP3    H254152   3.931   1.999   2.820 -1.6658  1.1374 -2.0513
10913TIP3   OH254153   1.375   3.827  14.601 -0.4059 -0.1200 -0.5562
10913TIP3    H154154   1.419   3.836  14.686  0.8847 -2.5648 -0.9479
10913TIP3    H254155   1.313   3.900  14.599 -1.0587 -0.4963  2.8658
10914TIP3   OH254156   5.760   0.590   5.098  0.0050 -0.2348  0.0412
10914TIP3    H154157   5.733   0.592   5.190  0.8430  2.0134  0.2752
10914TIP3    H254158   5.680   0.608   5.049 -0.0469  0.6694  0.4463
10915TIP3   OH254159   3.447   2.268  11.072 -0.5087 -0.3950  0.0686
10915TIP3    H154160   3.357   2.298  11.081 -1.2104 -1.7930 -2.1355
10915TIP3    H254161   3.443   2.173  11.082  1.0900 -0.2930  2.3809
10916TIP3   OH254162   4.686   5.001   2.491 -0.3167  0.3388 -0.3782
10916TIP3    H154163   4.713   4.940   2.422 -0.6732  0.3248 -0.5042
10916TIP3    H254164   4.745   4.982   2.564 -0.3821 -0.1050 -0.4425
10917TIP3   OH254165   6.060   2.075   6.683 -0.5305 -0.1789  0.0543
10917TIP3    H154166   6.039   2.032   6.599 -0.0140  0.0693 -0.2020
10917TIP3    H254167   6.155   2.077   6.685 -0.5312 -0.8370  0.9913
10918TIP3   OH254168   4.469   2.687  15.502  0.5210 -0.2296 -0.4496
10918TIP3    H154169   4.497   2.779  15.509 -1.6578  0.3112  1.8687
10918TIP3    H254170   4.544   2.637  15.535  0.9509  0.8469  0.2536
10919TIP3   OH254171   5.639   0.747  12.625 -0.2679  0.0755 -0.2468
10919TIP3    H154172   5.652   0.779  12.536 -1.6529 -0.0689 -0.5023
10919TIP3    H254173   5.583   0.813  12.666  1.5690  0.9235  0.9978
10920TIP3   OH254174   1.277   1.228  10.930  0.1510 -0.1934 -0.4562
10920TIP3    H154175   1.273   1.268  10.843  1.6463  1.1422  0.0898
10920TIP3    H254176   1.350   1.167  10.925 -0.3528 -0.8111 -0.4085
10921TIP3   OH254177   1.952   4.551   3.446 -0.1896  0.3511  0.6965
10921TIP3    H154178   1.878   4.491   3.446 -0.4645  0.6561 -1.6971
10921TIP3    H254179   2.018   4.507   3.393  0.4607  1.1581  0.8286
10922TIP3   OH254180   0.948   2.075   3.100  0.2518  0.1647  0.2288
10922TIP3    H154181   1.036   2.044   3.077  0.0253 -0.5576  0.3065
10922TIP3    H254182   0.952   2.092   3.194  0.1331 -0.5094  0.3639
10923TIP3   OH254183   3.635   4.908   3.674 -0.1835 -0.0692 -0.5553
10923TIP3    H154184   3.553   4.860   3.689 -0.6456  0.7468 -0.4881
10923TIP3    H254185   3.701   4.858   3.724 -0.9743  0.3278  0.9072
10924TIP3   OH254186   0.491   2.132  14.229 -0.1423  0.2155 -0.2189
10924TIP3    H154187   0.518   2.198  14.293 -0.8892 -0.4875  0.8493
10924TIP3    H254188   0.403   2.107  14.256 -0.1276 -0.7317 -1.0044
10925TIP3   OH254189   1.563   5.196   2.529 -0.3000 -0.0347  1.3411
10925TIP3    H154190   1.536   5.105   2.534 -1.5366  0.1310 -1.3398
10925TIP3    H254191   1.650   5.193   2.488 -0.2825 -0.0239  1.3775
10926TIP3   OH254192   0.943   5.513  11.543  0.0384  0.0584  0.3618
10926TIP3    H154193   0.917   5.510  11.451 -0.8552  0.7273  0.5919
10926TIP3    H254194   0.957   5.422  11.567 -0.6861 -0.1969 -0.1641
10927TIP3   OH254195   0.722   2.684   2.815  0.0908 -0.3639 -0.1162
10927TIP3    H154196   0.671   2.677   2.896 -0.5907  0.1350 -0.4962
10927TIP3    H254197   0.761   2.597   2.803  0.2069 -0.4314  0.7566
10928TIP3   OH254198   6.064   5.238  11.860  0.6269 -0.5992  0.3953
10928TIP3    H154199   6.022   5.298  11.799 -0.6402  0.5054  2.2975
10928TIP3    H254200   5.995   5.177  11.886  0.7557 -0.1413  1.8569
10929TIP3   OH254201   1.692   4.850  17.065 -0.6111  0.1609 -0.7532
10929TIP3    H154202   1.735   4.779  17.112 -0.5075 -1.2976 -2.9829
10929TIP3    H254203   1.745   4.927  17.085 -0.3289 -0.4947  1.1382
10930TIP3   OH254204   1.135   3.993  15.168 -0.4094 -0.2681 -0.1922
10930TIP3    H154205   1.202   3.935  15.205 -0.9151 -1.0587 -0.5053
10930TIP3    H254206   1.089   4.028  15.244  0.7042  0.7150  0.0516
10931TIP3   OH254207   5.460   6.050   1.886 -0.2470 -0.3902 -0.0473
10931TIP3    H154208   5.444   6.144   1.886  0.7237 -0.2172 -0.8117
10931TIP3    H254209   5.386   6.013   1.934 -0.3816  0.8027  0.6906
10932TIP3   OH254210   3.259   4.036   3.991  0.0557  0.4018  0.0032
10932TIP3    H154211   3.301   3.969   3.937 -0.3991  0.1268 -0.0192
10932TIP3    H254212   3.263   4.115   3.937  1.6280  0.6772  0.5128
10933TIP3   OH254213   5.501   0.309   0.398  0.0505 -0.2037  0.2537
10933TIP3    H154214   5.547   0.334   0.318  0.2173 -0.2560  0.3328
10933TIP3    H254215   5.446   0.236   0.372  1.4992 -1.4398  0.6049
10934TIP3   OH254216   4.797   2.178   5.195 -0.0974  0.0631 -0.7434
10934TIP3    H154217   4.731   2.108   5.197  0.2993 -0.2853  0.5516
10934TIP3    H254218   4.821   2.186   5.103 -1.0748 -0.6330 -1.0636
10935TIP3   OH254219   0.730   0.974   2.268 -0.1695 -0.9204 -0.4982
10935TIP3    H154220   0.736   1.069   2.275  0.2588 -0.8328 -1.7708
10935TIP3    H254221   0.657   0.959   2.208 -2.5267 -1.5182  2.4260
10936TIP3   OH254222   0.373   2.626   5.017  0.1281  0.1308  0.4789
10936TIP3    H154223   0.394   2.640   4.924 -1.5564  2.1509  0.3579
10936TIP3    H254224   0.321   2.545   5.018 -0.3119  0.3993 -0.4043
10937TIP3   OH254225   6.540   2.310   1.379 -0.4314 -0.0630 -0.5190
10937TIP3    H154226   6.518   2.403   1.381 -2.2439 -0.4806  0.4506
10937TIP3    H254227   6.476   2.271   1.320 -0.9077 -0.9702  0.5712
10938TIP3   OH254228   0.157   6.505   0.350 -0.1670 -0.1311  0.0998
10938TIP3    H154229   0.188   6.495   0.260 -2.9195 -0.1014 -0.8863
10938TIP3    H254230   0.144   6.599   0.361 -2.2333 -0.3327 -0.3490
10939TIP3   OH254231   6.372   1.564  12.577 -0.4070 -0.6462  0.0766
10939TIP3    H154232   6.394   1.568  12.484 -1.5716 -0.5764 -0.2019
10939TIP3    H254233   6.374   1.655  12.606  1.6649 -0.8013  0.5477
10940TIP3   OH254234   4.791   1.559   1.132 -0.0818 -0.1138  0.3768
10940TIP3    H154235   4.833   1.638   1.096  0.9450 -0.7381  0.1854
10940TIP3    H254236   4.759   1.512   1.055  2.5057 -1.6720  0.1877
10941TIP3   OH254237   5.410   2.821   5.318  0.4338  0.5557  0.5192
10941TIP3    H154238   5.389   2.899   5.369  1.0416  0.4742  0.9054
10941TIP3    H254239   5.466   2.853   5.247  2.5682  0.1628  1.9777
10942TIP3   OH254240   6.148   6.650   1.745  0.2779 -0.0392  0.2674
10942TIP3    H154241   6.111   6.699   1.818 -0.9736  0.1574 -0.4746
10942TIP3    H254242   6.083   6.583   1.725  0.4678  0.0935 -0.8427
10943TIP3   OH254243   3.906   0.038   3.201  0.2644  0.3554  0.2827
10943TIP3    H154244   3.825   0.072   3.239 -0.0391 -0.1747  0.1119
10943TIP3    H254245   3.885  -0.052   3.176  0.9700  0.1415  0.4389
10944TIP3   OH254246   4.698   0.885   1.150  0.2210 -0.8542  0.1782
10944TIP3    H154247   4.664   0.959   1.101  1.1390  0.5461  1.6062
10944TIP3    H254248   4.707   0.815   1.085 -2.3124 -0.2891 -0.8385
10945TIP3   OH254249   4.946   1.510  13.459 -0.5146  0.3044  0.0344
10945TIP3    H154250   4.973   1.589  13.412  0.2278 -0.4570 -0.8502
10945TIP3    H254251   5.026   1.480  13.502  0.2698 -2.2701 -3.0332
10946TIP3   OH254252   3.938   6.091  12.422  0.2149 -0.2125  0.1872
10946TIP3    H154253   3.979   6.123  12.502 -0.6029  0.1687  0.4550
10946TIP3    H254254   3.856   6.051  12.450  0.1780 -0.5666 -0.4007
10947TIP3   OH254255   0.658   4.481   1.673 -0.5304  0.0753 -0.5313
10947TIP3    H154256   0.664   4.399   1.722  2.0970  1.3726  1.3987
10947TIP3    H254257   0.578   4.522   1.706  0.4217  0.2516  1.6268
10948TIP3   OH254258   2.283   2.235   4.659 -0.4306  0.1357 -0.3066
10948TIP3    H154259   2.345   2.168   4.687 -0.4222  0.8905  1.5591
10948TIP3    H254260   2.202   2.187   4.640 -0.1947 -0.4917  0.2696
10949TIP3   OH254261   4.804   4.250   4.507 -0.7717  1.2018  1.0383
10949TIP3    H154262   4.767   4.250   4.419  1.6364  1.5782 -0.0137
10949TIP3    H254263   4.795   4.159   4.536 -1.5426  1.0612  0.3775
10950TIP3   OH254264   4.076   6.094  13.800  0.0834  0.2245  0.0850
10950TIP3    H154265   4.001   6.146  13.771 -0.2793 -0.3163  0.0608
10950TIP3    H254266   4.038   6.019  13.845  0.5920 -0.6504 -0.9447
10951TIP3   OH254267   3.189   4.698  13.060 -0.2178 -0.5645  0.0034
10951TIP3    H154268   3.162   4.765  12.997  2.5136  0.5431 -0.0417
10951TIP3    H254269   3.107   4.669  13.101 -1.5148  2.1958 -0.5620
10952TIP3   OH254270   2.510   3.897  12.448  0.1330  0.2730  0.0991
10952TIP3    H154271   2.463   3.839  12.508 -1.1731  0.9168 -0.2850
10952TIP3    H254272   2.574   3.840  12.406  1.6177 -0.0326  2.6508
10953TIP3   OH254273   5.922   6.477  14.297  0.2323 -0.3635 -0.0853
10953TIP3    H154274   5.850   6.529  14.263  0.6595  0.7308  0.6528
10953TIP3    H254275   5.964   6.533  14.361  0.2116 -1.9241  1.3401
10954TIP3   OH254276   4.904   0.876  13.443 -0.1969 -0.2686  0.3930
10954TIP3    H154277   4.966   0.942  13.410 -0.2351  0.1735  1.1884
10954TIP3    H254278   4.818   0.915  13.428 -0.3243 -1.1622 -1.3099
10955TIP3   OH254279   6.079   1.146   2.528 -0.1067 -0.0159 -0.1555
10955TIP3    H154280   6.032   1.063   2.530 -0.4096  0.0620 -2.2113
10955TIP3    H254281   6.025   1.202   2.472  2.7069 -0.1407 -3.1117
10956TIP3   OH254282   2.011   2.010  14.533  0.2597  0.1383  0.5909
10956TIP3    H154283   1.965   2.035  14.613  0.6995 -0.6592  1.1054
10956TIP3    H254284   1.976   2.068  14.466 -0.5899  0.3719  1.2249
10957TIP3   OH254285   0.794   0.025   5.075  0.5498  0.1599 -0.0226
10957TIP3    H154286   0.824   0.111   5.044 -1.8430  1.1451  0.2671
10957TIP3    H254287   0.703   0.019   5.045  0.4295 -1.9301  0.6728
10958TIP3   OH254288   1.785   4.503  14.909  0.2958 -0.3655  0.3713
10958TIP3    H154289   1.713   4.493  14.970  0.6444  1.7748  1.1633
10958TIP3    H254290   1.863   4.479  14.959  0.5391  0.9943  0.6405
10959TIP3   OH254291   2.937   6.188   1.783 -0.6250  0.4471  0.6081
10959TIP3    H154292   2.956   6.209   1.692 -0.3137  2.5595  1.1532
10959TIP3    H254293   2.886   6.107   1.779  1.7539 -1.0360 -1.2820
10960TIP3   OH254294   3.060   2.099   6.307  0.2490 -0.2222 -0.1869
10960TIP3    H154295   3.093   2.030   6.248  0.0492 -0.7208  0.2829
10960TIP3    H254296   3.099   2.079   6.392  2.1642  1.6663 -0.5742
10961TIP3   OH254297   5.746   3.576   6.448  0.3629  0.1267  0.0213
10961TIP3    H154298   5.822   3.627   6.477  2.0962 -2.1767 -0.3864
10961TIP3    H254299   5.776   3.485   6.449 -3.1728 -1.1010  2.3582
10962TIP3   OH254300   6.428   4.987   4.569  0.0377  0.2489  0.7672
10962TIP3    H154301   6.334   4.997   4.551 -0.1277  1.7374  2.2285
10962TIP3    H254302   6.468   4.978   4.483 -1.3665  0.5033  0.0620
10963TIP3   OH254303   4.929   6.617  14.061 -0.3555 -0.8289  0.3116
10963TIP3    H154304   4.907   6.677  14.132  0.3190  1.7763 -1.5807
10963TIP3    H254305   4.845   6.585  14.030 -0.9914  1.5138 -0.5523
10964TIP3   OH254306   6.747   5.508  17.014  0.4008 -0.2098  0.0665
10964TIP3    H154307   6.748   5.422  17.055 -0.6093 -0.0922  0.3510
10964TIP3    H254308   6.806   5.500  16.939  0.1258 -1.2191 -0.0467
10965TIP3   OH254309   5.996   0.898  15.141 -0.3640 -0.0263 -0.1883
10965TIP3    H154310   5.993   0.910  15.046  0.5127 -0.7320 -0.3078
10965TIP3    H254311   6.025   0.808  15.153 -1.1032 -0.1496  0.7509
10966TIP3   OH254312   3.042   2.434   5.694 -0.1999  0.1038 -0.1748
10966TIP3    H154313   3.067   2.389   5.776  0.5911  0.2954 -0.3029
10966TIP3    H254314   3.098   2.394   5.627  0.4427  1.2009 -0.3092
10967TIP3   OH254315   1.785   0.122  16.102 -0.2820  0.0316 -0.2343
10967TIP3    H154316   1.796   0.132  16.008 -0.5328  1.5828 -0.1185
10967TIP3    H254317   1.700   0.163  16.121  0.6199  1.4387  0.9113
10968TIP3   OH254318   0.071   1.450   3.980 -0.0486 -0.5055 -0.1745
10968TIP3    H154319  -0.010   1.461   3.930  0.8123 -0.4728 -1.5862
10968TIP3    H254320   0.105   1.539   3.991  0.7221 -0.6694 -1.1627
10969TIP3   OH254321   3.550   0.751   5.729  0.0391 -0.1113  0.0676
10969TIP3    H154322   3.561   0.658   5.751  0.7074  0.1558  0.8871
10969TIP3    H254323   3.480   0.782   5.786 -0.8762 -0.3505 -0.9162
10970TIP3   OH254324   3.426   5.732   2.427  0.4024  0.1597 -0.3349
10970TIP3    H154325   3.425   5.763   2.337  1.4504 -0.0964 -0.4332
10970TIP3    H254326   3.340   5.757   2.462 -0.8625 -1.6005 -2.0413
10971TIP3   OH254327   3.041   3.788  13.638  0.1709  0.2544  0.0986
10971TIP3    H154328   2.977   3.851  13.669  0.0583  1.7334 -2.9437
10971TIP3    H254329   3.125   3.833  13.647  0.4090 -0.2841  0.6291
10972TIP3   OH254330   3.254   5.141  15.762 -0.1272 -0.7271  0.6917
10972TIP3    H154331   3.176   5.090  15.783 -1.3343  0.4121 -0.8766
10972TIP3    H254332   3.224   5.232  15.762  1.0755 -0.3129 -0.4299
10973TIP3   OH254333   6.061   1.618  13.508  0.6441  0.3616  0.1957
10973TIP3    H154334   6.072   1.523  13.507 -0.0777  0.2574 -2.9596
10973TIP3    H254335   5.972   1.632  13.540 -0.5594 -0.2339 -2.7711
10974TIP3   OH254336   3.135   3.936   5.640  0.3871 -0.0398  0.0226
10974TIP3    H154337   3.087   3.989   5.704  1.3897  1.1033 -0.1615
10974TIP3    H254338   3.097   3.848   5.649  0.3894  0.1315  2.0899
10975TIP3   OH254339   5.128   4.878   4.839  0.4071  0.1361  0.3478
10975TIP3    H154340   5.179   4.954   4.868  1.5628 -0.2864 -0.5485
10975TIP3    H254341   5.181   4.803   4.866 -0.2529 -0.3322  0.3438
10976TIP3   OH254342   6.120   2.146   1.187 -0.0961  0.3279  0.6433
10976TIP3    H154343   6.205   2.189   1.176 -0.4432  0.6466 -0.8782
10976TIP3    H254344   6.138   2.053   1.170 -0.1370  0.4583 -0.1096
10977TIP3   OH254345   5.001   6.644   4.898 -0.3076  0.0457  0.1323
10977TIP3    H154346   5.062   6.700   4.946 -0.0534  0.3038 -0.4903
10977TIP3    H254347   4.957   6.593   4.966 -0.5591  1.0158  0.7003
10978TIP3   OH254348   3.040   2.604  15.049 -0.5120 -0.0402 -0.4960
10978TIP3    H154349   3.110   2.545  15.023  1.7964  2.7348 -0.8419
10978TIP3    H254350   3.050   2.612  15.144 -0.3949  0.2785 -0.5330
10979TIP3   OH254351   4.217   3.373   4.973 -0.0001 -0.3471 -0.5393
10979TIP3    H154352   4.259   3.291   4.949  2.8228  0.7639  0.4193
10979TIP3    H254353   4.153   3.349   5.039  0.9115 -1.7459 -0.1469
10980TIP3   OH254354   5.763   5.212   2.280  0.2146  0.2703  0.2032
10980TIP3    H154355   5.783   5.120   2.259  2.0243  0.3627  1.4008
10980TIP3    H254356   5.668   5.217   2.274  0.2505 -1.1140 -2.1420
10981TIP3   OH254357   0.548   6.059   2.457 -0.3464  0.1063 -0.1621
10981TIP3    H154358   0.567   6.110   2.536  0.1021  2.5033 -1.7619
10981TIP3    H254359   0.457   6.079   2.437 -0.3612 -0.2554 -0.4607
10982TIP3   OH254360   2.915   5.990   3.549  0.4366  0.5155 -0.7511
10982TIP3    H154361   2.845   5.948   3.498  2.8588 -0.5790 -3.2843
10982TIP3    H254362   2.967   6.036   3.483  2.2758  1.0827  1.0642
10983TIP3   OH254363   3.938   0.606  12.113  0.5824  0.3601  0.5619
10983TIP3    H154364   3.887   0.560  12.180  1.1610 -0.9294  0.1242
10983TIP3    H254365   4.013   0.549  12.096  1.3115  1.4764  0.0190
10984TIP3   OH254366   5.008   6.472   6.152 -0.2795  0.4949  0.2545
10984TIP3    H154367   5.045   6.384   6.153 -2.2446 -0.3494  0.1785
10984TIP3    H254368   4.964   6.481   6.236  1.9647  2.3465  1.3146
10985TIP3   OH254369   1.014   1.402   1.080 -0.1848 -0.8756 -0.0645
10985TIP3    H154370   0.938   1.400   1.021 -0.6376 -1.3207  0.5246
10985TIP3    H254371   0.976   1.398   1.168  0.4501  0.4166  0.2869
10986TIP3   OH254372   5.282   3.130   4.610 -0.0733  0.4066 -0.0022
10986TIP3    H154373   5.290   3.198   4.543  1.5407  1.1307  0.9029
10986TIP3    H254374   5.250   3.053   4.563  0.8346  0.9767 -1.5610
10987TIP3   OH254375   3.440   4.003  15.117  0.0366  0.0542  0.1195
10987TIP3    H154376   3.438   3.982  15.024 -2.5293 -1.1111  0.4018
10987TIP3    H254377   3.414   4.095  15.122 -1.1709 -0.2671 -0.2207
10988TIP3   OH254378   3.559   5.768   1.508  0.1149  0.1726 -0.4292
10988TIP3    H154379   3.608   5.841   1.469  1.0084  0.3951  1.0560
10988TIP3    H254380   3.627   5.705   1.534 -0.4972 -0.1838  0.3043
10989TIP3   OH254381   5.757   6.312   1.228 -0.0628 -0.5896 -0.2179
10989TIP3    H154382   5.777   6.380   1.292  2.0504  0.8377 -2.3191
10989TIP3    H254383   5.820   6.242   1.246 -1.3808 -1.4611  1.1020
10990TIP3   OH254384   5.219   6.051   2.154  0.5033 -0.1241  0.0085
10990TIP3    H154385   5.278   6.027   2.225 -1.2067 -0.5732  1.3087
10990TIP3    H254386   5.226   5.979   2.091  1.4816 -0.0746  0.0530
10991TIP3   OH254387   4.773   1.867   3.156  0.1458  0.4048 -0.3104
10991TIP3    H154388   4.745   1.781   3.124  0.9042  0.6422 -1.6149
10991TIP3    H254389   4.849   1.889   3.103  0.1734  1.7297  0.2672
10992TIP3   OH254390   4.020   5.564  12.438  0.2338 -0.2532  0.0395
10992TIP3    H154391   3.948   5.618  12.405  1.9096  0.4283 -2.7357
10992TIP3    H254392   3.998   5.476  12.410  1.2101  0.1947 -2.2871
10993TIP3   OH254393   3.258   0.665  14.021 -0.1289  0.2123 -0.8217
10993TIP3    H154394   3.195   0.733  13.998 -1.1058 -0.5241 -0.3460
10993TIP3    H254395   3.294   0.637  13.937 -1.7404 -0.6061 -1.2589
10994TIP3   OH254396   5.466   5.274   1.986  0.2395  0.4219 -0.2989
10994TIP3    H154397   5.415   5.214   1.931  1.1430 -1.7978  1.2118
10994TIP3    H254398   5.547   5.289   1.937  0.0013  0.4356 -0.6928
10995TIP3   OH254399   1.576   3.905   1.141 -0.0160 -0.0961 -0.2154
10995TIP3    H154400   1.602   3.948   1.059 -1.4319 -1.0933 -1.2248
10995TIP3    H254401   1.649   3.846   1.162 -0.2228 -0.8390 -1.5170
10996TIP3   OH254402   0.121   0.065   2.149  0.4176 -0.7088  0.7652
10996TIP3    H154403   0.126   0.129   2.221  2.5746  0.9514 -0.8182
10996TIP3    H254404   0.136  -0.019   2.192 -3.0827 -0.2961  2.9920
10997TIP3   OH254405   5.940   3.812   6.250 -0.4246  0.0439  0.1115
10997TIP3    H154406   5.932   3.893   6.301  0.2175 -0.6195  1.2815
10997TIP3    H254407   6.033   3.803   6.233 -0.3024 -1.2610  1.3498
10998TIP3   OH254408   6.394   2.317   0.930 -0.0689  0.1491 -0.5026
10998TIP3    H154409   6.353   2.247   0.880  0.3488  1.2780 -2.4750
10998TIP3    H254410   6.341   2.394   0.911  1.4701  1.0917 -1.0645
10999TIP3   OH254411   3.156   6.183   3.068 -0.1833 -0.4951  0.1321
10999TIP3    H154412   3.247   6.178   3.097 -0.0535  0.7764 -0.0345
10999TIP3    H254413   3.160   6.170   2.973 -0.2605 -1.2692  0.2349
11000TIP3   OH254414   0.305   2.061  14.656 -0.3926  0.4450 -0.8418
11000TIP3    H154415   0.287   2.108  14.738 -0.2095  1.4700 -1.3825
11000TIP3    H254416   0.259   2.111  14.589  2.2397  1.5905 -1.8637
11001TIP3   OH254417   1.948   6.304  15.435 -0.2578  0.7185 -0.3253
11001TIP3    H154418   1.923   6.351  15.515 -0.0018 -0.5373  0.4940
11001TIP3    H254419   1.980   6.219  15.465 -0.7885 -0.0278 -1.8055
11002TIP3   OH254420   2.327   3.023   2.234 -0.1233  0.6937 -0.8227
11002TIP3    H154421   2.290   3.014   2.146 -0.5023  1.3403 -0.7342
11002TIP3    H254422   2.305   3.112   2.260  1.0960  0.9285 -0.5744
11003TIP3   OH254423   0.508   4.723  14.380  0.1872  0.7966 -0.1355
11003TIP3    H154424   0.590   4.675  14.365  0.9260  2.0587 -0.2695
11003TIP3    H254425   0.455   4.665  14.434  0.5881 -0.6411 -1.2622
11004TIP3   OH254426   6.321   3.525  15.306 -0.6737 -0.3743  0.4190
11004TIP3    H154427   6.337   3.489  15.393  1.0292 -0.2625  0.1839
11004TIP3    H254428   6.347   3.455  15.246 -1.7270 -0.4077  0.0010
11005TIP3   OH254429   2.104   2.894   3.953  0.0619  0.4071 -0.2746
11005TIP3    H154430   2.093   2.800   3.940 -0.2296  0.4647 -0.4478
11005TIP3    H254431   2.060   2.934   3.878 -1.9369  0.7616  1.0579
11006TIP3   OH254432   2.853   5.949   1.380 -0.1785 -0.5596 -0.2301
11006TIP3    H154433   2.831   5.889   1.309  1.0497 -0.4476 -0.7094
11006TIP3    H254434   2.949   5.951   1.382 -0.1899 -0.6906  1.5347
11007TIP3   OH254435   5.759   0.177   5.961 -0.5512 -0.0317  0.4415
11007TIP3    H154436   5.766   0.125   5.881 -2.2969  0.5531 -0.0939
11007TIP3    H254437   5.840   0.229   5.963 -1.1809  1.0612 -1.7310
11008TIP3   OH254438   1.512   0.984  15.721  0.4501  0.5731  0.0765
11008TIP3    H154439   1.579   0.966  15.655 -0.9180 -2.7603 -0.4660
11008TIP3    H254440   1.464   0.902  15.730 -2.4875  2.3945  1.7067
11009TIP3   OH254441   3.638   1.608   4.562  0.1253  0.5194 -0.0961
11009TIP3    H154442   3.584   1.604   4.641 -1.3464  1.5918 -1.0220
11009TIP3    H254443   3.725   1.631   4.594 -1.1135  3.9557  0.9540
11010TIP3   OH254444   0.445   1.030  15.234 -0.2444 -0.1456 -0.8799
11010TIP3    H154445   0.527   1.062  15.272 -1.3733  0.3135  1.2499
11010TIP3    H254446   0.466   0.942  15.202  1.2103  0.1879 -0.8628
11011TIP3   OH254447   2.801   3.036   4.652  0.4889 -0.2496 -0.0395
11011TIP3    H154448   2.707   3.037   4.674 -0.2049  1.2840 -2.8736
11011TIP3    H254449   2.833   3.122   4.679  0.5274  0.1112 -1.1952
11012TIP3   OH254450   4.888   4.166  14.308 -0.2519 -0.1582 -0.2207
11012TIP3    H154451   4.938   4.210  14.377 -0.7220 -0.1613  0.1286
11012TIP3    H254452   4.897   4.222  14.231  0.1181 -0.0536 -0.0996
11013TIP3   OH254453   4.270   0.160  13.109  0.5650  0.1729 -0.4991
11013TIP3    H154454   4.305   0.075  13.083 -0.9934  0.5356 -4.0878
11013TIP3    H254455   4.340   0.222  13.086  0.7248  0.1120 -0.1801
11014TIP3   OH254456   0.542   1.734   5.737 -0.4249 -0.2324  0.4487
11014TIP3    H154457   0.577   1.793   5.671 -0.2982  0.2036  0.9071
11014TIP3    H254458   0.611   1.669   5.751 -0.7539 -0.7857 -0.4101
11015TIP3   OH254459   6.512   5.300   5.416 -0.1213  0.6087 -0.6879
11015TIP3    H154460   6.470   5.237   5.475 -0.1340 -0.2324 -1.5892
11015TIP3    H254461   6.604   5.298   5.442 -0.0445 -0.1145 -0.9997
11016TIP3   OH254462   3.638   0.787  15.694 -0.0724  0.1828  0.1615
11016TIP3    H154463   3.598   0.872  15.680 -0.8495 -0.2800 -0.4728
11016TIP3    H254464   3.564   0.726  15.702  0.4756 -0.4802  0.2769
11017TIP3   OH254465   1.620   4.303  12.160 -0.5513 -0.3820 -0.0263
11017TIP3    H154466   1.640   4.349  12.241 -1.2457 -0.8756  0.4270
11017TIP3    H254467   1.564   4.363  12.111  1.2680  0.6399 -0.9102
11018TIP3   OH254468   1.800   0.500   4.049 -0.2946 -0.3722  0.0921
11018TIP3    H154469   1.862   0.478   3.979  1.3471 -1.0153  1.7260
11018TIP3    H254470   1.744   0.423   4.057  0.0371 -0.6162  0.0563
11019TIP3   OH254471   6.441   6.390   0.989  0.0587 -0.2433  0.1041
11019TIP3    H154472   6.492   6.468   0.964 -1.3389  0.7269  0.2079
11019TIP3    H254473   6.462   6.325   0.922 -0.7907  1.1185 -1.5281
11020TIP3   OH254474   2.121   3.878   1.052 -0.2995 -0.0165 -0.6408
11020TIP3    H154475   2.130   3.878   0.957 -1.6419  2.0470 -0.7832
11020TIP3    H254476   2.131   3.785   1.076  2.9223 -0.2208 -2.4557
11021TIP3   OH254477   0.144   5.588  12.888  0.0053 -0.1292 -0.2797
11021TIP3    H154478   0.233   5.613  12.914  0.0937 -0.0172 -0.6981
11021TIP3    H254479   0.117   5.654  12.825 -0.0148 -0.6973 -0.8716
11022TIP3   OH254480   2.364   1.139  16.391  0.3793 -0.0144 -0.1099
11022TIP3    H154481   2.286   1.195  16.389 -0.8559 -1.6879  0.0913
11022TIP3    H254482   2.410   1.158  16.309 -1.7608 -1.0887 -1.6061
11023TIP3   OH254483   5.360   5.500  11.792  0.8799  0.1641 -0.1684
11023TIP3    H154484   5.272   5.512  11.827  0.1339 -0.4776 -1.7889
11023TIP3    H254485   5.412   5.569  11.835 -0.2362  0.1160  1.3110
11024TIP3   OH254486   0.147   6.411  15.699  0.1058  0.1811  0.1138
11024TIP3    H154487   0.196   6.342  15.655  0.4096  1.0098 -0.8765
11024TIP3    H254488   0.071   6.367  15.736  0.1294 -0.6261 -0.7880
11025TIP3   OH254489   0.509   1.940   1.815 -0.0102  0.0146  0.3924
11025TIP3    H154490   0.582   1.920   1.756 -0.6522 -0.9168 -0.0899
11025TIP3    H254491   0.530   1.892   1.895 -0.0784 -0.2198  0.2686
11026TIP3   OH254492   6.042   5.776   2.546 -0.5119 -0.3041 -0.2703
11026TIP3    H154493   6.069   5.867   2.528 -1.6946 -0.2598 -1.9278
11026TIP3    H254494   6.042   5.734   2.460  0.0934 -1.9114  0.5000
11027TIP3   OH254495   4.032   1.385   2.899  0.1881 -0.2452 -0.3873
11027TIP3    H154496   4.044   1.396   2.994 -1.5092 -1.1242 -0.0505
11027TIP3    H254497   4.091   1.313   2.875 -1.8132 -2.2867  0.6286
11028TIP3   OH254498   2.300   2.958   2.721  0.4505 -0.0466 -1.0913
11028TIP3    H154499   2.233   2.967   2.654  1.1773 -0.8517 -1.9469
11028TIP3    H254500   2.285   2.872   2.759 -0.3664  0.6701  0.2474
11029TIP3   OH254501   2.882   3.444  16.186  0.0088 -0.0925  0.4410
11029TIP3    H154502   2.832   3.369  16.220  0.2085 -0.6566 -0.5139
11029TIP3    H254503   2.817   3.513  16.176 -0.8470 -1.1814 -1.9348
11030TIP3   OH254504   5.077   5.171   4.503  0.2089  0.2836  0.5129
11030TIP3    H154505   5.029   5.105   4.552 -0.9891 -0.8322 -2.1292
11030TIP3    H254506   5.022   5.249   4.508 -0.6383 -0.2520 -0.3012
11031TIP3   OH254507   3.533   4.148  17.118 -0.2912  0.6789 -0.1964
11031TIP3    H154508   3.553   4.156  17.025  3.1461  2.5090  0.6215
11031TIP3    H254509   3.451   4.196  17.130 -0.7493  0.4393 -2.2337
11032TIP3   OH254510   2.131   6.587   4.043 -0.2986  0.5782 -0.0326
11032TIP3    H154511   2.165   6.548   4.124 -1.6825 -1.9620 -0.6265
11032TIP3    H254512   2.036   6.581   4.052 -0.4634 -0.9825 -2.3788
11033TIP3   OH254513   0.297   1.270   1.808 -0.1320  0.2041  0.3707
11033TIP3    H154514   0.325   1.203   1.745  2.0675  2.0683 -0.6942
11033TIP3    H254515   0.204   1.283   1.789  0.1130 -0.4347 -1.4028
11034TIP3   OH254516   6.208   3.281  12.304  0.1886  0.9241 -0.0294
11034TIP3    H154517   6.130   3.274  12.249 -0.0639 -0.9102  0.5256
11034TIP3    H254518   6.174   3.298  12.392  0.3663 -0.4094  0.3103
11035TIP3   OH254519   0.508   2.695   0.738 -0.1488 -0.2973 -0.3545
11035TIP3    H154520   0.594   2.719   0.772 -0.1680 -1.0337  0.2364
11035TIP3    H254521   0.462   2.657   0.814 -0.4747 -1.2437 -1.0093
11036TIP3   OH254522   0.992   1.830   1.816  0.0122  0.5613  0.0829
11036TIP3    H154523   1.054   1.897   1.784 -0.6337  0.7320 -0.8382
11036TIP3    H254524   0.966   1.862   1.902  0.6820  0.8475  0.1874
11037TIP3   OH254525   5.117   4.721  12.033 -0.5956  0.2339  0.9418
11037TIP3    H154526   5.117   4.627  12.021 -0.6112  0.3663 -0.1475
11037TIP3    H254527   5.092   4.757  11.948 -1.1171  1.2062  1.4800
11038TIP3   OH254528   2.486   3.818  11.767 -0.7910 -0.2013 -0.6582
11038TIP3    H154529   2.402   3.843  11.806 -1.1013  0.0044 -1.4404
11038TIP3    H254530   2.513   3.740  11.816 -1.5874 -0.4525 -0.6083
11039TIP3   OH254531   5.360   1.952  13.614  1.2729  0.8043 -0.3203
11039TIP3    H154532   5.275   1.994  13.608  1.3719  1.2794  1.5559
11039TIP3    H254533   5.343   1.860  13.592  0.3368  0.9491 -0.1975
11040TIP3   OH254534   1.845   5.271   0.831  0.0789  0.0255 -0.1081
11040TIP3    H154535   1.814   5.269   0.921  0.6126  1.2154  0.1207
11040TIP3    H254536   1.920   5.331   0.833 -0.0061  0.1938 -1.3621
11041TIP3   OH254537   3.118   5.518   5.727  0.0168  0.1920  0.1904
11041TIP3    H154538   3.135   5.450   5.792  0.8821  0.2544  0.0332
11041TIP3    H254539   3.064   5.582   5.773  1.1036  0.5212  1.0290
11042TIP3   OH254540   3.583   1.260   3.770 -0.3176  0.2177 -0.2475
11042TIP3    H154541   3.675   1.289   3.766  0.6806 -2.0605  3.7837
11042TIP3    H254542   3.537   1.333   3.813  0.4667 -0.3221  1.5728
11043TIP3   OH254543   4.379   3.188  12.117  0.7028 -0.0306  0.3004
11043TIP3    H154544   4.311   3.255  12.112  0.9939  0.3803  1.6415
11043TIP3    H254545   4.388   3.156  12.027 -0.2711  0.8946 -0.1353
11044TIP3   OH254546   3.050   4.607   1.502 -0.3793 -0.5975 -0.3820
11044TIP3    H154547   2.990   4.539   1.532 -0.0816 -0.9171 -0.5161
11044TIP3    H254548   3.049   4.673   1.572 -0.9040 -0.5907 -0.3950
11045TIP3   OH254549   5.419   4.673  16.615  0.0670 -0.2385 -0.3231
11045TIP3    H154550   5.486   4.623  16.568  1.4133  0.7526  0.5097
11045TIP3    H254551   5.366   4.713  16.546  0.8742 -0.3063 -0.9899
11046TIP3   OH254552   0.054   0.411   3.206  0.1875 -0.1713  0.3541
11046TIP3    H154553  -0.018   0.400   3.143  0.7286 -0.1167 -0.2831
11046TIP3    H254554   0.101   0.328   3.203  0.1337 -0.2201  0.7984
11047TIP3   OH254555   5.005   5.737  15.678 -0.3012 -0.2911 -0.1855
11047TIP3    H154556   5.063   5.666  15.650  1.3387  0.9048  0.1270
11047TIP3    H254557   5.058   5.789  15.738 -1.6949  0.8405  0.0806
11048TIP3   OH254558   2.825   5.751   5.257 -0.3122 -0.4712  0.3295
11048TIP3    H154559   2.842   5.798   5.338 -0.5223  2.1933 -1.1136
11048TIP3    H254560   2.741   5.786   5.226 -1.8840 -3.7803  0.5603
11049TIP3   OH254561   1.589   6.289  16.327 -0.0110 -0.4436  0.7406
11049TIP3    H154562   1.634   6.210  16.297  0.5688 -0.7614  2.4154
11049TIP3    H254563   1.552   6.327  16.247 -1.2689 -2.9906  0.0445
11050TIP3   OH254564   5.630   4.485   1.636 -0.2878 -0.1632  0.2214
11050TIP3    H154565   5.675   4.516   1.714 -0.8477  0.4137  0.3247
11050TIP3    H254566   5.592   4.564   1.598  1.0552 -0.2432 -1.3358
11051TIP3   OH254567   0.687   4.531  13.163  0.1060  0.2879 -0.5111
11051TIP3    H154568   0.782   4.545  13.164  0.1005  0.3335 -0.7438
11051TIP3    H254569   0.676   4.437  13.153  0.1227  0.3377 -1.0099
11052TIP3   OH254570   1.790   3.640   3.037 -0.2926  0.2353 -0.4421
11052TIP3    H154571   1.796   3.661   3.130 -1.7018 -0.3021 -0.2193
11052TIP3    H254572   1.874   3.669   3.001  0.3845  0.1989  1.0376
11053TIP3   OH254573   5.021   3.845   2.001 -0.6020  0.1479  0.0187
11053TIP3    H154574   4.994   3.900   2.074 -0.6657  2.0887 -1.4126
11053TIP3    H254575   4.943   3.835   1.947 -0.7986 -2.0423  0.6544
11054TIP3   OH254576   0.132   4.081   2.000 -0.1429  0.4160  0.0027
11054TIP3    H154577   0.183   4.158   2.026 -0.4785  0.3547  0.8796
11054TIP3    H254578   0.195   4.023   1.959  0.2993  0.7556  0.1996
11055TIP3   OH254579   3.314   1.746   1.818 -0.4407 -0.0243  0.0586
11055TIP3    H154580   3.318   1.695   1.737 -1.5057 -1.3925  0.8494
11055TIP3    H254581   3.232   1.795   1.811 -0.3507  0.1412  0.1545
11056TIP3   OH254582   3.841   2.182  15.657  0.1068 -0.5423 -0.1645
11056TIP3    H154583   3.915   2.190  15.598  2.2041  0.1905  2.4718
11056TIP3    H254584   3.851   2.096  15.697  0.6555  0.3030  1.5872
11057TIP3   OH254585   6.377   6.618   1.487  0.0888  0.7637 -0.4150
11057TIP3    H154586   6.307   6.589   1.546 -0.0324 -0.8523 -1.3419
11057TIP3    H254587   6.336   6.619   1.400  1.2091 -0.1864 -0.9631
11058TIP3   OH254588   0.771   1.398  11.421 -0.4115 -0.1277 -0.0120
11058TIP3    H154589   0.777   1.303  11.415  1.5982 -0.0276  0.0546
11058TIP3    H254590   0.685   1.415  11.459 -1.2858 -1.8638 -1.1645
11059TIP3   OH254591   6.587   6.420  13.696  0.6404  0.2888 -0.3223
11059TIP3    H154592   6.621   6.412  13.607  0.4024 -1.7644 -0.2447
11059TIP3    H254593   6.663   6.443  13.749  0.7036  1.9303 -1.1069
11060TIP3   OH254594   6.239   2.115  13.119 -0.3243 -0.3656  0.0062
11060TIP3    H154595   6.186   2.089  13.195 -1.2525 -0.6480 -0.7244
11060TIP3    H254596   6.322   2.068  13.130 -0.5207 -0.5442  0.7467
11061TIP3   OH254597   4.128   4.774   5.672  0.2209  0.8077  0.4708
11061TIP3    H154598   4.109   4.844   5.609 -1.3898  1.0808  1.2313
11061TIP3    H254599   4.050   4.719   5.670  1.2788 -0.7102  0.2415
11062TIP3   OH254600   0.487   1.964  15.299 -0.0507  0.1851 -0.3999
11062TIP3    H154601   0.473   1.901  15.370 -0.2936  1.1373  0.4060
11062TIP3    H254602   0.581   1.979  15.299 -0.2713  1.7876  1.1418
11063TIP3   OH254603   0.444   4.068   5.557 -0.4549  0.4981  0.2313
11063TIP3    H154604   0.404   3.982   5.548  0.3072  0.0500  1.0621
11063TIP3    H254605   0.487   4.083   5.472 -1.0828  0.3217 -0.1226
11064TIP3   OH254606   6.634   3.103   1.973  0.6284  0.1822 -0.5906
11064TIP3    H154607   6.546   3.139   1.983  0.2453 -0.6555 -0.8523
11064TIP3    H254608   6.692   3.169   2.012 -0.1337  0.6281 -0.1982
11065TIP3   OH254609   4.326   3.991   3.977  0.5680 -0.0841 -0.4317
11065TIP3    H154610   4.269   3.953   3.910 -0.6351  0.4250  0.2963
11065TIP3    H254611   4.411   3.948   3.963 -0.5626 -2.4853 -0.0997
11066TIP3   OH254612   3.959   6.145   2.184 -0.0393  0.0676 -0.1151
11066TIP3    H154613   3.955   6.095   2.265  1.0327  0.5535  0.2524
11066TIP3    H254614   4.049   6.134   2.153  0.3510  2.0773  0.1956
11067TIP3   OH254615   1.282   3.856  16.826 -0.3998 -0.0157 -0.4941
11067TIP3    H154616   1.326   3.840  16.910 -0.7012 -2.5257 -0.7753
11067TIP3    H254617   1.348   3.902  16.773  0.5435 -0.2961  0.4170
11068TIP3   OH254618   6.532   2.163  12.106 -0.4012 -1.1849 -0.0243
11068TIP3    H154619   6.612   2.171  12.158 -0.7264 -0.1742  0.3258
11068TIP3    H254620   6.474   2.231  12.140  0.2541  1.1270 -3.2876
11069TIP3   OH254621   1.543   5.706  12.488 -0.2970  0.4248  0.3199
11069TIP3    H154622   1.574   5.615  12.493 -0.6159  0.3502  0.9810
11069TIP3    H254623   1.564   5.743  12.574 -2.1980  0.3208  0.8565
11070TIP3   OH254624   3.964   5.577  12.737  0.1143  0.4154 -0.6060
11070TIP3    H154625   4.030   5.543  12.797 -0.9711 -1.3526 -0.3801
11070TIP3    H254626   4.011   5.589  12.654  0.7887 -0.5661 -0.3749
11071TIP3   OH254627   5.164   6.064   4.209 -0.5829 -0.1145  0.2919
11071TIP3    H154628   5.150   6.097   4.120 -2.6996 -0.3572  0.5015
11071TIP3    H254629   5.150   5.969   4.201  2.1127 -0.5778  0.3501
11072TIP3   OH254630   5.708   0.361  11.881 -0.3106 -0.2089 -0.1937
11072TIP3    H154631   5.752   0.276  11.876 -2.3844 -1.2370 -1.6773
11072TIP3    H254632   5.736   0.407  11.802 -1.1520 -0.4944 -0.6591
11073TIP3   OH254633   1.729   1.331  16.001 -0.1192  0.5965  0.3823
11073TIP3    H154634   1.814   1.315  16.040  0.3074  1.2902 -0.2499
11073TIP3    H254635   1.693   1.244  15.984 -0.0487  0.2890  1.7358
11074TIP3   OH254636   4.482   0.934   1.813 -0.2667 -0.0653 -0.1644
11074TIP3    H154637   4.539   0.876   1.763  0.0718 -0.3334  0.5240
11074TIP3    H254638   4.403   0.883   1.828 -0.6537  0.2748 -1.0436
11075TIP3   OH254639   0.129   1.775   2.307 -0.3381 -0.3662 -0.2219
11075TIP3    H154640   0.054   1.765   2.366  1.2478 -0.0536  1.9176
11075TIP3    H254641   0.165   1.861   2.329  1.2410 -0.9388 -0.4830
11076TIP3   OH254642   6.047   3.051   1.712 -0.1163 -0.0906 -0.3295
11076TIP3    H154643   5.988   2.976   1.720  0.3815 -0.4485  0.0990
11076TIP3    H254644   6.057   3.082   1.802 -2.1993  1.9859 -0.7633
11077TIP3   OH254645   2.515   2.407  14.847  0.5134 -0.0644 -0.6177
11077TIP3    H154646   2.563   2.395  14.928  0.5507  1.1465 -0.4506
11077TIP3    H254647   2.575   2.375  14.779  1.2555  0.7446 -0.3466
11078TIP3   OH254648   1.136   3.280   2.853  0.5643 -0.6220 -0.3478
11078TIP3    H154649   1.225   3.310   2.832  1.1191 -1.5746  0.6012
11078TIP3    H254650   1.141   3.185   2.848  0.5778 -0.8925  3.4055
11079TIP3   OH254651   2.876   3.608   4.667  0.2058 -0.3109  0.2538
11079TIP3    H154652   2.901   3.623   4.576  0.7573  0.0247  0.4566
11079TIP3    H254653   2.915   3.681   4.715 -1.4034  0.3749  0.5518
11080TIP3   OH254654   3.620   0.949   0.600 -0.4051 -0.0218 -0.4307
11080TIP3    H154655   3.539   0.908   0.631 -0.4690  1.2637  1.1665
11080TIP3    H254656   3.593   1.001   0.524 -0.6215 -1.5350 -1.4083
11081TIP3   OH254657   0.261   1.050   4.336  0.0586  0.7489  0.2054
11081TIP3    H154658   0.228   1.032   4.248  2.3125  1.1751 -0.7611
11081TIP3    H254659   0.300   0.967   4.365 -0.1411  0.7780  0.5651
11082TIP3   OH254660   6.011   3.093  16.931 -0.6691 -0.4136 -0.2184
11082TIP3    H154661   5.968   3.112  17.015 -2.4678  1.3608 -1.5127
11082TIP3    H254662   6.094   3.141  16.936 -1.2244  0.5188  0.1432
11083TIP3   OH254663   3.543   0.993  12.810  0.4822  0.2246  0.0364
11083TIP3    H154664   3.581   1.010  12.895 -0.9540  1.4447  0.4589
11083TIP3    H254665   3.612   0.948  12.761  1.8891  0.9910  1.2768
11084TIP3   OH254666   5.516   0.912   4.406  0.3809  0.1652 -0.6241
11084TIP3    H154667   5.495   0.979   4.472 -0.5921 -0.0029 -0.7474
11084TIP3    H254668   5.459   0.934   4.332 -2.3501 -2.6762  0.5165
11085TIP3   OH254669   3.833   4.528  11.465 -0.7048  0.4813  0.1021
11085TIP3    H154670   3.900   4.461  11.452 -1.5283 -0.3133 -0.0700
11085TIP3    H254671   3.753   4.479  11.486 -1.4633  1.3738 -0.6676
11086TIP3   OH254672   2.969   3.091   5.410 -0.1211  0.0638  0.2687
11086TIP3    H154673   2.958   3.010   5.360  1.9461 -0.2120  0.2304
11086TIP3    H254674   2.976   3.160   5.343 -2.6227  0.4133  0.3117
11087TIP3   OH254675   6.197   0.496   1.636  0.0075  0.2124  0.3838
11087TIP3    H154676   6.165   0.536   1.555  1.6986 -2.4704 -1.6913
11087TIP3    H254677   6.242   0.567   1.682 -3.4115  2.4806  0.3997
11088TIP3   OH254678   2.528   6.482  13.811 -0.1582 -0.4967  0.2193
11088TIP3    H154679   2.597   6.429  13.851 -0.2549 -0.3959  0.5127
11088TIP3    H254680   2.573   6.530  13.741 -0.2358 -1.6401 -0.6394
11089TIP3   OH254681   0.833   4.889  14.811  0.0450 -0.6356 -0.0651
11089TIP3    H154682   0.906   4.863  14.756  1.4158 -1.6067  2.1175
11089TIP3    H254683   0.764   4.826  14.792  0.1266 -0.3151 -1.4156
11090TIP3   OH254684   5.879   1.818  11.474  0.1332  0.0033  0.2963
11090TIP3    H154685   5.828   1.781  11.545 -1.0134 -0.6238 -0.8325
11090TIP3    H254686   5.941   1.749  11.450 -0.5751 -0.4113 -0.3823
11091TIP3   OH254687   0.219   5.479   4.678 -0.4589  0.0058 -0.2604
11091TIP3    H154688   0.238   5.470   4.771 -0.8743 -2.4930 -0.4055
11091TIP3    H254689   0.139   5.532   4.675 -2.4035 -2.7298  0.9875
11092TIP3   OH254690   3.395   5.521   3.762  0.6018 -0.0723 -0.0791
11092TIP3    H154691   3.306   5.535   3.730  0.8412  1.5871 -0.0857
11092TIP3    H254692   3.386   5.455   3.831 -0.7155  0.5688  0.3759
11093TIP3   OH254693   5.745   3.946   5.269 -0.9380  0.1126 -0.9233
11093TIP3    H154694   5.803   4.022   5.281 -0.6988  0.0030 -1.3814
11093TIP3    H254695   5.797   3.872   5.302 -1.6752  0.3273  0.7766
11094TIP3   OH254696   0.671   4.126   5.760  0.4611 -0.4203 -0.9804
11094TIP3    H154697   0.726   4.053   5.790 -0.0700 -1.0524 -1.5263
11094TIP3    H254698   0.623   4.090   5.685 -2.1793 -0.5139  0.6992
11095TIP3   OH254699   3.857   5.044   0.722 -0.6978  0.1319 -0.0963
11095TIP3    H154700   3.852   4.950   0.741 -0.5250  0.2760  0.6952
11095TIP3    H254701   3.826   5.052   0.632  1.1172 -0.9064 -0.8442
11096TIP3   OH254702   6.066   4.520  14.493  1.0493  0.5036  0.0023
11096TIP3    H154703   5.977   4.548  14.516  1.1182 -0.4079  1.4247
11096TIP3    H254704   6.063   4.509  14.398 -0.4171  0.3486  0.0420
11097TIP3   OH254705   4.991   2.363   4.031  0.4983  0.0824  0.1393
11097TIP3    H154706   4.982   2.427   3.961 -2.7544 -0.1692  0.2701
11097TIP3    H254707   4.999   2.278   3.987  0.6396  0.1469  0.0423
11098TIP3   OH254708   6.297   2.117  15.520 -0.1091  0.2067 -0.1472
11098TIP3    H154709   6.233   2.156  15.578  0.8137  0.3427  0.7913
11098TIP3    H254710   6.356   2.189  15.498  2.1077 -0.7767  2.2802
11099TIP3   OH254711   0.856   4.910  12.360  0.1259 -0.0828 -0.2783
11099TIP3    H154712   0.814   4.824  12.358 -1.0667  0.4432  1.5003
11099TIP3    H254713   0.784   4.972  12.369  0.9430  1.1636 -2.1028
11100TIP3   OH254714   3.613   5.542  16.627  0.2740  0.0031 -0.1092
11100TIP3    H154715   3.669   5.495  16.688  2.1177  1.1623 -0.8474
11100TIP3    H254716   3.674   5.598  16.578 -1.5855  1.5670 -0.6833
11101TIP3   OH254717   6.551   4.653  14.700  0.0778  0.0250 -0.2251
11101TIP3    H154718   6.487   4.683  14.766 -1.9625 -1.7434 -1.3409
11101TIP3    H254719   6.503   4.655  14.618  1.0942 -2.4895 -0.9168
11102TIP3   OH254720   0.746   2.476   2.305  0.3113  0.4486 -0.1534
11102TIP3    H154721   0.746   2.453   2.398  0.4208  1.7903  0.1834
11102TIP3    H254722   0.820   2.427   2.269  0.4461  0.1465  0.5213
11103TIP3   OH254723   1.972   1.259  16.104 -0.3737  0.0056 -0.3156
11103TIP3    H154724   1.940   1.244  16.192 -1.4182  0.7598 -0.5600
11103TIP3    H254725   2.035   1.332  16.113  0.1221 -0.4486 -0.0787
11104TIP3   OH254726   5.713   1.433  12.899 -0.4581 -0.4041  0.2218
11104TIP3    H154727   5.774   1.429  12.972 -3.1599 -2.8428  2.5012
11104TIP3    H254728   5.730   1.353  12.850 -0.9702 -0.4919  0.1851
11105TIP3   OH254729   2.235   4.980  14.110 -0.0423  0.1316 -0.0092
11105TIP3    H154730   2.219   5.041  14.182  0.8395  1.0358 -0.5673
11105TIP3    H254731   2.148   4.961  14.074 -0.3306  0.9913  0.2326
11106TIP3   OH254732   4.642   3.274   0.858 -0.1502  0.1231 -0.4512
11106TIP3    H154733   4.733   3.278   0.829  0.3391 -1.3331  0.8767
11106TIP3    H254734   4.623   3.363   0.890  0.9820  0.2686 -0.1688
11107TIP3   OH254735   1.319   1.240   6.010  0.2998 -0.2263  0.0980
11107TIP3    H154736   1.396   1.185   6.001  0.5248  0.0846  0.1267
11107TIP3    H254737   1.245   1.182   5.989  0.8075  0.5862 -4.4942
11108TIP3   OH254738   4.345   5.915  11.156 -0.6210  0.2289  0.4599
11108TIP3    H154739   4.263   5.870  11.139 -0.5971 -0.2889  1.6917
11108TIP3    H254740   4.392   5.911  11.072 -1.5409 -0.0905 -0.0467
11109TIP3   OH254741   0.756   5.988   0.792 -0.0851  0.4052 -0.0924
11109TIP3    H154742   0.718   6.054   0.735  1.5386  0.8022 -0.7232
11109TIP3    H254743   0.794   5.923   0.733 -0.4989 -0.4138  0.5245
11110TIP3   OH254744   0.520   0.184  14.595 -0.2226 -0.4303 -0.2451
11110TIP3    H154745   0.535   0.193  14.500 -1.4835  1.5838 -0.2787
11110TIP3    H254746   0.608   0.189  14.633  0.1951 -0.1022 -1.2256
11111TIP3   OH254747   2.768   3.728   1.998  0.8601 -0.4461 -0.0720
11111TIP3    H154748   2.736   3.658   1.943  0.6726 -0.4121 -0.0050
11111TIP3    H254749   2.744   3.809   1.952  2.0211 -0.4361 -0.6880
11112TIP3   OH254750   6.638   6.106  13.811  0.1704 -0.0794  0.1168
11112TIP3    H154751   6.645   6.196  13.779 -0.8360 -0.3868 -0.9828
11112TIP3    H254752   6.712   6.096  13.872  0.4410  1.3950  0.0309
11113TIP3   OH254753   3.930   1.845  15.484 -0.1667  0.7694  0.0616
11113TIP3    H154754   3.847   1.804  15.509  1.1480 -1.6771  0.4943
11113TIP3    H254755   3.966   1.879  15.566 -0.3267  1.0836  0.0028
11114TIP3   OH254756   1.093   5.624   1.104  0.3182 -0.2790 -0.0038
11114TIP3    H154757   1.112   5.716   1.087  1.2587  0.0186  2.4106
11114TIP3    H254758   1.033   5.625   1.179  0.3247 -1.6172  0.0344
11115TIP3   OH254759   1.582   6.060  12.728 -0.2204 -0.4745 -0.1046
11115TIP3    H154760   1.676   6.075  12.713 -0.7507  4.3003  0.5558
11115TIP3    H254761   1.538   6.126  12.675 -3.0957 -0.7595  1.7932
11116TIP3   OH254762   3.267   4.097  12.642 -0.2307 -0.0885  0.0631
11116TIP3    H154763   3.222   4.070  12.722  0.3125 -0.5612  0.2153
11116TIP3    H254764   3.259   4.022  12.583  0.5191 -0.2511  0.1642
11117TIP3   OH254765   6.494   0.275   2.757  0.1989 -0.4025 -0.3123
11117TIP3    H154766   6.408   0.283   2.716 -1.2743  1.7770  2.9063
11117TIP3    H254767   6.482   0.209   2.825  0.8259  0.4382  0.6370
11118TIP3   OH254768   1.568   4.347  10.714 -0.4318 -0.6956 -0.0126
11118TIP3    H154769   1.635   4.376  10.652  1.0333 -0.5375  1.6075
11118TIP3    H254770   1.511   4.423  10.724 -0.9755 -0.8871 -1.5339
11119TIP3   OH254771   5.248   0.063   1.321 -0.1245  0.0023  0.2484
11119TIP3    H154772   5.184   0.100   1.383 -0.5421 -1.0214  0.4377
11119TIP3    H254773   5.264   0.133   1.259 -1.0973  0.4277  0.4655
11120TIP3   OH254774   6.243   4.831   0.828  0.2892 -0.9701 -0.1391
11120TIP3    H154775   6.259   4.910   0.880 -3.0921 -0.9568  1.0207
11120TIP3    H254776   6.287   4.848   0.745  2.0531  0.8973  1.1290
11121TIP3   OH254777   0.107   5.910   6.301 -0.0426 -0.2927  0.0704
11121TIP3    H154778   0.089   5.840   6.239 -1.4445  0.9066 -0.9095
11121TIP3    H254779   0.048   5.981   6.275  0.6486  0.8906  1.6477
11122TIP3   OH254780   0.447   2.123  11.944 -0.0493  0.2979 -0.2342
11122TIP3    H154781   0.540   2.099  11.945 -0.2436 -0.4307  0.9129
11122TIP3    H254782   0.405   2.058  12.000 -1.3431  0.2996 -1.1932
11123TIP3   OH254783   0.071   3.685   0.278  0.4016 -1.3437  0.1664
11123TIP3    H154784   0.094   3.611   0.335 -0.0518 -1.2242  0.5081
11123TIP3    H254785   0.013   3.647   0.211 -0.8699 -1.0691  1.0793
11124TIP3   OH254786   1.580   0.232  14.295 -0.7321  0.0646  0.0972
11124TIP3    H154787   1.622   0.266  14.215 -0.1869 -3.5463 -1.2433
11124TIP3    H254788   1.486   0.237  14.277 -0.6687  0.9882 -0.0090
11125TIP3   OH254789   1.741   1.723   1.691  1.1273 -0.0165 -0.5537
11125TIP3    H154790   1.647   1.721   1.677  0.5418  1.4539  2.7703
11125TIP3    H254791   1.760   1.645   1.743  1.9869 -0.9616 -2.2145
11126TIP3   OH254792   0.897   5.064   3.199  0.2604  0.3111  0.1052
11126TIP3    H154793   0.980   5.092   3.238  0.3941 -0.3988  0.3361
11126TIP3    H254794   0.854   5.014   3.269  0.2230 -0.4361 -0.4520
11127TIP3   OH254795   2.757   5.231  14.232 -0.6447  0.1915 -0.0664
11127TIP3    H154796   2.738   5.290  14.159  0.0872 -0.9801 -1.2308
11127TIP3    H254797   2.771   5.289  14.307 -1.1047  1.4267 -0.9135
11128TIP3   OH254798   2.436   6.188  16.848 -0.1594  0.8872  0.0274
11128TIP3    H154799   2.531   6.179  16.858 -0.2893 -0.6270  0.0627
11128TIP3    H254800   2.425   6.261  16.787  1.0733  0.3492 -0.8714
11129TIP3   OH254801   3.485   4.786  15.573  0.9279  0.2858 -0.0652
11129TIP3    H154802   3.539   4.859  15.542 -0.3282  0.9391 -0.7365
11129TIP3    H254803   3.523   4.709  15.530  2.4846  0.4697  0.9274
11130TIP3   OH254804   5.669   1.138  12.260 -0.2208 -0.5108 -0.1717
11130TIP3    H154805   5.615   1.139  12.182  0.0360 -0.0898 -0.3522
11130TIP3    H254806   5.682   1.231  12.281 -1.5148 -0.6318  1.2319
11131TIP3   OH254807   2.901   0.883  11.029  0.6019 -0.6655 -0.5399
11131TIP3    H154808   2.877   0.813  11.091 -0.0405  0.3712  0.4045
11131TIP3    H254809   2.989   0.908  11.055 -0.3987  1.1148  1.2485
11132TIP3   OH254810   2.349   4.279   3.330 -0.6669  0.1199 -0.6953
11132TIP3    H154811   2.406   4.347   3.367 -0.8344 -0.1753  0.1336
11132TIP3    H254812   2.390   4.255   3.247 -0.7274  1.3842 -1.0890
11133TIP3   OH254813   0.659   6.309  11.414 -0.0448 -0.1481  0.6661
11133TIP3    H154814   0.746   6.322  11.450  0.4301 -1.7107  0.1028
11133TIP3    H254815   0.674   6.264  11.331 -1.3020  0.8269 -0.1174
11134TIP3   OH254816   0.546   3.029   2.053 -0.3049 -0.1254 -0.3085
11134TIP3    H154817   0.609   2.981   2.107 -0.8816 -0.4598  0.0712
11134TIP3    H254818   0.507   3.093   2.113 -0.0823  0.3178 -0.6275
11135TIP3   OH254819   3.523   0.919   0.123 -0.2232  0.1498  0.0298
11135TIP3    H154820   3.502   0.838   0.169 -0.7314 -0.2654 -0.9285
11135TIP3    H254821   3.615   0.936   0.144  0.0627 -1.0078 -0.2837
11136TIP3   OH254822   4.406   5.918   4.624  0.0956  0.5665  0.0995
11136TIP3    H154823   4.443   5.853   4.683  0.6454 -0.2014 -1.0719
11136TIP3    H254824   4.340   5.964   4.677  1.0679  0.3768  1.5048
11137TIP3   OH254825   6.415   0.930   0.391  0.1205 -0.1930 -0.3714
11137TIP3    H154826   6.358   0.854   0.382  0.0434 -0.0298 -1.3252
11137TIP3    H254827   6.499   0.894   0.417 -0.0861 -0.5508 -0.2010
11138TIP3   OH254828   3.462   0.335   2.037  0.4016 -0.4104  0.5642
11138TIP3    H154829   3.421   0.310   1.954  2.0827 -0.5848 -0.2242
11138TIP3    H254830   3.389   0.364   2.091 -0.7306 -0.3781 -0.9397
11139TIP3   OH254831   5.283   1.450  16.473 -0.1448 -0.1045  0.2984
11139TIP3    H154832   5.320   1.536  16.452 -0.0968 -0.7800 -2.5292
11139TIP3    H254833   5.225   1.467  16.547  0.1166  2.2996 -0.0019
11140TIP3   OH254834   3.252   4.348   2.835  0.5903 -0.0549 -0.1857
11140TIP3    H154835   3.332   4.379   2.794  0.4164  0.2145 -0.3219
11140TIP3    H254836   3.205   4.303   2.765  1.5872 -2.0656  0.3944
11141TIP3   OH254837   5.036   2.608  11.464 -0.4508  0.1715 -0.1929
11141TIP3    H154838   4.985   2.603  11.383  1.5131  1.1796 -1.5219
11141TIP3    H254839   5.126   2.625  11.435  0.2243  0.8518  2.2172
11142TIP3   OH254840   5.551   4.136   1.038 -0.6875 -0.6087 -0.1714
11142TIP3    H154841   5.590   4.212   0.996  2.1282 -0.9172  1.7757
11142TIP3    H254842   5.553   4.068   0.971  0.4169 -0.0897 -0.6738
11143TIP3   OH254843   3.837   6.250  13.737 -0.3077 -0.1075 -0.1380
11143TIP3    H154844   3.776   6.276  13.668 -0.8510 -1.3641 -0.1464
11143TIP3    H254845   3.786   6.255  13.818  0.6172  2.3970  0.3615
11144TIP3   OH254846   1.551   0.891  11.887 -0.6646 -0.2153  0.2062
11144TIP3    H154847   1.486   0.825  11.910 -1.5093  0.1520 -1.0323
11144TIP3    H254848   1.503   0.974  11.892 -0.7666 -0.0743 -2.2784
11145TIP3   OH254849   3.802   2.851   1.020  0.1217 -0.0337  0.1486
11145TIP3    H154850   3.721   2.800   1.017  0.1955 -0.1879  0.7740
11145TIP3    H254851   3.776   2.936   1.055  0.1140  0.1507 -0.2927
11146TIP3   OH254852   0.627   0.632  13.754 -0.2228 -0.1410  0.5685
11146TIP3    H154853   0.560   0.652  13.688 -0.5164 -0.7627  0.6783
11146TIP3    H254854   0.646   0.540  13.742 -0.2159 -0.2352  1.2951
11147TIP3   OH254855   6.229   0.315   3.039  0.2723  0.4401  0.4803
11147TIP3    H154856   6.237   0.324   3.134 -0.3295  1.9171  0.4059
11147TIP3    H254857   6.304   0.363   3.004  1.2990 -1.3167  0.2304
11148TIP3   OH254858   6.037   6.080   3.999 -0.3580 -0.5733  0.7278
11148TIP3    H154859   6.062   6.168   4.029  0.2028 -0.5285  0.1352
11148TIP3    H254860   6.043   6.026   4.077 -1.3460  0.0411  1.2451
11149TIP3   OH254861   1.844   5.477   2.013 -0.2897  0.1744  0.3669
11149TIP3    H154862   1.806   5.530   1.943 -0.2321 -0.8308 -0.4349
11149TIP3    H254863   1.917   5.431   1.972 -0.8340 -1.1422  0.8408
11150TIP3   OH254864   2.379   3.774  12.648 -0.4233 -0.1825  0.4352
11150TIP3    H154865   2.293   3.795  12.686 -1.2358 -1.7654 -0.4377
11150TIP3    H254866   2.389   3.680  12.663  0.7764 -0.1745 -0.2509
11151TIP3   OH254867   6.013   4.127  11.583 -0.3072  0.6392 -1.1717
11151TIP3    H154868   6.072   4.066  11.628  0.0172  0.5738 -1.6838
11151TIP3    H254869   5.938   4.073  11.558 -1.9259  1.3385  2.0495
11152TIP3   OH254870   4.005   1.239  16.146  0.1008 -0.0250  0.6637
11152TIP3    H154871   3.934   1.176  16.141  1.2441 -1.3001  0.2949
11152TIP3    H254872   4.085   1.186  16.145  1.1287  1.4877 -1.2320
11153TIP3   OH254873   5.928   1.031  14.172  0.2470  0.0681  0.2414
11153TIP3    H154874   5.840   1.054  14.201  0.1977 -1.4065  1.3306
11153TIP3    H254875   5.979   1.111  14.184 -0.7014  0.6257  0.6149
11154TIP3   OH254876   2.568   1.853  14.583  0.0377 -0.5027  0.3310
11154TIP3    H154877   2.658   1.825  14.569  0.6182  1.3448  0.1306
11154TIP3    H254878   2.515   1.778  14.559  1.5238 -1.5621  0.3015
11155TIP3   OH254879   0.247   1.697   6.232 -0.4031 -0.0768  0.2618
11155TIP3    H154880   0.278   1.766   6.290 -1.2197  0.6994 -0.2240
11155TIP3    H254881   0.256   1.617   6.284  2.5205  0.0835  0.1003
11156TIP3   OH254882   6.258   4.286   0.948 -0.2699 -0.5849 -0.5567
11156TIP3    H154883   6.300   4.346   1.009  0.5031 -0.2770 -1.3687
11156TIP3    H254884   6.165   4.292   0.968 -0.0470 -0.2917  0.4072
11157TIP3   OH254885   5.446   1.099  14.959  0.0454 -0.8090  0.2092
11157TIP3    H154886   5.507   1.037  15.000  0.7747  1.7714  3.1882
11157TIP3    H254887   5.492   1.130  14.881  0.9854 -1.5877  0.4431
11158TIP3   OH254888   0.042   2.993  12.980 -0.3598  0.3337  0.3460
11158TIP3    H154889   0.031   3.038  13.064 -2.5955  1.2144 -0.3896
11158TIP3    H254890   0.117   3.036  12.940 -0.3237  1.0607  1.1739
11159TIP3   OH254891   2.024   4.563  15.952 -0.4136  0.2463 -0.2766
11159TIP3    H154892   2.088   4.567  16.023 -0.6624  0.7570 -0.0719
11159TIP3    H254893   1.962   4.496  15.979 -0.4339  0.3462 -0.0698
11160TIP3   OH254894   4.693   5.376   3.392 -0.2433  0.1192  0.2125
11160TIP3    H154895   4.785   5.356   3.410 -0.7227 -0.7907  1.7342
11160TIP3    H254896   4.679   5.461   3.434  0.0182  0.4865 -0.4334
11161TIP3   OH254897   6.699   0.489   4.813  0.1973  0.0720  0.0258
11161TIP3    H154898   6.762   0.542   4.764 -0.7195 -0.4640 -1.7367
11161TIP3    H254899   6.703   0.403   4.772 -1.3416 -0.0936  0.2134
11162TIP3   OH254900   4.562   0.838   0.307 -0.5636  1.0854  0.3144
11162TIP3    H154901   4.634   0.804   0.359 -1.0965 -1.1364 -0.3654
11162TIP3    H254902   4.557   0.931   0.330  1.6456  0.9595  1.3468
11163TIP3   OH254903   3.439   3.370  12.735 -0.1667 -0.8520 -0.0189
11163TIP3    H154904   3.382   3.382  12.659 -0.1595  1.5887  0.3360
11163TIP3    H254905   3.393   3.412  12.807  1.2336 -0.4818  0.6762
11164TIP3   OH254906   2.128   1.307   2.938  0.1312  0.1061  0.2227
11164TIP3    H154907   2.095   1.366   3.005 -0.8432  1.1484 -1.1415
11164TIP3    H254908   2.175   1.364   2.877  1.6806 -0.9297  0.4090
11165TIP3   OH254909   6.777   2.039  13.348  0.2370  0.3781  0.6124
11165TIP3    H154910   6.831   1.990  13.286 -1.9046 -0.9064 -0.2927
11165TIP3    H254911   6.765   1.979  13.422 -0.0309  0.6347  0.7778
11166TIP3   OH254912   2.945   1.437   4.281 -0.7270 -0.1130 -0.0867
11166TIP3    H154913   2.999   1.453   4.358  0.2941 -0.3915 -0.7299
11166TIP3    H254914   2.934   1.342   4.278 -1.9522  0.0067  0.5039
11167TIP3   OH254915   2.646   5.781  12.230  0.2229  0.1824 -0.3343
11167TIP3    H154916   2.620   5.800  12.140  1.0000  0.9329 -0.4058
11167TIP3    H254917   2.730   5.824  12.241  0.5127 -0.5770  0.5102
11168TIP3   OH254918   5.000   3.364   3.289  0.4626 -0.8646  0.1056
11168TIP3    H154919   4.977   3.392   3.201 -1.7176 -2.3887  0.1461
11168TIP3    H254920   5.068   3.425   3.317 -0.8247  1.4117 -1.5440
11169TIP3   OH254921   4.198   3.653   0.771  0.8226  0.4911  0.2299
11169TIP3    H154922   4.244   3.737   0.771 -1.2569  1.6732 -2.0404
11169TIP3    H254923   4.108   3.674   0.793  0.4091 -1.2401  0.2568
11170TIP3   OH254924   1.390   1.493   4.863  0.0042 -0.0720  0.4252
11170TIP3    H154925   1.438   1.557   4.810  2.0015 -0.0621  2.1674
11170TIP3    H254926   1.412   1.515   4.953 -1.7216 -1.3431  1.1890
11171TIP3   OH254927   5.395   3.721  15.029  0.1877  0.8658 -0.2221
11171TIP3    H154928   5.370   3.692  15.117 -1.3449  0.1501 -0.8790
11171TIP3    H254929   5.316   3.762  14.994  0.8715  1.3857 -1.1715
11172TIP3   OH254930   3.195   5.316  10.394  0.3945  0.5542 -0.3680
11172TIP3    H154931   3.251   5.384  10.356  0.8495 -0.3053 -1.2483
11172TIP3    H254932   3.141   5.363  10.458  2.2973  1.3607  0.7126
11173TIP3   OH254933   4.936   5.307  13.552  0.3109 -0.1958  0.0592
11173TIP3    H154934   4.904   5.241  13.614  0.6109 -0.0297  0.3900
11173TIP3    H254935   4.970   5.256  13.479 -0.3336 -0.3854 -0.1103
11174TIP3   OH254936   0.373   6.113   4.042  0.0958 -0.5494  0.0416
11174TIP3    H154937   0.324   6.146   4.117  0.5079 -0.3559  0.2239
11174TIP3    H254938   0.313   6.051   4.000 -0.1712 -0.5848  0.4710
11175TIP3   OH254939   6.289   3.846   5.665  0.8387  0.7700 -0.3632
11175TIP3    H154940   6.206   3.830   5.620  0.3382 -0.1277  0.8501
11175TIP3    H254941   6.265   3.859   5.757  1.9286  1.7191 -0.1963
11176TIP3   OH254942   3.085   3.456  17.198 -0.6249 -0.0640 -0.1680
11176TIP3    H154943   3.083   3.533  17.142 -1.8194 -0.1796 -0.3086
11176TIP3    H254944   3.068   3.491  17.286 -1.6275 -0.2136 -0.2976
11177TIP3   OH254945   1.605   1.680  13.988  0.4524 -0.3851 -0.4170
11177TIP3    H154946   1.525   1.722  13.957 -0.2384  0.3039  2.1585
11177TIP3    H254947   1.675   1.740  13.963 -0.3047  1.2103  1.1561
11178TIP3   OH254948   4.567   3.871   3.907  0.2342  0.2366 -0.5462
11178TIP3    H154949   4.539   3.844   3.820 -0.0310  2.7683 -1.3069
11178TIP3    H254950   4.658   3.844   3.914  0.5211  0.8109 -1.9840
11179TIP3   OH254951   5.842   4.011   2.787  0.0532 -0.2829  0.2913
11179TIP3    H154952   5.864   4.070   2.715 -0.5995 -1.2013 -0.6699
11179TIP3    H254953   5.754   3.980   2.767 -1.2573  1.5584  2.9138
11180TIP3   OH254954   4.737   5.390  16.116 -0.5011  0.0778 -0.0621
11180TIP3    H154955   4.778   5.473  16.093 -1.3540  0.3342 -0.6733
11180TIP3    H254956   4.650   5.414  16.147  0.5283 -0.2533  3.3267
11181TIP3   OH254957   4.749   0.355  13.370  0.0669 -0.3842 -0.3830
11181TIP3    H154958   4.721   0.438  13.408 -0.9070 -1.3949  1.1912
11181TIP3    H254959   4.790   0.379  13.287 -1.9376  1.4944 -0.8887
11182TIP3   OH254960   5.070   0.302   3.006 -0.0396  0.0161  0.1206
11182TIP3    H154961   5.158   0.272   3.030  1.2292  2.5155 -1.2472
11182TIP3    H254962   5.054   0.265   2.920 -0.1343 -0.0276  0.1567
11183TIP3   OH254963   5.572   0.070   4.757 -0.2290 -0.1601 -0.2986
11183TIP3    H154964   5.583   0.157   4.719 -0.7601 -0.2922 -0.7565
11183TIP3    H254965   5.653   0.055   4.806 -0.2001  0.6511 -0.0935
11184TIP3   OH254966   3.425   5.217   0.422 -0.5663 -0.0118 -0.0435
11184TIP3    H154967   3.399   5.128   0.396 -0.9450  0.2664 -0.6315
11184TIP3    H254968   3.345   5.257   0.457 -0.0270 -0.4290  1.7254
11185TIP3   OH254969   1.536   4.010   4.314  0.1110 -0.4358 -0.4059
11185TIP3    H154970   1.626   3.980   4.326 -0.0914 -0.6497  0.6639
11185TIP3    H254971   1.492   3.936   4.271  0.8459  0.3354 -2.5786
11186TIP3   OH254972   3.428   0.610  15.364 -0.4990  0.0403  0.0066
11186TIP3    H154973   3.460   0.593  15.276 -1.3866  2.4985 -0.8202
11186TIP3    H254974   3.355   0.548  15.375 -1.2438  0.6251 -1.5092
11187TIP3   OH254975   0.269   3.057  16.377 -0.0235  0.4375  0.6449
11187TIP3    H154976   0.259   3.122  16.308 -0.0770  0.6766  0.8787
11187TIP3    H254977   0.210   3.087  16.447 -0.2782 -0.0201  0.6315
11188TIP3   OH254978   3.204   2.643   0.272 -0.5659  0.9367  0.2749
11188TIP3    H154979   3.216   2.691   0.191 -0.1141 -1.3815 -1.0765
11188TIP3    H254980   3.271   2.677   0.331  0.6410  0.9908 -1.1176
11189TIP3   OH254981   1.309   2.968  12.468 -0.4609  0.2605  0.1514
11189TIP3    H154982   1.391   2.925  12.493  0.1036  1.7917  0.9436
11189TIP3    H254983   1.275   3.006  12.549 -1.2621  0.8106 -0.4337
11190TIP3   OH254984   4.400   0.331   2.347  0.5997 -0.2938 -0.0304
11190TIP3    H154985   4.481   0.320   2.396  1.5388  1.5757 -1.1164
11190TIP3    H254986   4.342   0.380   2.405  1.3443  1.0194 -0.3799
11191TIP3   OH254987   1.733   5.748  14.428  0.2907  0.0405  0.0885
11191TIP3    H154988   1.706   5.733  14.337 -0.4225  1.6121  0.0294
11191TIP3    H254989   1.653   5.774  14.473  0.5543 -1.1726  1.2986
11192TIP3   OH254990   6.584   0.785   2.706 -0.1035  0.1909 -0.1275
11192TIP3    H154991   6.616   0.833   2.629  1.0687  0.6672  0.6453
11192TIP3    H254992   6.572   0.696   2.675  1.0583  0.2168 -0.6857
11193TIP3   OH254993   4.210   6.570   5.881  0.1563  0.3033  0.3878
11193TIP3    H154994   4.202   6.597   5.973 -0.5079 -0.3930  0.5489
11193TIP3    H254995   4.291   6.518   5.879  0.3028  0.5265  0.5309
11194TIP3   OH254996   0.751   5.834   6.699 -0.2749  0.2173 -0.6119
11194TIP3    H154997   0.719   5.902   6.640  0.3020  1.1774  0.1727
11194TIP3    H254998   0.809   5.780   6.644  2.1501  2.5027 -0.3944
11195TIP3   OH254999   4.268   0.279   1.110  0.5217  0.0969 -0.4789
11195TIP3    H155000   4.194   0.222   1.130  1.9027 -1.6080 -0.1507
11195TIP3    H255001   4.303   0.304   1.196  0.4409  0.7723 -0.6358
11196TIP3   OH255002   5.665   6.755  13.055  0.2080 -0.5082 -0.6084
11196TIP3    H155003   5.607   6.826  13.027  0.9889 -0.3913 -1.9393
11196TIP3    H255004   5.616   6.675  13.036 -0.0309 -0.3766 -0.5542
11197TIP3   OH255005   0.106   5.284  15.253 -0.0438 -0.0172 -0.2499
11197TIP3    H155006   0.082   5.311  15.164  0.5273 -2.7336 -1.2707
11197TIP3    H255007   0.190   5.239  15.243 -0.4615 -1.2382  1.4932
11198TIP3   OH255008   6.365   0.839  12.217  0.0747  0.1993 -0.7017
11198TIP3    H155009   6.450   0.815  12.182  0.3911 -0.4622  0.5014
11198TIP3    H255010   6.303   0.779  12.175  0.8940 -3.1293  2.5582
11199TIP3   OH255011   6.060   5.997  13.308  0.2407  0.2045 -0.0876
11199TIP3    H155012   6.122   5.996  13.381 -0.1570  1.2948  0.2680
11199TIP3    H255013   6.112   6.025  13.232  0.7295 -1.2524 -0.3050
11200TIP3   OH255014   5.132   6.124   3.922  0.3382 -0.0360 -0.1299
11200TIP3    H155015   5.201   6.072   3.881 -0.3486 -0.6286 -0.5651
11200TIP3    H255016   5.079   6.155   3.849 -1.1077 -1.3969  0.3195
11201TIP3   OH255017   4.694   5.211   3.913 -0.4813  0.4785 -0.2703
11201TIP3    H155018   4.696   5.276   3.843  1.9665  1.1535  0.3517
11201TIP3    H255019   4.619   5.236   3.967  0.1644  2.5592 -0.2796
11202TIP3   OH255020   0.090   5.704  16.465 -0.4085  0.1697  0.1389
11202TIP3    H155021   0.169   5.723  16.416 -0.4871 -0.3709 -0.2011
11202TIP3    H255022   0.101   5.613  16.494  1.1519  1.4449  3.9299
11203TIP3   OH255023   3.475   5.692  16.896 -0.3998  0.1458  0.3801
11203TIP3    H155024   3.570   5.700  16.900 -0.4434  0.8417  0.1279
11203TIP3    H255025   3.456   5.606  16.934  0.3805 -0.3073 -0.2364
11204TIP3   OH255026   3.992   4.572   3.393 -0.0744  0.1723  0.3852
11204TIP3    H155027   4.057   4.553   3.325 -0.9052  2.4358 -1.0961
11204TIP3    H255028   4.041   4.617   3.462  0.5961 -1.3568  0.9501
11205TIP3   OH255029   6.200   1.173   5.628  0.4753 -0.2537  0.0413
11205TIP3    H155030   6.121   1.205   5.585 -0.3079 -2.1204  0.0089
11205TIP3    H255031   6.268   1.237   5.607 -0.7864  0.8128 -0.8148
11206TIP3   OH255032   6.409   3.215   0.762  0.0250  0.4672  0.3282
11206TIP3    H155033   6.491   3.238   0.808  1.2663 -0.9801 -1.1087
11206TIP3    H255034   6.429   3.229   0.669 -0.9770 -1.0398 -0.1314
11207TIP3   OH255035   1.277   3.369   2.341 -0.1181  0.4531  0.2301
11207TIP3    H155036   1.198   3.322   2.367  0.0188 -0.1041 -0.3584
11207TIP3    H255037   1.293   3.343   2.250  1.4997 -0.4800  0.7607
11208TIP3   OH255038   1.735   5.252   2.105 -0.2261  0.2458  0.2185
11208TIP3    H155039   1.799   5.275   2.171 -0.7534 -0.1767  0.8871
11208TIP3    H255040   1.729   5.330   2.049 -0.3639  0.9011  1.1376
11209TIP3   OH255041   3.312   2.677  11.563  0.0597  0.1450  0.4634
11209TIP3    H155042   3.256   2.600  11.554  0.6415 -0.0626 -1.6607
11209TIP3    H255043   3.354   2.686  11.477  1.9217  1.3403  1.4789
11210TIP3   OH255044   0.628   0.815  13.978  0.4039  0.7678  0.2798
11210TIP3    H155045   0.540   0.852  13.975  0.1817  0.2584  0.5849
11210TIP3    H255046   0.636   0.765  13.897 -1.1602 -2.7828  2.2417
11211TIP3   OH255047   6.760   1.179   0.230  0.0391  0.1702 -0.1245
11211TIP3    H155048   6.691   1.208   0.171 -1.0804 -2.6787 -0.2829
11211TIP3    H255049   6.715   1.145   0.307  1.1998 -1.7524 -0.2409
11212TIP3   OH255050   1.992   4.917  16.468 -0.1674 -0.7953  0.0914
11212TIP3    H155051   1.919   4.960  16.424  0.8407  1.0210  0.1691
11212TIP3    H255052   2.065   4.977  16.458  1.6513 -3.1195 -1.0231
11213TIP3   OH255053   4.010   6.338   5.229  0.4825  0.3007 -0.0676
11213TIP3    H155054   3.965   6.359   5.147  0.3304  0.2020 -0.0085
11213TIP3    H255055   4.098   6.313   5.201 -0.3860 -2.4268 -0.4504
11214TIP3   OH255056   3.344   1.752   4.407  0.5112 -0.0063 -0.0824
11214TIP3    H155057   3.408   1.686   4.378 -0.3416 -0.5165 -0.8429
11214TIP3    H255058   3.347   1.820   4.340  1.4026  0.7512  0.7118
11215TIP3   OH255059   2.613   4.463  17.073  0.5654 -0.3060  0.3510
11215TIP3    H155060   2.601   4.478  16.979 -1.6307 -0.0933  0.6220
11215TIP3    H255061   2.649   4.545  17.106 -2.0288  0.9507  0.2279
11216TIP3   OH255062   2.126   6.555   5.119 -0.4279  0.3747  0.0666
11216TIP3    H155063   2.167   6.622   5.065 -0.9988  0.7008  0.0363
11216TIP3    H255064   2.199   6.512   5.164  0.2923 -1.4848 -2.7500
11217TIP3   OH255065   1.301   3.610  16.280 -0.2467 -0.4911 -0.6905
11217TIP3    H155066   1.354   3.634  16.203 -1.4164  0.8735 -1.0958
11217TIP3    H255067   1.360   3.622  16.354 -0.1082  1.5191 -1.0932
11218TIP3   OH255068   0.337   3.867  12.863  0.1557  0.2204 -0.3045
11218TIP3    H155069   0.250   3.895  12.834  0.3981 -0.0489 -1.3006
11218TIP3    H255070   0.323   3.831  12.951 -1.5034 -3.9532 -2.1778
11219TIP3   OH255071   5.631   6.572   0.365 -0.2878 -0.1423 -0.2663
11219TIP3    H155072   5.541   6.596   0.344  0.0628 -1.1832 -3.2892
11219TIP3    H255073   5.626   6.533   0.452 -2.5117  1.1192  0.2117
11220TIP3   OH255074   0.519   3.585  13.848 -0.2971  0.3515 -0.7017
11220TIP3    H155075   0.468   3.507  13.873  1.5666 -0.8718 -0.6334
11220TIP3    H255076   0.498   3.650  13.915  0.5643 -1.1500  1.0720
11221TIP3   OH255077   6.688   1.162  15.641 -0.2099 -0.3839 -0.0746
11221TIP3    H155078   6.734   1.078  15.644  0.7955  0.1079 -1.2059
11221TIP3    H255079   6.749   1.220  15.595 -0.8909  0.9637  0.7093
11222TIP3   OH255080   6.138   2.771  14.092 -0.2957  0.0327 -0.1646
11222TIP3    H155081   6.106   2.858  14.116 -0.5922  0.0861 -0.7347
11222TIP3    H255082   6.222   2.763  14.137 -0.0038  0.8410 -0.5467
11223TIP3   OH255083   2.445   1.757  13.109 -0.8886  0.0341 -0.1607
11223TIP3    H155084   2.356   1.750  13.143 -1.6767 -0.2537 -2.1961
11223TIP3    H255085   2.481   1.836  13.150 -2.6589  1.0877 -0.6008
11224TIP3   OH255086   1.464   3.051  17.079 -0.0264 -0.0910  0.4047
11224TIP3    H155087   1.500   2.962  17.071 -2.2135 -0.8907 -0.7514
11224TIP3    H255088   1.495   3.096  17.001 -0.4908 -0.4108  0.0327
11225TIP3   OH255089   2.439   5.742  17.233 -0.0982 -0.4113 -0.2102
11225TIP3    H155090   2.403   5.800  17.301 -0.9713 -2.3612  1.0336
11225TIP3    H255091   2.399   5.772  17.152  0.7397  1.7920  0.1677
11226TIP3   OH255092   2.354   1.940   3.047 -0.3631  0.3650 -0.0694
11226TIP3    H155093   2.334   1.904   3.133  0.4258 -0.2978 -0.1555
11226TIP3    H255094   2.272   1.979   3.017 -1.2323 -1.2884  0.0708
11227TIP3   OH255095   2.165   2.164  13.776 -0.3825 -0.1797  0.1145
11227TIP3    H155096   2.104   2.228  13.813 -1.2353 -0.6044 -0.5363
11227TIP3    H255097   2.227   2.217  13.725  1.3641  0.4957  2.8661
11228TIP3   OH255098   1.189   6.648  16.558  0.5467 -0.4812  0.0019
11228TIP3    H155099   1.141   6.565  16.555  3.0801 -2.0321  0.7353
11228TIP3    H255100   1.227   6.657  16.471  1.2279 -0.7076  0.2676
11229TIP3   OH255101   2.248   4.003   2.030 -0.3342  0.1041 -0.2309
11229TIP3    H155102   2.159   4.022   2.059 -0.2581 -1.0152  0.7312
11229TIP3    H255103   2.295   3.978   2.109  0.7080  0.1860 -0.8134
11230TIP3   OH255104   2.544   4.377  15.617  0.4186 -0.3535  0.0011
11230TIP3    H155105   2.541   4.347  15.526  0.2150  1.7215 -0.6989
11230TIP3    H255106   2.616   4.327  15.656  0.4825 -1.2970 -1.2823
11231TIP3   OH255107   4.363   1.979  17.212  0.3431 -0.4103 -0.6025
11231TIP3    H155108   4.332   1.928  17.287  1.9661  1.1738  1.1877
11231TIP3    H255109   4.450   1.943  17.193  0.6759  0.3739 -0.5794
11232TIP3   OH255110   2.566   5.066  15.162  0.7054 -0.1870 -0.2106
11232TIP3    H155111   2.600   4.981  15.189  0.6780 -0.4205 -0.9146
11232TIP3    H255112   2.474   5.050  15.140  0.5671  0.1235  0.1324
11233TIP3   OH255113   6.291   5.198   1.745  0.0833  0.2583  0.3142
11233TIP3    H155114   6.282   5.232   1.834 -0.7983 -0.0792  0.3605
11233TIP3    H255115   6.333   5.113   1.756 -0.7976 -0.1642  0.4905
11234TIP3   OH255116   2.273   2.943   3.080  0.0380  0.5331  0.3947
11234TIP3    H155117   2.344   2.979   3.132 -1.6575  0.4979  2.8129
11234TIP3    H255118   2.272   2.850   3.102  0.3877  0.1754 -1.0305
11235TIP3   OH255119   5.128   4.785   1.313  0.4762 -0.2167 -0.2033
11235TIP3    H155120   5.163   4.714   1.367  1.6103  0.1988 -0.3624
11235TIP3    H255121   5.205   4.821   1.269 -0.2315  0.4489 -0.9109
11236TIP3   OH255122   1.247   6.430  14.181  0.2585  0.7397  0.3587
11236TIP3    H155123   1.291   6.379  14.249 -0.2088  1.2338  1.0275
11236TIP3    H255124   1.317   6.452  14.119  0.2555 -1.7369 -0.5749
11237TIP3   OH255125   0.510   4.591   5.467 -0.7024  0.6033  0.2889
11237TIP3    H155126   0.495   4.617   5.558  0.9903  0.7613  0.5548
11237TIP3    H255127   0.524   4.496   5.472 -0.9304  0.5626  0.1470
11238TIP3   OH255128   6.337   1.789   3.287 -0.2839 -0.0487 -0.0010
11238TIP3    H155129   6.346   1.781   3.192 -0.0788 -0.9083  0.0846
11238TIP3    H255130   6.242   1.787   3.302 -0.2578 -2.1545 -0.0144
11239TIP3   OH255131   4.948   2.041   5.378 -0.5591  0.3850 -0.1316
11239TIP3    H155132   4.970   2.086   5.460 -0.3025  0.2253 -0.1104
11239TIP3    H255133   4.936   2.111   5.314 -0.7440  0.5090  0.0392
11240TIP3   OH255134   4.377   1.772  15.344 -0.0033  0.5212  0.0156
11240TIP3    H155135   4.386   1.858  15.384  0.7822  1.1057 -1.3978
11240TIP3    H255136   4.307   1.782  15.279  0.3589  0.1867 -0.4254
11241TIP3   OH255137   0.723   6.099   5.238 -0.1626  0.1956  0.1698
11241TIP3    H155138   0.761   6.170   5.290  0.0342 -0.5697  1.0813
11241TIP3    H255139   0.710   6.137   5.151  1.9133  0.7185  0.0699
11242TIP3   OH255140   0.299   0.448  11.262  0.0435  0.2095  0.2277
11242TIP3    H155141   0.283   0.354  11.255 -0.5610  0.3699 -0.6268
11242TIP3    H255142   0.306   0.465  11.356 -1.8016 -0.3615  0.4709
11243TIP3   OH255143   3.766   4.369   1.949  0.4557  0.5201  0.2065
11243TIP3    H155144   3.707   4.422   1.896 -0.9712 -1.0256  0.1766
11243TIP3    H255145   3.850   4.412   1.943 -0.7131  2.8909  0.3891
11244TIP3   OH255146   0.587   2.794  13.420 -0.0433 -0.5732  0.7232
11244TIP3    H155147   0.514   2.750  13.464 -0.0167  0.5348  1.9127
11244TIP3    H255148   0.637   2.835  13.491  1.3180 -0.6904 -0.1529
11245TIP3   OH255149   0.224   3.787   4.553 -0.0922  0.0194  0.7088
11245TIP3    H155150   0.226   3.798   4.458  0.8166  0.7852  0.8139
11245TIP3    H255151   0.231   3.692   4.566 -0.7334 -0.1295  0.0024
11246TIP3   OH255152   2.578   2.108   1.154 -0.2473 -0.3551  0.4769
11246TIP3    H155153   2.495   2.135   1.114  0.3087 -1.6318 -1.5843
11246TIP3    H255154   2.635   2.088   1.080  2.3991  1.8767  1.8487
11247TIP3   OH255155   2.052   1.928   5.460  0.1852 -0.4456  0.0111
11247TIP3    H155156   2.003   1.959   5.384  0.2795 -1.6706 -0.5686
11247TIP3    H255157   2.034   1.992   5.529  0.5602  0.9836 -1.2025
11248TIP3   OH255158   0.920   6.236  14.544 -0.2820  0.2921 -0.0637
11248TIP3    H155159   0.912   6.319  14.496 -0.8030 -0.1695 -0.7856
11248TIP3    H255160   0.829   6.207  14.555 -0.0327 -0.7480 -0.7899
11249TIP3   OH255161   2.137   3.758   1.664 -0.2776  0.5917  0.0778
11249TIP3    H155162   2.176   3.729   1.582  0.6079 -1.4267  1.1618
11249TIP3    H255163   2.064   3.814   1.638 -0.6866 -0.8912 -2.0923
11250TIP3   OH255164   4.973   1.683  14.621  0.0759  0.4560 -0.4619
11250TIP3    H155165   4.882   1.710  14.630  0.8322  2.8645  0.1860
11250TIP3    H255166   5.024   1.763  14.634  2.3054 -0.9136 -0.4727
11251TIP3   OH255167   4.366   5.698  16.706  0.2618  0.0143  0.2214
11251TIP3    H155168   4.295   5.635  16.704 -0.7608  1.1930 -1.3027
11251TIP3    H255169   4.430   5.660  16.766 -1.8801 -0.7851  2.0481
11252TIP3   OH255170   1.902   6.401   0.569 -0.0620  0.7316  0.3066
11252TIP3    H155171   1.868   6.460   0.502 -1.1918 -0.4522 -0.1728
11252TIP3    H255172   1.847   6.418   0.646 -1.3433 -0.7361 -0.2788
11253TIP3   OH255173   6.207   0.713  15.735 -0.5443 -0.0725 -0.5593
11253TIP3    H155174   6.196   0.728  15.829 -2.4695  0.1297 -0.8071
11253TIP3    H255175   6.263   0.785  15.706 -1.8314  1.1856  0.0140
11254TIP3   OH255176   3.900   3.825   3.384  0.4388  0.3096  0.2784
11254TIP3    H155177   3.890   3.871   3.301 -2.0082  0.5715  0.6824
11254TIP3    H255178   3.864   3.738   3.369  0.9421  0.0058  0.7893
11255TIP3   OH255179   2.464   3.264   5.433  0.4429 -0.3062 -0.0244
11255TIP3    H155180   2.526   3.215   5.379  1.7732 -0.0327  1.2162
11255TIP3    H255181   2.510   3.276   5.516 -0.7550  1.0785  0.4486
11256TIP3   OH255182   3.447   2.435  15.811 -0.3688  0.1358 -0.1257
11256TIP3    H155183   3.384   2.446  15.882  0.8383  1.4087  0.7911
11256TIP3    H255184   3.527   2.476  15.845  0.7594 -0.9003 -1.4967
11257TIP3   OH255185   0.402   5.174   0.300  0.2937  0.2497  0.2818
11257TIP3    H155186   0.373   5.195   0.212 -2.3628 -0.4562  0.9120
11257TIP3    H255187   0.402   5.258   0.346  3.7373  0.9511 -0.8817
11258TIP3   OH255188   4.013   6.592   4.843 -0.3293  0.1709 -0.4135
11258TIP3    H155189   4.006   6.594   4.939 -1.3131  0.1613 -0.4833
11258TIP3    H255190   4.030   6.501   4.822 -0.6225  0.0840 -0.2792
11259TIP3   OH255191   5.972   0.405   5.065  0.6432  0.4262 -0.2179
11259TIP3    H155192   5.902   0.468   5.081 -0.8787 -1.0489 -0.8716
11259TIP3    H255193   5.927   0.321   5.057  2.5017 -0.5579 -0.6359
11260TIP3   OH255194   2.282   3.907   3.365  0.0233 -0.2571  0.2138
11260TIP3    H155195   2.254   3.957   3.288  0.1444 -0.6913 -0.1147
11260TIP3    H255196   2.347   3.963   3.407  0.6444 -0.4210 -0.5194
11261TIP3   OH255197   3.298   6.367   3.285  0.7611  0.1858  0.1998
11261TIP3    H155198   3.340   6.289   3.322 -0.4192 -1.3251 -1.5680
11261TIP3    H255199   3.243   6.400   3.356 -0.1930 -1.7004  0.3779
11262TIP3   OH255200   6.770   2.624  15.897  0.9321  0.2255  0.2390
11262TIP3    H155201   6.834   2.563  15.931  1.6687 -0.3180 -2.0272
11262TIP3    H255202   6.780   2.619  15.802 -2.3633  0.2171 -0.1813
11263TIP3   OH255203   2.768   6.522   6.542 -0.1465 -0.2741 -0.0087
11263TIP3    H155204   2.715   6.463   6.489  0.2955 -0.2094 -0.5245
11263TIP3    H255205   2.855   6.481   6.545  0.2003  0.4167 -0.4930
11264TIP3   OH255206   5.382   6.653   4.795  0.2417 -0.3709  0.0469
11264TIP3    H155207   5.420   6.736   4.766 -0.8068 -0.3841 -1.4518
11264TIP3    H255208   5.311   6.636   4.733 -1.5724 -0.8553  2.1829
11265TIP3   OH255209   3.150   4.985  15.222  0.1757 -0.3819  0.3962
11265TIP3    H155210   3.122   4.929  15.149  1.7986 -0.7444  0.0126
11265TIP3    H255211   3.178   4.923  15.289 -1.0312 -0.0442  1.2216
11266TIP3   OH255212   1.626   2.980  12.257  0.0187  0.7755  0.6274
11266TIP3    H155213   1.610   2.970  12.351 -0.0924 -1.6611  0.3954
11266TIP3    H255214   1.540   2.967  12.217  0.3506  0.1856  0.0988
11267TIP3   OH255215   4.057   4.775  13.974  0.1138  0.4361 -0.0041
11267TIP3    H155216   3.998   4.850  13.981  1.0651  1.3028 -1.0533
11267TIP3    H255217   4.048   4.747  13.882 -1.2240 -1.5758  0.6983
11268TIP3   OH255218   2.672   3.534   6.103 -0.2625 -0.0821 -0.2915
11268TIP3    H155219   2.680   3.534   6.007 -1.1093 -1.2019 -0.3733
11268TIP3    H255220   2.627   3.616   6.123 -0.7104 -0.1717 -0.9203
11269TIP3   OH255221   4.103   5.737  11.103  0.0027  0.8351  0.1301
11269TIP3    H155222   4.108   5.655  11.053  0.9030 -0.5589  2.3757
11269TIP3    H255223   4.029   5.723  11.163  0.8913  1.1599  1.3223
11270TIP3   OH255224   4.455   5.376  15.269 -0.0192 -0.7733  0.3554
11270TIP3    H155225   4.505   5.308  15.223 -1.1265 -0.1075 -1.9599
11270TIP3    H255226   4.367   5.368  15.233  0.1909  2.9059 -1.2080
11271TIP3   OH255227   1.416   3.233   0.268  0.1751 -0.1231  0.0672
11271TIP3    H155228   1.459   3.221   0.184  0.3522 -0.1994  0.1700
11271TIP3    H255229   1.417   3.328   0.282  0.5320 -0.1424  0.1860
11272TIP3   OH255230   2.591   2.265   1.423 -0.4190 -0.0389 -0.2448
11272TIP3    H155231   2.525   2.323   1.386 -2.6037 -1.5352  1.1456
11272TIP3    H255232   2.592   2.189   1.363 -1.0049 -0.6340  0.4817
11273TIP3   OH255233   6.315   4.364  15.686 -0.7788  0.6126 -0.3536
11273TIP3    H155234   6.314   4.300  15.614  1.5960  1.6052 -1.3222
11273TIP3    H255235   6.284   4.445  15.647 -0.6283  0.8719  0.0613
11274TIP3   OH255236   2.156   2.205   5.888  0.0647  0.2736 -0.1776
11274TIP3    H155237   2.113   2.126   5.920  1.0143  0.4825  1.7244
11274TIP3    H255238   2.147   2.268   5.960  2.6955  0.6141 -0.1022
11275TIP3   OH255239   3.336   3.898   0.487 -0.1635 -0.1795  0.3896
11275TIP3    H155240   3.413   3.855   0.449 -1.9357 -1.3494 -2.0449
11275TIP3    H255241   3.277   3.826   0.510 -0.9167  0.7371  1.4056
11276TIP3   OH255242   4.419   2.045   6.589  0.1657 -0.3641  0.2694
11276TIP3    H155243   4.428   2.089   6.674  2.8821 -0.5870  0.1210
11276TIP3    H255244   4.406   2.116   6.527  1.4439  0.0350  0.4481
11277TIP3   OH255245   1.902   3.339  16.993  0.0408  0.3194 -0.3393
11277TIP3    H155246   1.871   3.250  16.979 -2.8775  1.3634 -1.0166
11277TIP3    H255247   1.974   3.350  16.932  1.1957 -1.9139  0.5589
11278TIP3   OH255248   4.637   3.945  14.973 -0.0983  0.2592  0.3527
11278TIP3    H155249   4.575   3.974  15.039 -0.5180 -0.6945  0.3881
11278TIP3    H255250   4.648   4.021  14.915 -2.8291 -0.1532 -0.8062
11279TIP3   OH255251   1.500   4.317  15.672  0.2640  0.2767 -0.4004
11279TIP3    H155252   1.454   4.251  15.620 -0.9192  0.4411  0.4236
11279TIP3    H255253   1.439   4.391  15.677  0.1687  0.0970  1.5644
11280TIP3   OH255254   1.276   2.571  14.306 -0.1992  0.0727 -0.3781
11280TIP3    H155255   1.247   2.652  14.265  0.2763 -0.6388 -2.1924
11280TIP3    H255256   1.320   2.523  14.236  2.3362 -0.3689  1.4331
11281TIP3   OH255257   2.057   1.808  13.586  0.2699  0.2889 -0.4246
11281TIP3    H155258   2.067   1.713  13.578 -1.2570  0.0885  0.0044
11281TIP3    H255259   2.102   1.843  13.509 -1.4144 -0.9116 -2.0050
11282TIP3   OH255260   5.289   4.279  11.129  0.1964  0.2103 -0.6446
11282TIP3    H155261   5.297   4.191  11.092  0.8824 -0.0976  0.2063
11282TIP3    H255262   5.223   4.271  11.197  1.2428  0.0233  0.3664
11283TIP3   OH255263   3.433   1.109  10.717  0.1239 -0.3704  0.0352
11283TIP3    H155264   3.448   1.046  10.646 -1.9542 -0.7100 -0.1159
11283TIP3    H255265   3.347   1.087  10.752  0.8107  0.2641  2.2137
11284TIP3   OH255266   2.648   5.685  15.042  0.3324  0.1303 -0.2682
11284TIP3    H155267   2.739   5.694  15.070  1.3779 -2.3723 -2.6775
11284TIP3    H255268   2.605   5.638  15.114  1.1855  0.3419  0.3859
11285TIP3   OH255269   3.771   1.411   0.856 -0.7585  0.0381 -0.2931
11285TIP3    H155270   3.805   1.325   0.880 -0.3981  0.3503  0.3332
11285TIP3    H255271   3.847   1.470   0.864 -1.0000  0.4128 -0.7177
11286TIP3   OH255272   1.773   6.117   4.095  0.4587 -0.3626 -0.1685
11286TIP3    H155273   1.849   6.140   4.042 -1.2863  0.0159 -2.5585
11286TIP3    H255274   1.730   6.200   4.113  0.0810 -0.6757  0.3816
11287TIP3   OH255275   0.878   2.306  13.576 -0.2371  0.0034  0.3505
11287TIP3    H155276   0.808   2.295  13.512 -0.1160  0.1522  0.1946
11287TIP3    H255277   0.835   2.289  13.660 -0.0688 -1.5749  0.1238
11288TIP3   OH255278   2.179   4.731   0.193  0.3191  0.2628 -0.4239
11288TIP3    H155279   2.136   4.674   0.257 -0.6743 -0.7425 -1.9475
11288TIP3    H255280   2.247   4.675   0.154 -0.7627  0.0554 -2.0357
11289TIP3   OH255281   5.633   3.374   3.694  0.2269 -0.7987 -0.2494
11289TIP3    H155282   5.603   3.408   3.609 -0.6294 -1.1175 -0.0831
11289TIP3    H255283   5.570   3.305   3.715  0.1587 -0.4017  0.8698
11290TIP3   OH255284   3.125   1.208  17.072 -0.4781  0.5826  0.1190
11290TIP3    H155285   3.110   1.190  16.979  1.9079  1.5753 -0.4844
11290TIP3    H255286   3.041   1.190  17.113 -0.8246 -2.6790 -1.8029
11291TIP3   OH255287   3.160   1.087   1.777  0.1676 -0.1515  0.1219
11291TIP3    H155288   3.138   1.043   1.859 -0.9831  1.2927  0.6074
11291TIP3    H255289   3.097   1.053   1.713 -0.5567  0.6046  0.4351
11292TIP3   OH255290   1.818   2.675   4.936 -0.1701 -0.6330 -0.0874
11292TIP3    H155291   1.807   2.764   4.902  1.4774 -0.1204  0.6859
11292TIP3    H255292   1.890   2.638   4.885 -0.0640 -1.1093  0.4008
11293TIP3   OH255293   6.735   6.305   6.106  0.5363  0.3270  0.8638
11293TIP3    H155294   6.713   6.362   6.179  0.2448  0.9463  0.2940
11293TIP3    H255295   6.737   6.217   6.144  0.2261  0.6255  1.5772
11294TIP3   OH255296   3.810   3.718  11.359  0.2394  0.4759 -0.5584
11294TIP3    H155297   3.826   3.633  11.318 -0.8857  0.1799 -0.4070
11294TIP3    H255298   3.715   3.732  11.348  0.3350  1.4808 -0.1496
11295TIP3   OH255299   3.373   5.289   5.353 -0.0023 -0.3330  0.1804
11295TIP3    H155300   3.413   5.324   5.273  1.2132 -0.7579  0.5945
11295TIP3    H255301   3.426   5.212   5.375 -1.3963 -1.2224  0.4357
11296TIP3   OH255302   1.922   4.890   4.598  0.3285  0.2685 -0.0266
11296TIP3    H155303   1.873   4.817   4.560  0.5329  0.7308 -1.1816
11296TIP3    H255304   1.891   4.894   4.689 -0.4066 -0.6249 -0.2275
11297TIP3   OH255305   2.961   5.672   1.992  0.6703 -0.1176 -0.0606
11297TIP3    H155306   3.033   5.624   1.953  0.0635  0.3038 -1.7509
11297TIP3    H255307   3.003   5.739   2.046  1.5157 -1.1490  0.5843
11298TIP3   OH255308   3.847   0.557   3.839  0.3896  0.1612  0.5658
11298TIP3    H155309   3.923   0.511   3.805  0.8821  0.8850  0.6763
11298TIP3    H255310   3.799   0.491   3.888  0.5532 -0.4765 -0.1286
11299TIP3   OH255311   0.967   0.628  14.713  0.1990 -0.2044 -0.0103
11299TIP3    H155312   1.016   0.657  14.789 -0.8495 -1.1644  1.0588
11299TIP3    H255313   0.976   0.699  14.649  0.6277  0.8452  1.2078
11300TIP3   OH255314   6.714   4.152   1.821 -0.5543  0.4649 -0.2025
11300TIP3    H155315   6.635   4.166   1.875 -0.0425  3.1949 -0.1128
11300TIP3    H255316   6.786   4.150   1.885 -0.1915  1.4335 -0.5759
11301TIP3   OH255317   4.323   6.246   4.245  0.0540 -0.3164  0.3703
11301TIP3    H155318   4.268   6.325   4.248  0.7660  0.1473  1.6146
11301TIP3    H255319   4.409   6.276   4.275  0.6625 -1.3078 -0.3732
11302TIP3   OH255320   4.562   5.664   4.675  0.0830  0.2453 -0.3706
11302TIP3    H155321   4.587   5.576   4.704 -0.4566 -1.4683 -4.6736
11302TIP3    H255322   4.644   5.713   4.673  0.3126  0.0474  2.5716
11303TIP3   OH255323   3.006   5.699  16.873 -0.5424 -0.0871 -0.0192
11303TIP3    H155324   3.056   5.617  16.875 -0.8040 -0.2226  1.3359
11303TIP3    H255325   2.918   5.673  16.845 -1.2605 -0.6514  2.5632
11304TIP3   OH255326   1.485   3.018   3.027  0.0310  0.6246 -0.2755
11304TIP3    H155327   1.459   3.099   3.072 -0.8371 -0.2023  0.7428
11304TIP3    H255328   1.567   2.993   3.070  1.9430  2.5634 -2.6459
11305TIP3   OH255329   5.687   5.402  14.150  0.0547  0.0540  0.3655
11305TIP3    H155330   5.740   5.332  14.112  0.9099  0.2907  1.1011
11305TIP3    H255331   5.680   5.467  14.080  3.0485  1.2683  1.1073
11306TIP3   OH255332   5.986   5.925  11.495  0.5740 -0.9188 -0.0288
11306TIP3    H155333   6.047   5.874  11.549  0.7978  1.0017  1.5737
11306TIP3    H255334   5.899   5.899  11.525  0.7065  0.9146  2.0326
11307TIP3   OH255335   4.578   5.050   6.358 -0.4778  0.1755  0.5659
11307TIP3    H155336   4.585   5.020   6.268  0.1457  1.1950  0.2719
11307TIP3    H255337   4.630   4.988   6.408 -1.4949 -0.8776  0.3450
11308TIP3   OH255338   6.009   4.579  14.873 -0.9382  0.2213 -0.2833
11308TIP3    H155339   5.946   4.651  14.883 -0.2409  0.7645  0.2625
11308TIP3    H255340   6.092   4.623  14.857 -0.5076 -0.4765  0.0726
11309TIP3   OH255341   3.664   1.607   5.656 -0.1877 -0.4177  0.1160
11309TIP3    H155342   3.605   1.548   5.609  0.9813 -1.2349 -0.3532
11309TIP3    H255343   3.673   1.568   5.743 -0.0882 -0.4640  0.0844
11310TIP3   OH255344   6.270   2.039  12.306 -0.1390  0.0786  0.0799
11310TIP3    H155345   6.193   2.080  12.266 -0.3486 -0.2294  0.1576
11310TIP3    H255346   6.257   1.945  12.292 -0.1029 -0.0175  0.6633
11311TIP3   OH255347   6.049   1.924   3.132 -0.0909  0.8557 -0.4417
11311TIP3    H155348   6.028   1.915   3.225 -2.1696  1.5731 -0.8132
11311TIP3    H255349   6.035   1.837   3.096 -0.3446  0.8267 -0.2778
11312TIP3   OH255350   6.045   6.627   2.814 -0.7157  0.1191  0.1858
11312TIP3    H155351   6.114   6.589   2.759 -0.7344 -0.0745  0.2945
11312TIP3    H255352   5.964   6.589   2.780 -0.7631  0.3007  0.0957
11313TIP3   OH255353   4.749   6.490   1.356  0.3630 -0.1382 -0.2998
11313TIP3    H155354   4.706   6.530   1.280  1.1302  1.1011 -0.1018
11313TIP3    H255355   4.689   6.422   1.385 -0.1185 -0.3738 -1.7909
11314TIP3   OH255356   3.670   0.596  13.153  0.2856  0.2992 -0.5066
11314TIP3    H155357   3.707   0.626  13.070 -0.7097  1.4956 -0.5275
11314TIP3    H255358   3.582   0.565  13.129 -0.5862  2.0571  0.3294
11315TIP3   OH255359   0.034   4.659   1.981  0.2260 -0.5573  0.0726
11315TIP3    H155360  -0.039   4.605   1.952  1.9294 -1.3622 -3.0018
11315TIP3    H255361   0.007   4.748   1.962  0.3704 -0.9169 -1.8781
11316TIP3   OH255362   6.554   1.438  14.938  0.8113  0.4253  0.9309
11316TIP3    H155363   6.573   1.430  14.844  0.3500  0.0987  0.8642
11316TIP3    H255364   6.521   1.527  14.948  0.6806  0.3974  0.7522
11317TIP3   OH255365   0.675   6.128   1.666 -0.3497 -0.0419 -0.1760
11317TIP3    H155366   0.591   6.132   1.621 -0.9594 -0.9504  0.8741
11317TIP3    H255367   0.718   6.210   1.644 -1.5646  0.4836 -0.6024
11318TIP3   OH255368   5.945   5.632  14.431 -0.1056 -0.0567  0.1931
11318TIP3    H155369   6.006   5.559  14.443  0.6981  0.1819 -2.2420
11318TIP3    H255370   5.858   5.592  14.435  0.3340 -1.1620 -1.1443
11319TIP3   OH255371   1.077   5.470  13.471  0.0306 -0.1218  0.1609
11319TIP3    H155372   1.142   5.499  13.407  0.4059 -0.7226  0.2581
11319TIP3    H255373   0.993   5.490  13.430  0.2770  0.4134 -0.0852
11320TIP3   OH255374   0.526   0.519  11.743  0.0354 -0.4519 -0.2583
11320TIP3    H155375   0.589   0.558  11.803 -0.6206 -1.1796  0.9225
11320TIP3    H255376   0.482   0.593  11.702  0.0068  0.0401  0.6690
11321TIP3   OH255377   0.857   5.175   0.027  0.3299 -0.1011 -0.2211
11321TIP3    H155378   0.773   5.132   0.046 -0.0332  1.6362  2.2389
11321TIP3    H255379   0.894   5.195   0.112  1.7183  2.1186 -1.2993
11322TIP3   OH255380   3.843   2.513   0.271  0.1417 -0.0201 -0.0770
11322TIP3    H155381   3.934   2.523   0.298 -0.0318  0.7390  0.2310
11322TIP3    H255382   3.840   2.428   0.227  1.0480  0.0663 -0.3065
11323TIP3   OH255383   1.685   5.757   1.881 -0.0074  0.1768 -0.4970
11323TIP3    H155384   1.776   5.730   1.870 -0.4570 -1.9277  0.7912
11323TIP3    H255385   1.634   5.690   1.835 -1.0160  0.4188  0.2469
11324TIP3   OH255386   0.053   6.211   5.398  0.5261  0.2229  0.0203
11324TIP3    H155387   0.029   6.214   5.491  0.9454  2.9501  0.0912
11324TIP3    H255388   0.070   6.303   5.375 -0.5933 -0.2848 -3.0256
11325TIP3   OH255389   0.963   6.172  15.510  0.3897 -0.0259 -0.0287
11325TIP3    H155390   0.937   6.082  15.488  0.1458  0.1292 -0.3933
11325TIP3    H255391   0.976   6.171  15.605  1.4715 -0.7151 -0.1861
11326TIP3   OH255392   0.611   2.920   5.629 -0.4814  0.4685  0.2009
11326TIP3    H155393   0.588   2.827   5.639  0.1954  0.3309  0.5258
11326TIP3    H255394   0.646   2.926   5.540 -0.7650  0.4655  0.0874
11327TIP3   OH255395   0.905   1.888  17.032  0.3276  0.1430  0.2135
11327TIP3    H155396   0.912   1.947  17.107 -0.3246 -0.5568  0.8322
11327TIP3    H255397   0.903   1.947  16.956 -0.9083  0.9657  0.8554
11328TIP3   OH255398   6.629   1.257  11.553 -0.3918  0.3278 -0.1138
11328TIP3    H155399   6.557   1.214  11.599 -0.7011  1.9040  0.8862
11328TIP3    H255400   6.702   1.194  11.561 -1.4266 -0.9539 -0.5306
11329TIP3   OH255401   0.795   6.580  15.543 -0.2670 -0.4740 -0.0487
11329TIP3    H155402   0.744   6.649  15.586 -1.1621  0.0418 -1.9159
11329TIP3    H255403   0.806   6.513  15.611 -0.3944  0.9722  1.4274
11330TIP3   OH255404   5.183   0.503  15.432 -0.6857 -0.1781 -0.5348
11330TIP3    H155405   5.190   0.457  15.516 -1.0316  0.3025 -0.2398
11330TIP3    H255406   5.108   0.462  15.388 -1.5012  0.6575  0.0758
11331TIP3   OH255407   3.973   2.348   0.723  0.4015  0.0156  0.3024
11331TIP3    H155408   4.063   2.378   0.729  0.7769 -0.7520 -1.2198
11331TIP3    H255409   3.920   2.427   0.735  1.3098  0.6803 -0.0475
11332TIP3   OH255410   5.527   4.485  10.770  0.2567  0.3496 -0.0908
11332TIP3    H155411   5.508   4.393  10.751 -0.8267  0.2786  1.3039
11332TIP3    H255412   5.511   4.530  10.687  0.3649 -0.6522 -0.6608
11333TIP3   OH255413   2.603   4.958   3.069 -0.2195  0.6908 -0.2624
11333TIP3    H155414   2.581   4.865   3.059  0.8901  0.4503 -0.4709
11333TIP3    H255415   2.544   4.989   3.138 -0.8675 -0.0710 -0.4651
11334TIP3   OH255416   4.077   1.905  14.071  0.1960 -0.1793 -0.0785
11334TIP3    H155417   4.056   1.998  14.062  0.3745 -0.0322  0.9881
11334TIP3    H255418   4.039   1.865  13.993 -1.0458  0.5863  0.1226
11335TIP3   OH255419   4.101   5.516  10.943 -0.4068 -0.0029 -0.0504
11335TIP3    H155420   4.135   5.582  10.882 -0.7320  0.1285 -0.0888
11335TIP3    H255421   4.051   5.456  10.888 -0.7540  0.1515  0.0974
11336TIP3   OH255422   1.520   1.243   2.862  0.1133  0.1772 -0.4655
11336TIP3    H155423   1.428   1.230   2.882  0.2917 -0.3156  0.0614
11336TIP3    H255424   1.548   1.313   2.921  0.0336  0.4648 -0.7640
11337TIP3   OH255425   4.990   6.059   0.001 -1.0439 -0.1428  0.8834
11337TIP3    H155426   4.963   6.151   0.005  1.2780  0.5874  0.4174
11337TIP3    H255427   4.917   6.011   0.040 -2.6188  1.8273  0.4353
11338TIP3   OH255428   3.696   2.685  13.552  0.2062  0.2331 -0.0279
11338TIP3    H155429   3.674   2.705  13.461 -0.1387  0.5794  0.1302
11338TIP3    H255430   3.614   2.655  13.590  0.5361 -0.7298 -0.0502
11339TIP3   OH255431   6.409   0.696   6.446  0.6099 -0.5951 -1.0474
11339TIP3    H155432   6.462   0.617   6.442  1.9945  0.3473 -1.5346
11339TIP3    H255433   6.472   0.767   6.455 -0.6606  0.3821  0.5364
11340TIP3   OH255434   0.930   1.851   0.186  0.3768 -0.4568  0.0203
11340TIP3    H155435   1.003   1.848   0.248  0.0245  0.4703  0.4845
11340TIP3    H255436   0.865   1.906   0.229 -0.6523 -1.3933 -0.3365
11341TIP3   OH255437   2.982   4.738  16.782 -0.2369  0.0722 -0.8829
11341TIP3    H155438   2.900   4.691  16.770 -0.8919  0.9508  0.0259
11341TIP3    H255439   2.974   4.815  16.727 -0.3633  0.5652 -0.1859
11342TIP3   OH255440   1.054   5.040   1.564  0.5357 -0.2443  0.3705
11342TIP3    H155441   0.991   4.971   1.585  0.5112 -0.5640 -0.6894
11342TIP3    H255442   1.023   5.117   1.612 -0.0865 -0.6740  0.6628
11343TIP3   OH255443   0.115   0.133  15.586  0.1449 -0.5926  0.1253
11343TIP3    H155444   0.151   0.082  15.513  0.1223 -2.1179  1.1477
11343TIP3    H255445   0.025   0.101  15.595 -0.0945  0.1360  0.3435
11344TIP3   OH255446   3.251   4.392   4.046  0.2066  0.0665 -0.0428
11344TIP3    H155447   3.193   4.466   4.026 -3.0444 -2.2383  0.3843
11344TIP3    H255448   3.232   4.371   4.137  1.7098 -0.7748  0.0862
11345TIP3   OH255449   4.273   4.851  16.144 -0.0197 -0.1531  0.1766
11345TIP3    H155450   4.355   4.826  16.100  1.3275  1.5580  1.6240
11345TIP3    H255451   4.275   4.947  16.146 -1.6567 -0.1226  0.9812
11346TIP3   OH255452   6.285   5.575  15.919  0.6224  0.4125 -0.1779
11346TIP3    H155453   6.199   5.609  15.942  0.0958 -1.0716  0.1355
11346TIP3    H255454   6.268   5.512  15.848  1.8668  2.6802 -2.5772
11347TIP3   OH255455   5.669   4.397  16.101  0.5038 -0.2563 -0.1129
11347TIP3    H155456   5.592   4.341  16.107 -0.0312  0.6902  2.5031
11347TIP3    H255457   5.653   4.453  16.025 -0.9355 -0.7200 -0.1601
11348TIP3   OH255458   3.950   3.746   0.849 -0.1221 -0.1596  0.2543
11348TIP3    H155459   3.956   3.807   0.922 -0.6740 -0.6272  0.6962
11348TIP3    H255460   3.888   3.679   0.879 -2.6219  1.1777 -1.7387
11349TIP3   OH255461   6.546   0.803  15.890 -0.2620 -0.5136  0.1497
11349TIP3    H155462   6.485   0.735  15.916 -1.2993 -0.0525 -1.0780
11349TIP3    H255463   6.580   0.838  15.973 -1.0567 -1.3025  0.8061
11350TIP3   OH255464   6.740   6.758   2.536 -0.2965  0.3313 -0.6957
11350TIP3    H155465   6.806   6.796   2.593 -0.4254  0.9927 -0.9873
11350TIP3    H255466   6.757   6.664   2.539 -0.7075  0.2895  0.9436
11351TIP3   OH255467   2.580   5.709  13.241 -0.0005 -0.3823  0.1088
11351TIP3    H155468   2.546   5.784  13.290 -0.6051 -0.3116 -0.4196
11351TIP3    H255469   2.505   5.651  13.231 -0.0496 -0.0608 -1.3837
11352TIP3   OH255470   1.613   4.675   2.863  0.9272 -0.0075  0.5467
11352TIP3    H155471   1.586   4.695   2.953  0.7783  0.5631  0.3764
11352TIP3    H255472   1.700   4.715   2.855  0.1206  1.6715 -0.1823
11353TIP3   OH255473   3.471   1.510  16.609 -0.5074  0.2801  0.1871
11353TIP3    H155474   3.557   1.536  16.642  0.3090 -0.0594 -1.6351
11353TIP3    H255475   3.420   1.490  16.688  1.9206 -2.1831  1.1836
11354TIP3   OH255476   3.792   4.538  14.991 -0.5106  0.5509 -0.0715
11354TIP3    H155477   3.709   4.492  14.982 -1.3996  2.4081 -1.5915
11354TIP3    H255478   3.768   4.631  14.997  1.4428  1.0979 -0.3869
11355TIP3   OH255479   5.357   0.126  13.269  0.8342 -0.1775  0.5748
11355TIP3    H155480   5.414   0.165  13.336 -0.6993 -0.1768  1.9196
11355TIP3    H255481   5.356   0.033  13.289  2.3046 -0.5461 -0.9642
11356TIP3   OH255482   5.544   4.509  16.862  0.0630 -0.7822  0.0461
11356TIP3    H155483   5.572   4.601  16.865 -2.7792  0.1861 -1.4829
11356TIP3    H255484   5.606   4.468  16.801  0.4395  0.4600 -0.4377
11357TIP3   OH255485   4.679   2.582   2.202 -0.0172  0.4796 -0.3164
11357TIP3    H155486   4.726   2.652   2.157  1.0516 -0.8175 -1.2737
11357TIP3    H255487   4.703   2.591   2.294  0.5261  1.0400 -0.5162
11358TIP3   OH255488   4.246   1.139   3.262 -0.3210  0.5818  0.3896
11358TIP3    H155489   4.279   1.229   3.261  2.1155 -0.3006 -0.1189
11358TIP3    H255490   4.224   1.123   3.354 -0.4743  1.5842  0.5337
11359TIP3   OH255491   2.785   3.807   1.250  0.1534 -0.1448  0.4126
11359TIP3    H155492   2.713   3.779   1.194  0.7156  1.7575 -1.2977
11359TIP3    H255493   2.764   3.897   1.274  1.4385  0.0877  0.7172
11360TIP3   OH255494   5.583   6.291  11.988  0.0460  0.7041  0.0893
11360TIP3    H155495   5.638   6.233  12.040 -2.1529 -1.7287 -0.1774
11360TIP3    H255496   5.540   6.233  11.925 -0.7386  2.9209 -1.4936
11361TIP3   OH255497   2.328   3.210   2.562 -0.4330  0.0294 -0.0331
11361TIP3    H155498   2.411   3.253   2.586 -1.1854  1.2654  0.4189
11361TIP3    H255499   2.350   3.117   2.557  1.0705  0.3752 -0.2748
11362TIP3   OH255500   0.008   4.833  11.448  0.1985 -0.0996 -0.1910
11362TIP3    H155501  -0.063   4.789  11.401  0.6752 -1.6087  0.4583
11362TIP3    H255502  -0.032   4.912  11.483 -0.9155 -0.4494 -0.6469
11363TIP3   OH255503   1.293   0.817  11.608  0.5670  0.8368  0.0808
11363TIP3    H155504   1.273   0.910  11.622  1.8778  0.9288  1.4112
11363TIP3    H255505   1.301   0.781  11.696  1.2628 -0.2853 -0.4441
11364TIP3   OH255506   0.254   1.397   5.224  0.5252  0.1558  0.7308
11364TIP3    H155507   0.294   1.357   5.301  0.9779 -0.5213  0.1461
11364TIP3    H255508   0.282   1.488   5.227  0.6996  0.0841  1.2702
11365TIP3   OH255509   1.512   3.599   0.559 -0.2116 -0.1150 -0.0233
11365TIP3    H155510   1.529   3.534   0.626  0.6893  0.0866 -0.0470
11365TIP3    H255511   1.523   3.683   0.603  0.4761  0.0179 -0.4354
11366TIP3   OH255512   3.860   5.351  16.124 -0.3362 -0.0933 -0.1859
11366TIP3    H155513   3.802   5.397  16.184 -0.9013 -1.0182 -0.0074
11366TIP3    H255514   3.885   5.271  16.171 -0.1203 -0.4207 -0.8469
11367TIP3   OH255515   1.066   3.409   5.251 -0.1683 -0.1015 -0.4230
11367TIP3    H155516   1.145   3.393   5.199  0.0096 -1.7184  0.3344
11367TIP3    H255517   1.086   3.488   5.301  0.5355  0.1390 -1.0780
11368TIP3   OH255518   6.536   0.847  16.802  0.2488 -0.5113  0.4845
11368TIP3    H155519   6.499   0.835  16.889  0.8161 -2.0196  0.5223
11368TIP3    H255520   6.617   0.896  16.817  0.6310 -1.2482  0.8760
11369TIP3   OH255521   0.488   1.985   4.999 -0.1162 -0.0471 -0.1856
11369TIP3    H155522   0.402   2.019   5.024  0.0076 -0.3840  0.6817
11369TIP3    H255523   0.480   1.968   4.905 -0.3776  1.7890 -0.5164
11370TIP3   OH255524   6.264   2.539   2.029  0.0507 -0.2464  0.2425
11370TIP3    H155525   6.273   2.621   2.077  0.2351  0.9283 -1.7296
11370TIP3    H255526   6.345   2.492   2.046  0.2143  0.2470  0.8711
11371TIP3   OH255527   5.575   2.921   4.089  0.4716  0.8710  0.4562
11371TIP3    H155528   5.495   2.959   4.054  0.2766  1.8047  1.8914
11371TIP3    H255529   5.627   2.898   4.012 -0.8885  0.8635 -0.4594
11372TIP3   OH255530   0.032   5.983  15.929  0.1860  0.4892 -0.4053
11372TIP3    H155531   0.122   5.977  15.962  0.7050 -2.2629 -2.1904
11372TIP3    H255532  -0.022   5.954  16.003  0.6476  3.0955  1.0121
11373TIP3   OH255533   0.950   4.998  11.930  0.3477  0.0053  0.1092
11373TIP3    H155534   0.955   4.983  11.835  1.7398  1.1547 -0.0207
11373TIP3    H255535   0.920   5.089  11.938  1.3468  0.2826  0.7590
11374TIP3   OH255536   0.358   1.041   5.324 -0.4561  0.5582 -0.2149
11374TIP3    H155537   0.393   1.130   5.329  0.0194  0.2933  1.3450
11374TIP3    H255538   0.393   1.006   5.242  0.1995  1.4429 -0.3220
11375TIP3   OH255539   2.582   2.909   3.807 -0.2926  0.2165  0.0773
11375TIP3    H155540   2.516   2.906   3.876 -0.8881 -0.9442 -0.5301
11375TIP3    H255541   2.545   2.966   3.741  0.1168  1.0330  0.5481
11376TIP3   OH255542   2.258   1.643   4.846 -0.1727 -0.2022 -0.1719
11376TIP3    H155543   2.196   1.576   4.817  1.1073 -0.9925 -1.1577
11376TIP3    H255544   2.344   1.602   4.835  0.7660  2.3159 -2.7846
11377TIP3   OH255545   2.856   6.763  11.526  0.2389 -0.1355 -0.5088
11377TIP3    H155546   2.765   6.783  11.547  0.3640  0.5154 -0.5643
11377TIP3    H255547   2.861   6.668  11.527 -0.2631 -0.1617  0.2701
11378TIP3   OH255548   6.004   5.169   0.200 -0.3264  0.0799 -0.5858
11378TIP3    H155549   6.036   5.126   0.121 -2.7995  2.0592 -2.7873
11378TIP3    H255550   5.967   5.251   0.168 -1.4502  0.8885  2.6556
11379TIP3   OH255551   3.025   0.080  11.329  0.0775  0.3496  0.1057
11379TIP3    H155552   3.002   0.055  11.419  0.3749 -2.9063 -0.6653
11379TIP3    H255553   2.946   0.062  11.278  0.9532 -1.0156 -0.8156
11380TIP3   OH255554   5.558   5.895   5.126  0.2476  0.6696  0.8970
11380TIP3    H155555   5.491   5.835   5.160 -1.5668  2.2287  0.1189
11380TIP3    H255556   5.621   5.902   5.197 -0.4828 -0.6781  1.7214
11381TIP3   OH255557   6.223   5.076  12.058  0.5704  0.8868  0.1808
11381TIP3    H155558   6.230   4.983  12.041  3.8116  1.0774  0.2333
11381TIP3    H255559   6.162   5.108  11.991  0.3749 -1.0403 -0.5905
11382TIP3   OH255560   6.688   5.610   3.692  0.1245  0.2136  0.5411
11382TIP3    H155561   6.769   5.632   3.646 -0.5684  1.7805  0.0363
11382TIP3    H255562   6.713   5.601   3.784  0.7313  1.4434  0.4947
11383TIP3   OH255563   3.585   6.191  15.525  0.5942 -0.5583  0.0369
11383TIP3    H155564   3.620   6.140  15.452  1.4914 -0.5243  0.4367
11383TIP3    H255565   3.662   6.227  15.568  0.0842 -0.7401  1.1247
11384TIP3   OH255566   2.781   2.077   5.400 -0.4270 -0.2990  0.0003
11384TIP3    H155567   2.873   2.064   5.419 -0.7683  0.8174  2.5287
11384TIP3    H255568   2.751   1.992   5.368  1.0785 -1.1430  0.7972
11385TIP3   OH255569   1.372   1.589  13.327 -0.2008 -0.0916  0.0978
11385TIP3    H155570   1.457   1.561  13.293  0.9019  3.6990 -0.5370
11385TIP3    H255571   1.394   1.637  13.407 -1.9810 -0.9717  1.1390
11386TIP3   OH255572   0.419   6.068   1.576 -0.2229 -0.1295 -0.7357
11386TIP3    H155573   0.421   6.010   1.500  0.5961  0.1105 -0.9036
11386TIP3    H255574   0.329   6.063   1.608 -0.3996 -0.7472 -1.3228
11387TIP3   OH255575   0.513   3.788  11.900  0.4246 -0.3005  0.0794
11387TIP3    H155576   0.599   3.762  11.866  0.6950 -0.3815  0.8033
11387TIP3    H255577   0.469   3.705  11.919  0.4865 -0.2586  0.4240
11388TIP3   OH255578   1.987   4.882  12.291 -0.2008 -0.0318  0.2444
11388TIP3    H155579   2.051   4.826  12.246 -0.1527 -0.4968  0.8865
11388TIP3    H255580   2.038   4.956  12.322 -0.4845  1.0194 -1.7001
11389TIP3   OH255581   2.923   3.232   2.417  0.0664  0.1437 -0.1956
11389TIP3    H155582   2.898   3.251   2.507 -2.4059  0.8091 -1.0065
11389TIP3    H255583   2.896   3.141   2.403  2.1852 -0.6028  0.2962
11390TIP3   OH255584   5.969   6.317   5.524  0.0450  0.7638 -0.0494
11390TIP3    H155585   5.939   6.280   5.607  0.2057 -0.4337 -0.5008
11390TIP3    H255586   5.908   6.388   5.505 -1.0298 -0.0681  0.2364
11391TIP3   OH255587   6.341   5.895  11.795 -0.0887 -0.7003 -0.2329
11391TIP3    H155588   6.277   5.945  11.744  0.4131  0.2890  0.0897
11391TIP3    H255589   6.319   5.804  11.777 -1.1337 -0.3746 -0.6941
11392TIP3   OH255590   5.141   1.983   2.783  0.0807 -0.0040  0.3673
11392TIP3    H155591   5.195   1.905   2.794 -2.8659 -2.1028  0.7314
11392TIP3    H255592   5.087   1.963   2.706  0.5821  2.5049 -0.6850
11393TIP3   OH255593   1.847   0.477   6.106 -0.6815  0.3303 -0.2641
11393TIP3    H155594   1.832   0.392   6.064 -2.0016  1.6786 -2.6226
11393TIP3    H255595   1.763   0.499   6.146 -0.5102  0.7862 -0.1497
11394TIP3   OH255596   5.488   0.158  12.981 -0.0009  0.1657  0.2424
11394TIP3    H155597   5.459   0.175  13.071  0.2699 -0.7366  0.5106
11394TIP3    H255598   5.409   0.130  12.935  0.4315 -2.4598  1.0140
11395TIP3   OH255599   3.643   1.787  12.351 -0.4001 -0.2677 -0.2045
11395TIP3    H155600   3.711   1.853  12.337 -1.8943  1.4428  0.5848
11395TIP3    H255601   3.673   1.737  12.427 -0.5072  1.1059  0.7400
11396TIP3   OH255602   3.128   5.490  16.336 -0.0152 -0.2402 -0.0464
11396TIP3    H155603   3.082   5.507  16.254 -1.0768 -1.4978  0.2757
11396TIP3    H255604   3.197   5.429  16.313 -0.1641 -0.4073 -0.0483
11397TIP3   OH255605   3.897   2.091   5.083  0.4094 -0.5671 -0.2338
11397TIP3    H155606   3.937   2.177   5.069 -0.0119 -0.4382 -0.6625
11397TIP3    H255607   3.857   2.098   5.169  0.1121 -0.2304 -0.3981
11398TIP3   OH255608   2.511   2.520  12.729 -0.0868 -0.0300  0.1546
11398TIP3    H155609   2.511   2.427  12.749  2.4630 -0.4539 -1.5145
11398TIP3    H255610   2.492   2.524  12.635  0.0879  1.1173  0.1632
11399TIP3   OH255611   4.620   0.412   5.307  0.3465 -0.1168  0.5392
11399TIP3    H155612   4.565   0.452   5.240  0.2167 -0.2604  0.5583
11399TIP3    H255613   4.568   0.338   5.339  1.2110 -1.2665 -0.6108
11400TIP3   OH255614   0.051   3.222   5.573 -0.0068  0.5127  0.3705
11400TIP3    H155615   0.064   3.140   5.621  0.6970  1.0644  1.1619
11400TIP3    H255616   0.019   3.283   5.639  0.0313  1.0264 -0.0822
11401TIP3   OH255617   2.189   1.446  15.816  0.2003 -0.1568 -0.2694
11401TIP3    H155618   2.172   1.466  15.908 -0.7642  0.5019 -0.5845
11401TIP3    H255619   2.168   1.353  15.806 -0.2462 -0.0868  0.0466
11402TIP3   OH255620   2.127   6.068   5.493 -0.4693  0.0633  0.0730
11402TIP3    H155621   2.164   5.981   5.479 -1.1191 -0.4173  1.2108
11402TIP3    H255622   2.110   6.102   5.405 -1.1427 -1.3728 -0.3735
11403TIP3   OH255623   4.298   4.306  16.983  0.5469  0.0260  0.2344
11403TIP3    H155624   4.301   4.216  16.951 -0.0544  0.3681 -0.8395
11403TIP3    H255625   4.389   4.332  16.990  0.7110 -0.2861 -0.5874
11404TIP3   OH255626   3.999   1.564  14.501 -0.0576  0.5536 -0.3671
11404TIP3    H155627   4.060   1.631  14.531 -0.4949  0.0232  1.7981
11404TIP3    H255628   3.919   1.612  14.479  0.1782  0.9151 -0.4386
11405TIP3   OH255629   2.750   5.125   3.423  0.1219  0.3740 -0.2567
11405TIP3    H155630   2.707   5.205   3.456 -0.9037 -0.2088 -0.1715
11405TIP3    H255631   2.741   5.062   3.495  1.2023  0.2671 -0.2037
11406TIP3   OH255632   0.357   6.743  15.424 -0.3354  0.2053 -0.0171
11406TIP3    H155633   0.393   6.692  15.351 -1.7638  0.4915 -0.9236
11406TIP3    H255634   0.271   6.772  15.394 -0.5500  1.1181  1.4243
11407TIP3   OH255635   3.342   4.752   2.582  0.1371 -0.0961 -0.3149
11407TIP3    H155636   3.397   4.674   2.584  0.1557 -0.0529  1.0076
11407TIP3    H255637   3.252   4.718   2.590  0.1322  0.0050  0.0523
11408TIP3   OH255638   5.845   4.311  14.399  0.0135  0.0409  0.2425
11408TIP3    H155639   5.909   4.327  14.331  0.2080  1.0385  0.6567
11408TIP3    H255640   5.768   4.276  14.353 -0.4388  2.2144 -0.6789
11409TIP3   OH255641   1.866   5.124  14.715  0.2915  0.4522 -0.3377
11409TIP3    H155642   1.954   5.088  14.724 -0.2308 -1.0635 -1.2177
11409TIP3    H255643   1.870   5.178  14.637 -0.2320 -1.7204 -1.8999
11410TIP3   OH255644   4.978   4.731   5.682 -0.3006 -0.0927  0.1632
11410TIP3    H155645   5.001   4.662   5.619  2.1186 -0.1953  1.1131
11410TIP3    H255646   4.985   4.688   5.767  0.2273  1.0637  0.7012
11411TIP3   OH255647   3.828   5.258   0.310  0.0336  0.4151  0.0551
11411TIP3    H155648   3.842   5.331   0.249  0.6113  0.9314  0.7849
11411TIP3    H255649   3.790   5.299   0.388  0.1534 -0.0985  0.3847
11412TIP3   OH255650   1.367   6.152   2.225  0.6113  0.3730 -0.5083
11412TIP3    H155651   1.334   6.242   2.229  0.2619  0.2791 -1.2647
11412TIP3    H255652   1.458   6.161   2.194 -0.4412  0.2539 -3.8269
11413TIP3   OH255653   3.737   5.350   3.247  0.3996 -0.2215  0.6911
11413TIP3    H155654   3.822   5.378   3.213  0.2970 -0.4453  0.2433
11413TIP3    H255655   3.758   5.293   3.321  0.7165 -2.3330 -0.9673
11414TIP3   OH255656   0.968   2.159  14.161 -0.7716 -0.1451 -0.7780
11414TIP3    H155657   1.013   2.082  14.126 -1.4202  0.2475 -2.5006
11414TIP3    H255658   0.928   2.129  14.243  0.7908 -1.0631 -0.3318
11415TIP3   OH255659   4.141   0.487   4.441  0.4249 -0.3038 -0.1227
11415TIP3    H155660   4.114   0.413   4.387  0.5040  0.5356 -1.3208
11415TIP3    H255661   4.072   0.496   4.506 -1.7355  1.1964 -2.5407
11416TIP3   OH255662   1.319   5.534   3.003  0.6553 -0.4101 -0.7161
11416TIP3    H155663   1.320   5.567   2.913  0.3457  2.6231  0.3371
11416TIP3    H255664   1.410   5.540   3.031  0.5851 -0.4384 -0.4873
11417TIP3   OH255665   2.748   1.902   1.553  0.1805 -0.4696  0.2984
11417TIP3    H155666   2.801   1.969   1.597 -0.8300  0.2522  0.4326
11417TIP3    H255667   2.806   1.827   1.546  0.8916 -0.0344  1.3724
11418TIP3   OH255668   5.996   3.100  12.152 -0.4007 -0.2220 -0.2233
11418TIP3    H155669   6.019   3.137  12.067  1.2334  2.8625  1.4541
11418TIP3    H255670   6.000   3.005  12.139  1.2553  0.1955 -3.2085
11419TIP3   OH255671   3.838   3.841   1.263 -0.7003  0.1380 -0.3653
11419TIP3    H155672   3.898   3.807   1.329 -1.3059 -0.3712 -0.0655
11419TIP3    H255673   3.894   3.876   1.194 -0.0406  1.8700  1.0220
11420TIP3   OH255674   2.086   6.149   5.205 -0.6746  0.0890  0.1113
11420TIP3    H155675   2.004   6.145   5.157 -0.7066 -3.0017  0.3510
11420TIP3    H255676   2.154   6.151   5.137 -0.8393 -0.0028 -0.0563
11421TIP3   OH255677   4.739   4.954  13.478 -0.3750 -0.1546 -0.2112
11421TIP3    H155678   4.723   4.954  13.572  2.5662  1.9023  0.3740
11421TIP3    H255679   4.676   5.017  13.443  0.1144  0.8935  0.7472
11422TIP3   OH255680   5.599   2.806  12.354  0.7817 -0.0576  0.0032
11422TIP3    H155681   5.506   2.786  12.341  0.4197  0.4705  1.6122
11422TIP3    H255682   5.609   2.897  12.328  0.6543  0.1383  0.6147
11423TIP3   OH255683   5.973   5.015  11.553  0.3061 -1.0823 -0.0775
11423TIP3    H155684   5.945   4.944  11.495 -1.8738  0.0490 -0.4784
11423TIP3    H255685   5.896   5.033  11.607  0.7534  1.0807 -0.1131
11424TIP3   OH255686   0.707   2.226   3.914 -0.0748 -0.7627 -0.1546
11424TIP3    H155687   0.800   2.226   3.939 -0.3100  0.0661  0.7169
11424TIP3    H255688   0.662   2.191   3.990 -0.4846 -1.1941 -0.5932
11425TIP3   OH255689   2.134   3.786   5.210  0.3149  0.3030  0.1877
11425TIP3    H155690   2.211   3.729   5.201  0.2440  0.1637  0.4456
11425TIP3    H255691   2.122   3.794   5.305  1.6238  2.4826  0.2151
11426TIP3   OH255692   4.267   0.750  15.078 -0.7515 -0.1005  0.3658
11426TIP3    H155693   4.347   0.702  15.098 -1.1874 -0.0443  2.2689
11426TIP3    H255694   4.198   0.684  15.077 -0.7463 -0.1157 -1.0758
11427TIP3   OH255695   2.779   5.829  15.255 -0.1658  0.2953 -0.0753
11427TIP3    H155696   2.807   5.823  15.346  1.0992  3.0154 -0.2143
11427TIP3    H255697   2.855   5.799  15.205 -0.3229  0.2035 -0.2584
11428TIP3   OH255698   2.335   5.493   3.501  0.5227 -0.5316  0.1220
11428TIP3    H155699   2.306   5.545   3.426  1.3203 -0.8819 -0.4317
11428TIP3    H255700   2.302   5.541   3.577 -0.7447 -0.4638 -0.4717
11429TIP3   OH255701   0.995   0.914  13.952 -0.3487 -0.4324 -0.3186
11429TIP3    H155702   1.031   0.920  14.041 -2.1288  0.0706  0.3838
11429TIP3    H255703   1.016   0.998  13.912  0.3591 -0.6186 -0.3448
11430TIP3   OH255704   4.313   4.491   6.065  0.5423 -0.3960 -0.1452
11430TIP3    H155705   4.374   4.418   6.059 -0.1623 -0.9901 -0.1291
11430TIP3    H255706   4.237   4.455   6.112 -0.4198 -0.0649 -1.4387
11431TIP3   OH255707   0.442   0.999  14.338  0.1266 -0.1140 -0.1399
11431TIP3    H155708   0.398   1.008  14.423  0.0617 -0.0457 -0.1810
11431TIP3    H255709   0.386   1.047  14.277  0.0162 -0.4158 -0.2760
11432TIP3   OH255710   4.539   5.905   0.204 -0.1399  0.4785 -0.0662
11432TIP3    H155711   4.529   5.900   0.299 -1.0954 -1.1804 -0.2315
11432TIP3    H255712   4.470   5.965   0.176  0.5007  1.4096  0.3343
11433TIP3   OH255713   2.148   4.340  14.067 -0.2715  0.0849  0.0138
11433TIP3    H155714   2.156   4.265  14.127 -0.1708 -0.5975 -0.8447
11433TIP3    H255715   2.098   4.305  13.993  0.7639  0.5686 -0.9077
11434TIP3   OH255716   4.746   5.263   0.627  0.7535 -0.6811  0.2032
11434TIP3    H155717   4.722   5.233   0.539  1.2999 -0.4568 -0.0275
11434TIP3    H255718   4.720   5.355   0.630 -0.8891 -1.1534  0.8986
11435TIP3   OH255719   3.603   2.043   5.715 -0.0956  0.0571  0.6367
11435TIP3    H155720   3.642   2.010   5.796  1.0901  1.0753  0.5047
11435TIP3    H255721   3.596   2.137   5.728 -1.2766  0.0478  0.1230
11436TIP3   OH255722   3.959   2.548  15.492 -0.0315 -0.3544 -0.3081
11436TIP3    H155723   3.864   2.543  15.476 -0.3449  0.5264  1.2349
11436TIP3    H255724   3.995   2.582  15.410 -1.3411  1.6687 -0.0875
11437TIP3   OH255725   3.268   1.688   6.064 -0.1268  0.4173  0.0859
11437TIP3    H155726   3.284   1.702   5.970  0.7768  0.5142  0.2482
11437TIP3    H255727   3.201   1.620   6.067 -0.6910  0.9353 -0.6430
11438TIP3   OH255728   0.168   2.945  11.288  0.8245 -0.7163 -0.6198
11438TIP3    H155729   0.181   2.901  11.204 -3.4635 -1.5264 -1.0183
11438TIP3    H255730   0.110   3.019  11.268  0.9211 -0.0577  1.3945
11439TIP3   OH255731   6.682   2.809   2.252 -0.2879  0.4040  0.3762
11439TIP3    H155732   6.737   2.887   2.247  1.7133 -1.1341 -2.8654
11439TIP3    H255733   6.735   2.744   2.298 -1.1620  0.2836  1.2381
11440TIP3   OH255734   4.905   2.119   4.527  0.1873 -0.4309 -0.2486
11440TIP3    H155735   4.882   2.102   4.618  0.3462 -1.8350 -0.4697
11440TIP3    H255736   4.997   2.146   4.531 -0.1018  0.5211  0.1120
11441TIP3   OH255737   3.249   4.962   1.755  0.2806  0.1847  0.7073
11441TIP3    H155738   3.261   4.895   1.822  0.1202 -0.2828  0.2740
11441TIP3    H255739   3.174   5.013   1.784  1.2804  1.0903  1.7769
11442TIP3   OH255740   6.124   1.155  15.110  0.0531 -0.0185  0.3937
11442TIP3    H155741   6.196   1.180  15.169 -0.3252  2.1061 -0.0176
11442TIP3    H255742   6.099   1.067  15.140  0.2961  0.7457  2.9880
11443TIP3   OH255743   6.389   4.085   5.574  0.2448 -0.0465 -0.2657
11443TIP3    H155744   6.455   4.064   5.507  0.7580 -1.3562  0.6319
11443TIP3    H255745   6.353   4.000   5.600 -1.7403  0.6436 -0.6532
11444TIP3   OH255746   4.646   5.297   2.928  0.7356  0.0949  0.8980
11444TIP3    H155747   4.648   5.360   2.857 -1.5888  1.4297  1.9748
11444TIP3    H255748   4.609   5.218   2.889  1.5756  0.0905  0.0952
11445TIP3   OH255749   5.456   4.448  12.180 -0.3680  0.7540 -0.0973
11445TIP3    H155750   5.463   4.387  12.253 -1.1882 -0.9390 -1.4030
11445TIP3    H255751   5.523   4.420  12.117  0.3891  2.2443  0.0330
11446TIP3   OH255752   4.213   2.952   4.804 -0.0467  0.3248  0.2693
11446TIP3    H155753   4.177   2.900   4.733  1.5363  0.1890 -0.4672
11446TIP3    H255754   4.232   3.037   4.764  1.7490 -0.0585  0.2566
11447TIP3   OH255755   6.486   2.823   3.589  0.7173 -0.1751 -0.3071
11447TIP3    H155756   6.504   2.880   3.514  0.0729  2.9452  1.8386
11447TIP3    H255757   6.391   2.806   3.583  0.6060  0.3491  0.0068
11448TIP3   OH255758   0.166   0.608  11.053  0.1991 -0.2651  0.0130
11448TIP3    H155759   0.199   0.555  11.126 -0.5723 -0.4729  0.2196
11448TIP3    H255760   0.121   0.546  10.996 -0.9253  0.1939  0.3824
11449TIP3   OH255761   5.158   2.198   4.493  0.2589 -0.5292 -0.0580
11449TIP3    H155762   5.164   2.254   4.416  1.7898 -0.8174 -0.1684
11449TIP3    H255763   5.210   2.121   4.471 -0.2469 -1.1358  0.8297
11450TIP3   OH255764   1.144   2.942  16.999  0.7319  0.1137  0.2004
11450TIP3    H155765   1.069   2.958  16.941 -0.0631 -0.0723  1.1727
11450TIP3    H255766   1.193   2.873  16.955  0.7052  0.7085 -0.7835
11451TIP3   OH255767   2.451   3.987   0.991 -0.7448  0.0944  0.2810
11451TIP3    H155768   2.523   3.934   1.027 -0.9683  0.1467  0.8105
11451TIP3    H255769   2.439   4.056   1.055  1.2747  2.3056 -1.6398
11452TIP3   OH255770   2.824   4.854  12.939 -0.2258  0.0069 -0.2409
11452TIP3    H155771   2.748   4.837  12.995 -0.5284  0.1131 -0.6148
11452TIP3    H255772   2.826   4.949  12.929 -1.2261 -0.1040 -1.8293
11453TIP3   OH255773   4.508   0.353   0.299 -0.1425  0.0743 -0.7745
11453TIP3    H155774   4.568   0.345   0.373 -0.6869  1.3090 -0.1841
11453TIP3    H255775   4.437   0.292   0.319 -0.2704  0.3751 -0.2776
11454TIP3   OH255776   0.908   3.729  16.935  0.0260 -0.4396  0.0705
11454TIP3    H155777   0.896   3.805  16.877 -3.5898 -0.4257  0.6942
11454TIP3    H255778   0.840   3.667  16.906 -0.9262 -0.9919  3.3602
11455TIP3   OH255779   4.265   6.683   2.489 -0.6331  0.9178 -0.0052
11455TIP3    H155780   4.215   6.750   2.442 -0.2231  1.4081  0.2536
11455TIP3    H255781   4.207   6.607   2.490 -0.6006  0.8689 -1.4013
11456TIP3   OH255782   1.208   0.816   0.848  0.7125  0.0819  0.1968
11456TIP3    H155783   1.132   0.870   0.826  0.4863 -0.0312  0.7135
11456TIP3    H255784   1.211   0.749   0.780  1.3436  1.1037 -0.7985
11457TIP3   OH255785   0.971   4.645  12.782 -0.1391 -0.4780  0.0698
11457TIP3    H155786   0.939   4.615  12.867  0.7844 -2.3849 -0.2239
11457TIP3    H255787   0.948   4.738  12.779 -2.2450 -0.9230  1.4250
11458TIP3   OH255788   5.652   3.891   3.867 -0.3690  0.1404 -0.2635
11458TIP3    H155789   5.602   3.812   3.845 -1.2149 -0.0107  2.1005
11458TIP3    H255790   5.722   3.861   3.924 -0.7822  1.1044  0.7735
11459TIP3   OH255791   3.923   3.532   6.000 -0.4842 -0.1008 -0.1484
11459TIP3    H155792   3.983   3.603   6.023 -0.4332 -0.6466  1.4903
11459TIP3    H255793   3.841   3.554   6.044 -0.5222 -0.9652  0.2181
11460TIP3   OH255794   2.490   2.947  11.927 -0.3323  0.1636 -0.0886
11460TIP3    H155795   2.515   2.949  12.019  0.7177  2.7666 -0.3741
11460TIP3    H255796   2.570   2.920  11.881 -0.5453 -0.0608 -0.3308
11461TIP3   OH255797   5.597   1.719  16.521  0.1199  0.0157  0.2115
11461TIP3    H155798   5.502   1.727  16.513  0.0317 -1.9485 -1.4268
11461TIP3    H255799   5.612   1.689  16.610 -0.7881  0.5283  0.5365
11462TIP3   OH255800   4.112   6.426  12.318  0.4206  0.3997 -0.0506
11462TIP3    H155801   4.199   6.419  12.280  1.1702  3.2154  0.9940
11462TIP3    H255802   4.054   6.440  12.244  1.0277 -0.2154 -0.6440
11463TIP3   OH255803   1.291   5.369   4.992  0.4397 -0.9194 -0.2440
11463TIP3    H155804   1.257   5.360   4.903  0.5554 -0.0684 -0.3748
11463TIP3    H255805   1.258   5.454   5.022  2.5940  0.0124 -0.4352
11464TIP3   OH255806   3.344   0.199  14.070  0.1096  0.1343  0.2892
11464TIP3    H155807   3.388   0.132  14.017  0.0806 -0.2702  0.7709
11464TIP3    H255808   3.256   0.164  14.084  0.2076  0.1074  0.8488
11465TIP3   OH255809   5.100   2.481   1.580  0.5417  0.1614  0.5895
11465TIP3    H155810   5.029   2.429   1.617 -0.0580 -0.0300 -0.8150
11465TIP3    H255811   5.138   2.425   1.512  0.2262  1.3477 -0.5874
11466TIP3   OH255812   2.030   1.423  14.119  0.2641 -0.3022 -0.2214
11466TIP3    H155813   1.965   1.396  14.184  0.2571 -0.1364 -0.1590
11466TIP3    H255814   1.990   1.497  14.073  1.2236  1.1255  1.1841
11467TIP3   OH255815   3.280   6.454   1.939 -0.7382 -0.2877 -0.0046
11467TIP3    H155816   3.306   6.543   1.962  0.4675 -0.2015 -1.6048
11467TIP3    H255817   3.360   6.403   1.948 -1.6904 -1.4883  2.0925
11468TIP3   OH255818   0.204   2.202   5.441 -0.0896  0.1990 -0.5240
11468TIP3    H155819   0.236   2.279   5.489 -0.6054  0.2487 -0.2527
11468TIP3    H255820   0.159   2.238   5.365  2.7034  0.0462 -2.2803
11469TIP3   OH255821   1.863   2.037  14.839 -0.4547  0.4690 -0.2131
11469TIP3    H155822   1.814   2.066  14.916 -1.1558  0.1539 -0.5347
11469TIP3    H255823   1.844   2.102  14.772  0.5150  0.9887  0.0056
11470TIP3   OH255824   0.563   0.076   6.211  0.3497  0.0741 -0.2365
11470TIP3    H155825   0.612   0.151   6.177 -0.6636  0.4874 -0.8440
11470TIP3    H255826   0.494   0.062   6.146 -0.1364 -0.6892  0.4370
11471TIP3   OH255827   5.892   5.905   0.819  0.3023 -0.1384  0.2634
11471TIP3    H155828   5.887   5.821   0.866 -0.9754 -1.4411 -2.1229
11471TIP3    H255829   5.830   5.962   0.865 -1.8534 -1.7778 -0.5056
11472TIP3   OH255830   4.340   2.037  14.135 -0.0131 -0.6995  0.5442
11472TIP3    H155831   4.262   2.031  14.079  0.6131 -0.0759 -0.4013
11472TIP3    H255832   4.319   1.982  14.210 -1.8772  0.4052  0.8873
11473TIP3   OH255833   1.429   1.547   2.352 -0.2368 -0.4094 -0.0318
11473TIP3    H155834   1.460   1.585   2.435 -0.4219 -1.5589  0.5816
11473TIP3    H255835   1.334   1.544   2.362 -0.2309 -0.9028 -0.1262
11474TIP3   OH255836   4.990   6.370   3.995 -0.7283  0.3967 -0.4044
11474TIP3    H155837   4.930   6.421   3.940 -1.4980 -0.1565 -0.0926
11474TIP3    H255838   5.010   6.292   3.942 -1.8284 -0.3575  0.2553
11475TIP3   OH255839   6.419   1.165   1.142  0.0000 -0.3511 -0.1748
11475TIP3    H155840   6.372   1.176   1.059 -0.8272 -1.1933  0.1839
11475TIP3    H255841   6.353   1.136   1.204  0.8683 -0.9345  0.4916
11476TIP3   OH255842   5.694   5.016  14.318 -0.5609  0.4642  0.0508
11476TIP3    H155843   5.668   5.082  14.254  0.9201  1.1253  0.0977
11476TIP3    H255844   5.719   5.066  14.396 -0.2514 -0.1940  0.3801
11477TIP3   OH255845   0.756   5.025   3.841  0.6425 -0.2133  0.1942
11477TIP3    H155846   0.819   4.957   3.866  0.0482 -0.0155  2.3957
11477TIP3    H255847   0.670   4.987   3.861  0.0303 -0.5196 -2.8794
11478TIP3   OH255848   2.295   6.674  13.035  0.0313  0.6437 -1.1466
11478TIP3    H155849   2.386   6.645  13.040  0.0094  0.6389 -0.6886
11478TIP3    H255850   2.298   6.757  12.987  0.4102  1.1907 -0.1960
11479TIP3   OH255851   6.182   0.999   3.474  0.5002 -0.2046  0.0910
11479TIP3    H155852   6.237   0.923   3.453  1.1301  0.6158 -1.3127
11479TIP3    H255853   6.116   1.001   3.404 -0.7724 -0.6516  1.2632
11480TIP3   OH255854   2.048   5.804   3.143  0.1204 -0.6442  0.0496
11480TIP3    H155855   2.035   5.880   3.200 -3.2440  0.3174 -1.8069
11480TIP3    H255856   2.128   5.824   3.094  0.9624  0.2549  1.7607
11481TIP3   OH255857   3.676   0.284  15.954 -0.2688 -0.1808 -0.5405
11481TIP3    H155858   3.640   0.277  15.865 -0.6148  0.6470 -0.4725
11481TIP3    H255859   3.764   0.321  15.941 -1.3952  2.6604 -0.3498
11482TIP3   OH255860   1.935   6.159   0.753  0.6016  0.6042  0.5069
11482TIP3    H155861   1.894   6.236   0.713  1.3134  0.5629 -0.3222
11482TIP3    H255862   1.982   6.193   0.829 -1.4488  0.5687  1.8312
11483TIP3   OH255863   4.227   0.814  17.180 -0.6936 -0.1123 -0.1103
11483TIP3    H155864   4.248   0.815  17.273  1.1389  1.0536 -0.5098
11483TIP3    H255865   4.192   0.726  17.164 -2.2641  0.1257  1.9232
11484TIP3   OH255866   0.584   4.590   0.354  0.5369  0.3368  0.3601
11484TIP3    H155867   0.576   4.627   0.266 -0.9956  2.1307  1.2040
11484TIP3    H255868   0.527   4.513   0.354  0.0204  0.7166 -0.0317
11485TIP3   OH255869   5.433   4.906   5.921  0.0470 -0.2446 -0.0630
11485TIP3    H155870   5.482   4.852   5.983 -0.0594  1.6955  1.7674
11485TIP3    H255871   5.406   4.845   5.853 -0.3300 -2.5782  2.0754
11486TIP3   OH255872   3.127   1.151   2.165  0.1865  1.0357  0.4836
11486TIP3    H155873   3.191   1.182   2.100  2.2934 -0.1413  1.9327
11486TIP3    H255874   3.091   1.231   2.203  1.9955  1.7535  0.7479
11487TIP3   OH255875   2.435   2.058  15.598 -0.0835 -0.2729 -0.0439
11487TIP3    H155876   2.433   2.084  15.690 -0.9274 -3.8019  0.9827
11487TIP3    H255877   2.344   2.063  15.570 -0.3193 -2.3564  0.2778
11488TIP3   OH255878   0.434   5.225  12.682  0.6855  1.0413  0.3049
11488TIP3    H155879   0.421   5.276  12.762 -1.8103  1.4934 -0.3384
11488TIP3    H255880   0.359   5.166  12.679  2.0875 -0.7707 -0.4194
11489TIP3   OH255881   2.891   0.015   4.379  0.2746 -0.1114  0.1549
11489TIP3    H155882   2.846  -0.014   4.458 -2.6575 -1.1632 -1.8061
11489TIP3    H255883   2.900   0.110   4.389 -1.1435 -0.0800  1.2184
11490TIP3   OH255884   4.566   6.393   5.980 -0.3930 -0.3680  0.0165
11490TIP3    H155885   4.586   6.328   6.048  0.2097  0.0797  0.2700
11490TIP3    H255886   4.471   6.392   5.974 -0.4306 -0.6929  0.5990
11491TIP3   OH255887   3.339   3.788  15.969 -0.6210  0.2119 -0.1569
11491TIP3    H155888   3.431   3.804  15.992 -0.2495 -1.4851 -0.3779
11491TIP3    H255889   3.297   3.873  15.980  1.2184  1.3015 -1.2435
11492TIP3   OH255890   1.472   4.932  15.241  0.1342 -0.2951  0.1559
11492TIP3    H155891   1.377   4.944  15.235  0.1694  0.5576  1.1635
11492TIP3    H255892   1.495   4.882  15.162 -1.2141 -0.9184  0.1379
11493TIP3   OH255893   5.235   3.493  10.612  0.2389 -0.6645  0.6296
11493TIP3    H155894   5.176   3.533  10.677 -0.2787  0.1743 -0.3532
11493TIP3    H255895   5.313   3.549  10.612  1.2124 -1.9637  2.1763
11494TIP3   OH255896   1.230   6.022   3.591  0.0518 -0.4431  0.2493
11494TIP3    H155897   1.171   6.035   3.517 -0.4026  0.0868  0.7018
11494TIP3    H255898   1.171   5.998   3.663  0.4900 -0.9324  0.4475
11495TIP3   OH255899   1.425   3.052   0.845  0.0424 -0.4475  0.6705
11495TIP3    H155900   1.370   3.120   0.807  0.6236 -0.1016  0.4494
11495TIP3    H255901   1.464   3.094   0.922  1.8645  0.0789 -0.5051
11496TIP3   OH255902   1.950   0.377  11.208  0.2197 -0.4028 -0.2451
11496TIP3    H155903   1.906   0.315  11.266 -2.4678  0.6311 -1.1071
11496TIP3    H255904   2.041   0.346  11.205 -0.2463 -2.1865  2.1420
11497TIP3   OH255905   6.137   5.088   2.729  0.0689  0.0498 -0.0529
11497TIP3    H155906   6.227   5.092   2.696  0.3045  0.8449  0.6542
11497TIP3    H255907   6.087   5.049   2.658  1.2143 -1.6696  0.0695
11498TIP3   OH255908   1.487   6.088   4.230 -0.6237  0.6261  0.3928
11498TIP3    H155909   1.575   6.103   4.197 -0.5559 -1.9773 -0.7668
11498TIP3    H255910   1.497   6.085   4.325  0.5874  0.0457  0.2548
11499TIP3   OH255911   2.391   2.034  12.574  0.0246 -0.4061  0.0113
11499TIP3    H155912   2.470   2.089  12.569 -0.1773  0.0288  1.4585
11499TIP3    H255913   2.344   2.066  12.651  0.8884 -3.9372  2.1155
11500TIP3   OH255914   6.450   1.332   1.872 -0.3607 -0.0135 -0.0724
11500TIP3    H155915   6.484   1.243   1.875  0.7312  0.4380  1.0087
11500TIP3    H255916   6.526   1.388   1.889 -0.5848  1.2321 -2.8390
11501TIP3   OH255917   0.787   4.779  11.963 -0.2839  0.0557 -0.0891
11501TIP3    H155918   0.778   4.765  11.868 -1.5539 -2.1397  0.3361
11501TIP3    H255919   0.839   4.860  11.970  1.5144 -0.8064 -2.6607
11502TIP3   OH255920   1.425   5.610   1.913  0.0369  0.1173  0.2965
11502TIP3    H155921   1.371   5.559   1.852  1.4673  0.3320 -1.1847
11502TIP3    H255922   1.402   5.576   1.999 -0.8693 -1.2953 -0.4727
11503TIP3   OH255923   5.198   5.371   2.710  0.1399 -0.7776 -0.4353
11503TIP3    H155924   5.270   5.418   2.752 -0.6930  0.7827 -0.7266
11503TIP3    H255925   5.122   5.388   2.766 -0.2425 -1.5105 -0.7222
11504TIP3   OH255926   6.105   4.782  16.796 -0.1001  0.2760  0.1193
11504TIP3    H155927   6.185   4.794  16.848  0.4147 -1.0084 -0.3709
11504TIP3    H255928   6.052   4.859  16.816  1.3733  1.2782  0.2424
11505TIP3   OH255929   2.487   1.375  11.182 -0.1251 -0.0563 -0.0748
11505TIP3    H155930   2.485   1.302  11.243  1.5805 -0.9316 -1.0294
11505TIP3    H255931   2.576   1.411  11.191 -0.2970  0.6423 -1.0548
11506TIP3   OH255932   3.946   0.413  15.911  0.2074  0.1768  0.2803
11506TIP3    H155933   3.887   0.481  15.879 -0.3601  0.7195  2.4105
11506TIP3    H255934   4.025   0.460  15.937  0.9509 -0.3508 -0.9492
11507TIP3   OH255935   6.266   1.273  15.899 -0.0077 -0.0808  0.1028
11507TIP3    H155936   6.332   1.206  15.914 -0.1770 -0.3452 -0.3440
11507TIP3    H255937   6.204   1.262  15.971  0.0813 -0.2597  0.1518
11508TIP3   OH255938   0.830   4.842  14.414 -0.2055 -0.4231  0.1701
11508TIP3    H155939   0.749   4.859  14.463 -0.7118  0.0991 -0.8408
11508TIP3    H255940   0.900   4.873  14.473 -0.7101 -1.1727  1.1775
11509TIP3   OH255941   5.287   0.132   5.881 -0.0237 -0.1442  0.0399
11509TIP3    H155942   5.371   0.157   5.919  0.3553 -2.4561  0.7935
11509TIP3    H255943   5.307   0.109   5.790 -0.1535  0.8958 -0.2676
11510TIP3   OH255944   0.864   3.313   2.826 -0.3993 -0.3807  0.4755
11510TIP3    H155945   0.948   3.279   2.858 -0.3476 -0.6924  0.0050
11510TIP3    H255946   0.802   3.290   2.895 -0.2229 -0.7448  0.5130
11511TIP3   OH255947   2.040   1.894   5.817  0.3272  0.2657  0.5482
11511TIP3    H155948   2.053   1.921   5.908 -1.8878  0.1713  0.9110
11511TIP3    H255949   1.959   1.937   5.790  0.6449 -0.1951 -1.1922
11512TIP3   OH255950   3.515   2.858   0.657 -0.1178  0.4633 -0.1841
11512TIP3    H155951   3.512   2.934   0.715 -0.6619 -1.2598  2.1239
11512TIP3    H255952   3.484   2.785   0.711 -0.5366 -1.2324 -2.6223
11513TIP3   OH255953   3.016   2.998   2.804  0.5648  0.5960  0.1140
11513TIP3    H155954   2.929   2.986   2.842  1.0393  1.7205  1.6173
11513TIP3    H255955   3.035   3.091   2.818  1.4879  0.6422 -1.3492
11514TIP3   OH255956   0.991   4.076   0.587  0.3183 -0.1495 -0.2656
11514TIP3    H155957   1.044   4.059   0.665 -0.7961 -0.8195  0.3587
11514TIP3    H255958   0.934   4.149   0.612 -2.2262 -2.3572  0.6645
11515TIP3   OH255959   2.164   3.817   0.759 -0.4217  0.6658 -0.3066
11515TIP3    H155960   2.131   3.730   0.736 -0.3416  1.1932 -2.5528
11515TIP3    H255961   2.095   3.877   0.731  0.3175  1.4334 -0.4965
11516TIP3   OH255962   3.046   3.695  11.788  0.7086  0.5807 -0.2979
11516TIP3    H155963   3.048   3.783  11.749  0.3230  0.4370 -0.6445
11516TIP3    H255964   3.082   3.638  11.721 -3.0942 -0.1834 -1.8480
11517TIP3   OH255965   0.003   3.442   2.608  0.3219  0.7602  0.0732
11517TIP3    H155966  -0.059   3.515   2.612  0.3385  0.8550 -1.1490
11517TIP3    H255967   0.065   3.468   2.540  1.1695  0.2461  0.6459
11518TIP3   OH255968   5.052   1.585  12.755 -0.2949 -0.2918 -0.5713
11518TIP3    H155969   4.994   1.511  12.772  0.3309 -0.6434  0.0634
11518TIP3    H255970   5.068   1.582  12.661 -3.2436  1.2540 -1.1787
11519TIP3   OH255971   0.114   5.179   4.518 -0.7278 -0.3204  0.0373
11519TIP3    H155972   0.022   5.204   4.522 -0.4940  0.6768 -0.6057
11519TIP3    H255973   0.140   5.197   4.428  0.5384  1.0622  0.6514
11520TIP3   OH255974   4.629   3.380  13.324 -0.2714 -0.0848  0.2152
11520TIP3    H155975   4.653   3.355  13.235  0.1219  2.6031 -0.4745
11520TIP3    H255976   4.687   3.327  13.379 -0.5892 -1.8512 -1.0860
11521TIP3   OH255977   3.258   5.250   1.639  0.2518 -0.2348 -1.3034
11521TIP3    H155978   3.235   5.338   1.610  1.0445  0.1946 -0.6420
11521TIP3    H255979   3.246   5.196   1.561 -0.3950  0.4267 -1.6718
11522TIP3   OH255980   6.574   1.854   1.109 -0.1183 -0.0218  0.0873
11522TIP3    H155981   6.631   1.835   1.183 -2.1720  0.6073  1.8931
11522TIP3    H255982   6.600   1.942   1.081 -0.8169  0.6580  1.5186
11523TIP3   OH255983   4.519   1.106  14.364  0.0342  0.1837  0.2481
11523TIP3    H155984   4.537   1.081  14.273 -1.3240  0.7324 -0.1947
11523TIP3    H255985   4.438   1.158  14.358 -0.3157 -0.1672  1.8236
11524TIP3   OH255986   0.613   0.225   5.254 -0.4329 -0.3447  0.1083
11524TIP3    H155987   0.668   0.276   5.195 -0.1148 -0.3309  0.4157
11524TIP3    H255988   0.525   0.260   5.242 -0.3061 -0.0945 -0.0858
11525TIP3   OH255989   1.717   0.846   2.941 -0.2303  0.2620 -0.0747
11525TIP3    H155990   1.631   0.806   2.955 -0.6104  1.1957  0.3235
11525TIP3    H255991   1.704   0.938   2.964  1.6990 -0.2084  3.2995
11526TIP3   OH255992   4.222   3.202   5.591 -0.2918  0.1543 -0.5680
11526TIP3    H155993   4.254   3.161   5.511  1.5677  0.4460  0.0046
11526TIP3    H255994   4.279   3.278   5.604  0.5500 -0.8425  1.9299
11527TIP3   OH255995   6.173   1.049  11.401 -0.4696 -0.6136 -0.1647
11527TIP3    H155996   6.200   1.137  11.427 -2.0357 -0.5749  1.3921
11527TIP3    H255997   6.254   0.997  11.403  0.4305  0.7458 -0.9477
11528TIP3   OH255998   3.647   1.601   2.822  0.1556 -0.3780  0.5028
11528TIP3    H155999   3.592   1.637   2.892 -3.4972 -2.2702 -1.2632
11528TIP3    H256000   3.622   1.652   2.745 -0.5678 -2.5601 -0.7210
11529TIP3   OH256001   1.445   3.391  10.702 -0.1245  0.2283  0.0426
11529TIP3    H156002   1.520   3.441  10.670 -0.9845  1.6117  0.1361
11529TIP3    H256003   1.385   3.457  10.736 -1.8356 -0.7748 -0.9349
11530TIP3   OH256004   6.286   0.492   3.701 -0.1248  0.4051 -0.7738
11530TIP3    H156005   6.373   0.517   3.669 -1.0282  0.0658 -3.6288
11530TIP3    H256006   6.228   0.562   3.668 -0.7842  1.3339  2.2040
11531TIP3   OH256007   2.196   3.544   0.263 -0.3271 -0.3555  0.4137
11531TIP3    H156008   2.248   3.588   0.330  0.4667 -2.6196  1.3309
11531TIP3    H256009   2.260   3.511   0.201 -0.8102 -1.3729  0.4457
11532TIP3   OH256010   2.558   6.482  12.426  0.5445 -0.6272  0.1807
11532TIP3    H156011   2.510   6.558  12.395 -1.9528 -1.5479  1.6559
11532TIP3    H256012   2.565   6.425  12.349  1.5054  0.5963 -0.6577
11533TIP3   OH256013   2.737   3.177   5.913  0.0822 -0.4516 -0.1898
11533TIP3    H156014   2.646   3.149   5.906 -0.4027  0.7650  1.0019
11533TIP3    H256015   2.749   3.197   6.006  2.1456 -2.4612  0.0170
11534TIP3   OH256016   2.125   2.371   3.820  0.2572 -0.7483 -0.0591
11534TIP3    H156017   2.030   2.356   3.814  0.1366 -0.6393  1.3407
11534TIP3    H256018   2.163   2.284   3.823  0.2123 -0.7931 -0.8167
11535TIP3   OH256019   1.818   5.625   0.382 -0.0155  0.4024  0.2057
11535TIP3    H156020   1.847   5.612   0.472  1.3281 -0.2114 -0.2900
11535TIP3    H256021   1.899   5.649   0.335 -0.7770  1.1470 -0.7379
11536TIP3   OH256022   0.551   2.944  17.118  0.5555  0.0875  0.0019
11536TIP3    H156023   0.617   2.890  17.161 -0.3712  0.4774  1.9916
11536TIP3    H256024   0.516   2.889  17.048  0.8076 -1.2479  0.9166
11537TIP3   OH256025   1.903   3.964   0.772 -0.2742  0.2064  0.2997
11537TIP3    H156026   1.845   3.907   0.722  0.3603  1.0171 -1.4008
11537TIP3    H256027   1.845   4.008   0.835 -1.1559 -0.4762 -0.0318
11538TIP3   OH256028   4.761   3.024   0.634 -0.6788  0.0960  0.2071
11538TIP3    H156029   4.713   3.099   0.599 -0.1473  0.3022 -0.0861
11538TIP3    H256030   4.707   2.948   0.610 -1.4666  0.4151  0.9363
11539TIP3   OH256031   2.672   3.440  16.959  0.3888  0.4089  0.4918
11539TIP3    H156032   2.643   3.514  17.014  3.1235  1.6535  0.3487
11539TIP3    H256033   2.724   3.386  17.018 -0.4620 -0.6824  0.2410
11540TIP3   OH256034   3.686   2.476   2.205 -0.0928  0.3339  0.4553
11540TIP3    H156035   3.638   2.549   2.167 -0.6652 -1.1811 -1.8197
11540TIP3    H256036   3.778   2.494   2.183 -0.1377  0.7503  0.5980
11541TIP3   OH256037   5.916   0.788  16.625  0.5594  0.5424  0.5594
11541TIP3    H156038   5.900   0.738  16.545 -0.3959  0.3279  0.8799
11541TIP3    H256039   5.878   0.735  16.695  0.3523  1.2789  1.0169
11542TIP3   OH256040   4.296   4.325   1.048 -0.1092  0.4942 -0.8335
11542TIP3    H156041   4.311   4.416   1.023 -1.0958  0.7509 -0.5099
11542TIP3    H256042   4.252   4.330   1.133  0.2056 -0.2929 -0.6191
11543TIP3   OH256043   6.162   3.691  11.221  0.0435  0.3919  0.1412
11543TIP3    H156044   6.079   3.726  11.188  1.4585  1.2391 -2.7423
11543TIP3    H256045   6.196   3.760  11.277  0.4672  1.6184 -1.5658
11544TIP3   OH256046   4.838   5.261  12.007 -0.0444  0.0458  0.2766
11544TIP3    H156047   4.743   5.255  11.993  0.0744  1.1331 -1.0689
11544TIP3    H256048   4.869   5.318  11.938  1.3666  1.1713  1.7923
11545TIP3   OH256049   2.781   6.383   4.044 -0.7439 -0.1194  0.3140
11545TIP3    H156050   2.745   6.420   3.964  0.2776  0.4952  0.1312
11545TIP3    H256051   2.745   6.438   4.114  0.9975  1.4116  0.0212
11546TIP3   OH256052   0.490   6.560  16.542 -0.1582 -0.3604  0.0209
11546TIP3    H156053   0.586   6.555  16.537 -0.0936  0.5674  0.3266
11546TIP3    H256054   0.467   6.496  16.610  0.3550  0.4172  0.9354
11547TIP3   OH256055   3.228   5.260  15.453 -0.2391  0.0054 -0.0310
11547TIP3    H156056   3.233   5.195  15.523  0.2857 -0.1857 -0.2479
11547TIP3    H256057   3.318   5.270  15.423 -0.4923 -0.0362 -0.7960
11548TIP3   OH256058   0.799   6.050  14.333 -0.3664 -0.1200  0.5739
11548TIP3    H156059   0.775   5.963  14.364  0.5783 -0.1857  1.1510
11548TIP3    H256060   0.895   6.053  14.341 -0.2710  0.4918 -0.6988
11549TIP3   OH256061   2.608   4.083  11.744 -0.3652  0.0072 -0.3592
11549TIP3    H156062   2.576   3.994  11.757 -0.4626 -0.2160 -1.9845
11549TIP3    H256063   2.578   4.132  11.820  0.4156 -1.5433  0.9748
11550TIP3   OH256064   2.060   1.216  10.748  0.4637 -0.3348 -0.4730
11550TIP3    H156065   2.056   1.143  10.686 -0.2060 -0.7569  0.0532
11550TIP3    H256066   2.101   1.179  10.826  2.5097  0.5425 -1.1280
11551TIP3   OH256067   0.600   3.974   1.639  0.0563  0.0366 -0.4377
11551TIP3    H156068   0.579   4.060   1.676  2.2362  0.1776  0.5814
11551TIP3    H256069   0.614   3.991   1.546  1.3860  0.9975 -0.0853
11552TIP3   OH256070   5.051   5.744   3.678  0.4888 -0.6880 -0.2004
11552TIP3    H156071   5.085   5.692   3.751  1.5160 -1.1410 -0.9829
11552TIP3    H256072   5.062   5.687   3.601  2.1434  0.8739 -1.1622
11553TIP3   OH256073   2.202   2.629  12.675  0.1211 -0.1452  0.7719
11553TIP3    H156074   2.112   2.623  12.707  0.3768 -0.8416  1.3715
11553TIP3    H256075   2.223   2.722  12.682 -0.3980 -0.0476  1.0568
11554TIP3   OH256076   2.535   6.468  16.206  0.2475  0.4360 -0.4227
11554TIP3    H156077   2.450   6.435  16.174 -0.4949  0.5053  1.4065
11554TIP3    H256078   2.521   6.561  16.218  1.6867  1.1097 -3.4631
11555TIP3   OH256079   6.490   3.465   4.917 -0.2766  0.5247  0.8185
11555TIP3    H156080   6.404   3.452   4.876 -0.2770  0.7001  0.7645
11555TIP3    H256081   6.528   3.377   4.920 -0.5379  0.4188  1.0197
11556TIP3   OH256082   1.682   5.777  17.173  0.5968 -0.0651 -0.1296
11556TIP3    H156083   1.697   5.854  17.117  2.4122 -0.1381  0.2175
11556TIP3    H256084   1.744   5.788  17.246 -1.3683 -0.2385  1.6144
11557TIP3   OH256085   0.449   0.300   4.311  0.0859  0.2348  0.4460
11557TIP3    H156086   0.489   0.268   4.230  0.3575  2.2441 -0.2469
11557TIP3    H256087   0.508   0.369   4.341 -1.2426  1.1049  1.0862
11558TIP3   OH256088   5.612   5.980   4.044  0.3283  0.3536 -0.1807
11558TIP3    H156089   5.609   6.060   3.991 -0.6215 -1.6924 -3.3062
11558TIP3    H256090   5.571   6.006   4.127 -0.0278  3.0750 -1.1393
11559TIP3   OH256091   3.627   6.071  13.787 -0.3918 -0.6590 -0.2785
11559TIP3    H156092   3.608   5.984  13.823  2.5307 -0.6433  1.4302
11559TIP3    H256093   3.697   6.056  13.723 -2.6290 -0.0641 -3.0044
11560TIP3   OH256094   6.370   1.363   2.725 -0.3091  0.2314  0.9031
11560TIP3    H156095   6.362   1.312   2.806 -1.8139  0.5800  0.9952
11560TIP3    H256096   6.401   1.300   2.660  0.5749 -0.1338  1.6771
11561TIP3   OH256097   3.147   1.610   0.305  0.4835  0.3347 -0.0963
11561TIP3    H156098   3.119   1.547   0.238 -0.3280  0.5948 -0.0101
11561TIP3    H256099   3.111   1.694   0.275 -1.0146  0.2283  1.3402
11562TIP3   OH256100   0.047   0.892   3.451  0.9946  0.1116 -0.7235
11562TIP3    H156101   0.054   0.848   3.366  0.6746 -0.9792 -0.1916
11562TIP3    H256102  -0.043   0.873   3.480  1.2741  0.0367  0.0970
11563TIP3   OH256103   5.704   6.310  16.625  0.3180 -0.5043  0.6544
11563TIP3    H156104   5.629   6.337  16.572  1.1689  1.2008  0.2638
11563TIP3    H256105   5.665   6.277  16.706 -0.8904 -0.7261  0.0013
11564TIP3   OH256106   4.561   6.351  12.930 -0.3774 -0.8801 -0.3633
11564TIP3    H156107   4.514   6.432  12.952 -0.7878 -1.4047  0.7629
11564TIP3    H256108   4.651   6.378  12.913  0.3141 -0.5630  3.3819
11565TIP3   OH256109   3.506   4.172   3.273 -0.0134 -0.5199  0.4792
11565TIP3    H156110   3.427   4.187   3.221  0.6942  1.0501 -0.1751
11565TIP3    H256111   3.532   4.259   3.303  0.1581 -1.2988  2.6501
11566TIP3   OH256112   6.068   6.111   0.549 -0.3768  0.2336 -0.1141
11566TIP3    H156113   6.074   6.069   0.635  2.2681  1.8160  0.5225
11566TIP3    H256114   6.013   6.188   0.565 -1.1840 -0.3112 -0.2129
11567TIP3   OH256115   0.589   4.337  15.385  0.1761  0.0927  0.0801
11567TIP3    H156116   0.546   4.251  15.388  0.6855 -0.2380 -1.5140
11567TIP3    H256117   0.682   4.316  15.388  0.2844  0.6544  0.6782
11568TIP3   OH256118   5.728   4.296   5.764 -0.0926 -0.6008 -0.3802
11568TIP3    H156119   5.681   4.358   5.820  2.0797  2.2373 -1.5446
11568TIP3    H256120   5.681   4.299   5.681  1.1085  1.0061 -1.0344
11569TIP3   OH256121   1.769   4.439  16.118 -0.4231 -0.5292  0.4606
11569TIP3    H156122   1.743   4.426  16.209 -1.5413 -0.0741  0.2123
11569TIP3    H256123   1.694   4.408  16.067  0.4467 -1.3757 -0.3239
11570TIP3   OH256124   3.716   5.006  16.074  0.2758 -0.6672 -0.5131
11570TIP3    H156125   3.762   4.964  16.147 -0.6258  0.0273  0.4508
11570TIP3    H256126   3.654   4.940  16.044  0.7860 -1.0260 -0.7887
11571TIP3   OH256127   5.396   4.996   2.826 -0.2682  0.1886  0.0637
11571TIP3    H156128   5.426   4.926   2.883 -1.3389  0.5483  1.0748
11571TIP3    H256129   5.391   5.074   2.882 -0.1921  0.8135 -0.7779
11572TIP3   OH256130   6.711   2.309   2.913  0.2282  0.0591  0.2687
11572TIP3    H156131   6.690   2.268   2.829  0.6822 -3.1529  1.6739
11572TIP3    H256132   6.647   2.272   2.974  0.5798  1.5729  1.5648
11573TIP3   OH256133   3.667   1.347   1.885  0.2530  0.1091 -0.1706
11573TIP3    H156134   3.755   1.383   1.879  0.4602 -0.3601  0.0073
11573TIP3    H256135   3.635   1.376   1.970  0.2757  0.1908 -0.1898
11574TIP3   OH256136   6.355   5.784  12.362  0.5497 -0.1076  0.3795
11574TIP3    H156137   6.319   5.735  12.288 -1.2484 -1.6558  2.2001
11574TIP3    H256138   6.287   5.849  12.381  2.0538  1.8524 -0.7793
11575TIP3   OH256139   1.798   3.106  16.315  0.3458  0.3529 -0.4453
11575TIP3    H156140   1.746   3.041  16.362  0.5438 -0.4991 -1.3947
11575TIP3    H256141   1.762   3.190  16.343 -0.0344 -0.1658  0.6415
11576TIP3   OH256142   0.612   2.591  11.073  0.4809 -0.4597  0.2530
11576TIP3    H156143   0.518   2.609  11.076  0.7839  1.0014  1.4476
11576TIP3    H256144   0.653   2.675  11.052  1.5179 -1.1015 -0.3487
11577TIP3   OH256145   5.662   2.144  15.568  0.2765 -0.5346 -0.0628
11577TIP3    H156146   5.567   2.146  15.561  0.1387  1.2075  1.9255
11577TIP3    H256147   5.690   2.232  15.543  1.1381 -0.1858  2.0419
11578TIP3   OH256148   6.782   3.523   1.271 -0.2435 -0.2421  0.1587
11578TIP3    H156149   6.853   3.537   1.208 -0.1286 -0.8129  0.1606
11578TIP3    H256150   6.712   3.580   1.240  0.3116  0.5411  0.3185
11579TIP3   OH256151   1.505   2.220  11.218  0.7130 -0.1668 -0.1733
11579TIP3    H156152   1.464   2.133  11.216  1.7205 -0.6634  0.4707
11579TIP3    H256153   1.590   2.208  11.177  0.7219  0.5956 -0.3862
11580TIP3   OH256154   3.294   3.883   2.725 -0.3014  0.0313 -0.2178
11580TIP3    H156155   3.251   3.822   2.664 -0.2320 -0.6860  0.4318
11580TIP3    H256156   3.257   3.859   2.810  1.2141 -0.4368  0.3196
11581TIP3   OH256157   0.453   0.148   2.015 -0.0665  0.3690  0.1468
11581TIP3    H156158   0.439   0.087   2.088  2.9023  0.6048  0.9555
11581TIP3    H256159   0.471   0.091   1.940 -4.1310  0.0844 -0.7438
11582TIP3   OH256160   5.728   6.125   5.959 -0.2185  0.6430  0.4028
11582TIP3    H156161   5.758   6.034   5.963  3.1122  1.7010  0.4934
11582TIP3    H256162   5.729   6.155   6.050 -0.1227  1.1285  0.2416
11583TIP3   OH256163   2.829   2.129  12.637  0.4216 -0.3630 -0.2012
11583TIP3    H156164   2.845   2.100  12.547  0.5245 -0.1066 -0.2648
11583TIP3    H256165   2.813   2.048  12.685  0.2775 -0.4968 -0.4672
11584TIP3   OH256166   3.093   5.530   3.736 -0.9615 -0.2422  0.7268
11584TIP3    H156167   3.137   5.500   3.816 -1.4533 -1.6365  0.4897
11584TIP3    H256168   3.054   5.450   3.699  2.1299 -0.2659 -2.7281
11585TIP3   OH256169   2.116   2.335   1.451 -0.5298  0.5875 -0.1759
11585TIP3    H156170   2.205   2.358   1.478 -0.3110  1.1115 -1.3257
11585TIP3    H256171   2.091   2.404   1.390 -0.7480 -0.9371 -1.8595
11586TIP3   OH256172   4.893   2.016   5.844  0.1260  0.3451  0.5083
11586TIP3    H156173   4.919   2.063   5.923 -0.7415 -0.7316  1.4367
11586TIP3    H256174   4.876   1.927   5.873  1.4815 -0.5064 -1.1923
11587TIP3   OH256175   2.898   4.750  14.062  0.6237  0.4876  0.0669
11587TIP3    H156176   2.945   4.687  14.116 -0.1725 -0.4306 -0.3031
11587TIP3    H256177   2.926   4.836  14.096  3.2995 -0.0005 -0.7810
11588TIP3   OH256178   3.997   4.521   2.035 -0.1628 -0.4370  0.2430
11588TIP3    H156179   3.959   4.605   2.006  0.8092 -0.3959 -0.9204
11588TIP3    H256180   3.998   4.528   2.130  0.4720  1.1380  0.1378
11589TIP3   OH256181   1.180   1.713   4.446 -0.0657  0.0037 -0.2714
11589TIP3    H156182   1.236   1.712   4.368 -0.8685  3.0412 -0.9614
11589TIP3    H256183   1.156   1.805   4.457 -2.3592 -0.7942  1.8568
11590TIP3   OH256184   4.499   0.992  15.987 -0.7656  0.2043 -0.2131
11590TIP3    H156185   4.500   0.909  15.939 -0.6122  0.9104 -1.4527
11590TIP3    H256186   4.542   1.054  15.928  0.6167  0.8015  1.3788
11591TIP3   OH256187   1.280   1.271   3.520 -0.2439 -0.2744 -0.2821
11591TIP3    H156188   1.330   1.349   3.496 -0.2536  0.2840  1.4819
11591TIP3    H256189   1.190   1.302   3.531 -0.3702 -0.6536 -0.2352
11592TIP3   OH256190   0.698   6.541  15.093  0.2525 -0.3618  0.1000
11592TIP3    H156191   0.696   6.508  15.183 -1.7005 -0.9460 -0.1412
11592TIP3    H256192   0.747   6.624  15.099  0.8353 -0.7963  1.5458
11593TIP3   OH256193   3.143   6.215  15.078  0.0759 -0.1508 -0.4740
11593TIP3    H156194   3.074   6.242  15.140  0.8751  0.8347  0.0053
11593TIP3    H256195   3.204   6.289  15.078  1.7202 -1.4987 -0.0485
11594TIP3   OH256196   3.726   4.511   2.227  0.3388  0.3729 -0.3050
11594TIP3    H156197   3.717   4.443   2.161 -1.8280  0.5203 -0.2004
11594TIP3    H256198   3.690   4.589   2.186 -0.6028  0.5714  0.8843
11595TIP3   OH256199   2.834   3.846   5.913  0.0007  0.4944  0.0803
11595TIP3    H156200   2.872   3.761   5.891  0.6518  1.0915 -1.1751
11595TIP3    H256201   2.762   3.858   5.850  0.3946  1.1990 -0.2454
11596TIP3   OH256202   0.010   0.146   5.103 -0.8641 -0.1713  0.0881
11596TIP3    H156203   0.059   0.147   5.021  0.4052 -0.3045  0.8307
11596TIP3    H256204  -0.033   0.232   5.106 -1.4905 -0.4257 -1.0271
11597TIP3   OH256205   0.453   0.066   1.723  0.4767 -0.3148  0.4074
11597TIP3    H156206   0.366   0.027   1.739 -0.2100  0.4168 -1.3872
11597TIP3    H256207   0.509  -0.009   1.704 -0.3306 -0.6324 -0.8151
11598TIP3   OH256208   5.555   3.913  14.874 -0.0746 -0.2711  0.6364
11598TIP3    H156209   5.528   3.973  14.944 -1.2078  1.8506 -1.5714
11598TIP3    H256210   5.537   3.826  14.909 -2.5376  0.8249  2.2206
11599TIP3   OH256211   5.733   6.026  14.285 -0.2182 -0.2797  0.3332
11599TIP3    H156212   5.806   6.002  14.228  0.7648 -0.0990  1.4954
11599TIP3    H256213   5.699   5.942  14.317 -1.2060 -0.4126 -1.0386
11600TIP3   OH256214   6.740   2.825  13.514  0.1248  0.4231  0.1019
11600TIP3    H156215   6.774   2.741  13.545 -0.1353  0.3219  0.1141
11600TIP3    H256216   6.699   2.864  13.591 -0.0511  0.4106  0.0145
11601TIP3   OH256217   4.988   1.349  16.154 -0.0575 -0.2791 -0.5689
11601TIP3    H156218   5.063   1.378  16.101  0.2227 -1.0794 -0.6064
11601TIP3    H256219   4.921   1.415  16.136 -0.2989 -1.0432 -2.7021
11602TIP3   OH256220   5.913   5.892   6.764 -0.2145 -0.3663  0.1296
11602TIP3    H156221   5.976   5.824   6.786  0.2614  0.3889  1.1704
11602TIP3    H256222   5.953   5.939   6.690  0.2098 -0.2238  0.4435
11603TIP3   OH256223   1.018   1.503  14.431  0.4430  0.4397 -0.2265
11603TIP3    H156224   0.974   1.491  14.515 -0.5115  1.6910 -0.5354
11603TIP3    H256225   1.087   1.567  14.449  1.1566 -0.3606 -0.0866
11604TIP3   OH256226   0.896   1.746  14.622  0.0206 -0.5608 -0.1436
11604TIP3    H156227   0.815   1.705  14.593 -0.4532 -0.0868  0.4939
11604TIP3    H256228   0.890   1.746  14.718  0.7422 -0.4565 -0.0900
11605TIP3   OH256229   4.660   2.436  15.867  0.7698  0.4589  0.5668
11605TIP3    H156230   4.703   2.472  15.944 -0.4658  0.9798  1.0081
11605TIP3    H256231   4.633   2.512  15.816 -0.2994  0.1523  0.6588
11606TIP3   OH256232   1.191   6.499  12.869  0.4545  0.2577  0.0713
11606TIP3    H156233   1.261   6.437  12.850  0.5435 -0.2603  2.0282
11606TIP3    H256234   1.155   6.471  12.953 -0.4392  1.9986  0.3074
11607TIP3   OH256235   0.618   5.476   5.833  0.1031 -0.0254 -0.0996
11607TIP3    H156236   0.669   5.478   5.752  0.7320 -1.0139  0.2599
11607TIP3    H256237   0.683   5.489   5.902 -0.0769 -1.5816  0.3808
11608TIP3   OH256238   6.197   3.947  11.667  0.3035  0.3573 -0.3862
11608TIP3    H156239   6.290   3.943  11.646  0.4560 -0.7962  0.4661
11608TIP3    H256240   6.192   3.922  11.759 -0.8030  0.9093 -0.2859
11609TIP3   OH256241   2.111   3.693   3.529  0.1222  0.2465 -0.6846
11609TIP3    H156242   2.165   3.757   3.482 -0.2264  0.6902 -0.4856
11609TIP3    H256243   2.021   3.724   3.516 -0.0610 -0.3349 -0.7808
11610TIP3   OH256244   2.832   0.616   1.773 -0.0424  0.1846 -0.3531
11610TIP3    H156245   2.871   0.529   1.784  0.0864  0.2979  0.0921
11610TIP3    H256246   2.760   0.602   1.711  1.5467  0.2046 -2.2782
11611TIP3   OH256247   4.296   0.797  15.500 -0.0499  0.1614 -0.4572
11611TIP3    H156248   4.233   0.805  15.428 -1.7151  3.5667  1.2660
11611TIP3    H256249   4.340   0.882  15.502 -0.8016  0.5271  3.1863
11612TIP3   OH256250   3.259   5.036   1.456 -0.0001 -0.3776  0.0520
11612TIP3    H156251   3.210   4.974   1.402 -0.1680 -0.3760  0.2015
11612TIP3    H256252   3.266   4.994   1.541 -2.3306  0.8638  0.9242
11613TIP3   OH256253   2.442   2.704   4.127  0.4653  0.1956  0.6671
11613TIP3    H156254   2.450   2.793   4.162  0.2258  1.5227 -2.4371
11613TIP3    H256255   2.355   2.676   4.153  0.2626  1.1567  1.0591
11614TIP3   OH256256   3.418   1.901  12.252 -0.8909  0.0815  0.1366
11614TIP3    H156257   3.397   1.969  12.316 -0.2778  0.4383 -0.0307
11614TIP3    H256258   3.487   1.849  12.293 -2.0462 -1.0683  0.6722
11615TIP3   OH256259   2.008   3.540  12.833  0.3775 -0.3638  0.5655
11615TIP3    H156260   1.920   3.569  12.808  0.2367 -1.0106  0.3178
11615TIP3    H256261   1.999   3.447  12.851  0.7285 -0.1530  1.8757
11616TIP3   OH256262   4.045   6.588   5.117 -0.0523 -0.2167 -0.2571
11616TIP3    H156263   4.137   6.570   5.097  0.1433  0.4852 -0.0069
11616TIP3    H256264   4.047   6.633   5.201 -0.8894 -3.5166  1.6287
11617TIP3   OH256265   0.952   3.866   0.216 -0.0358 -0.0052  0.0901
11617TIP3    H156266   0.899   3.795   0.253  1.3023 -0.4681  1.1659
11617TIP3    H256267   1.033   3.824   0.188  0.4947  0.9776  0.1019
11618TIP3   OH256268   5.760   6.197   1.926 -0.1567  0.1373  0.3228
11618TIP3    H156269   5.709   6.132   1.878 -0.0186  0.7273 -0.6373
11618TIP3    H256270   5.747   6.278   1.877  0.6522  0.5676  0.8175
11619TIP3   OH256271   1.107   2.486  16.312 -0.3807  0.0532  0.4935
11619TIP3    H156272   1.090   2.575  16.283  0.1852  0.7815  2.3356
11619TIP3    H256273   1.202   2.475  16.301 -0.8829 -1.4838 -2.8369
11620TIP3   OH256274   5.532   0.058   0.045  0.7004 -0.1056 -0.3857
11620TIP3    H156275   5.550   0.005  -0.032 -0.8609 -2.3405  0.7283
11620TIP3    H256276   5.436   0.057   0.053  0.7939  0.7528  1.1175
11621TIP3   OH256277   2.916   1.046   3.120  0.0163 -0.3974  0.4844
11621TIP3    H156278   2.981   0.977   3.132  0.0653 -0.2899  0.8364
11621TIP3    H256279   2.910   1.088   3.206 -0.2009 -0.1303  0.3367
11622TIP3   OH256280   3.641   5.191  16.974  0.4521 -0.1018 -0.1831
11622TIP3    H156281   3.678   5.132  17.039 -0.4554 -1.4574 -0.8588
11622TIP3    H256282   3.546   5.184  16.987  0.2737 -0.1104 -1.3958
11623TIP3   OH256283   2.708   2.316  12.313  0.2564  0.2332  0.0201
11623TIP3    H156284   2.721   2.410  12.328  1.2954 -0.0336  0.8533
11623TIP3    H256285   2.719   2.306  12.218 -0.9040  1.1084 -0.2090
11624TIP3   OH256286   0.904   3.575  10.531  0.1409 -0.5282  0.3663
11624TIP3    H156287   0.956   3.628  10.471 -0.1308  0.4079  0.9440
11624TIP3    H256288   0.964   3.555  10.603 -0.3510  0.7096  1.1239
11625TIP3   OH256289   2.223   0.803  12.159 -0.0064 -0.2847  0.4900
11625TIP3    H156290   2.225   0.898  12.175 -0.0597 -0.1263 -0.4044
11625TIP3    H256291   2.251   0.794  12.068  1.0368 -1.2116  0.8886
11626TIP3   OH256292   6.527   5.018  17.040  0.0290 -0.5505  0.2040
11626TIP3    H156293   6.565   5.089  16.988  0.9278 -0.1735  1.3507
11626TIP3    H256294   6.599   4.955  17.051 -0.2856 -0.8502  0.5875
11627TIP3   OH256295   3.749   0.908  13.683  0.0686 -0.1963 -0.6339
11627TIP3    H156296   3.831   0.943  13.647 -0.1850  1.0709  0.0048
11627TIP3    H256297   3.774   0.823  13.719  1.1860  0.3079 -0.1740
11628TIP3   OH256298   6.472   3.219  13.919  0.2061 -0.0636 -0.5983
11628TIP3    H156299   6.504   3.244  14.005  1.0874 -1.0598 -0.6250
11628TIP3    H256300   6.511   3.283  13.859  1.2779 -0.6176 -0.4990
11629TIP3   OH256301   4.505   5.571  14.847  0.3641  0.7496 -0.3175
11629TIP3    H156302   4.469   5.604  14.929 -0.1531  0.9062 -0.6080
11629TIP3    H256303   4.520   5.478  14.864  1.3275  1.0141  0.3217
11630TIP3   OH256304   6.073   3.436  15.147 -0.4927 -0.0053  0.0818
11630TIP3    H156305   6.044   3.436  15.238  0.0744  0.9781  0.2637
11630TIP3    H256306   6.168   3.419  15.152 -0.4799 -0.0712 -0.3364
11631TIP3   OH256307   5.379   2.496  17.203  0.3606  0.3063 -0.4680
11631TIP3    H156308   5.448   2.498  17.270 -0.2432  1.7240  0.1369
11631TIP3    H256309   5.391   2.578  17.155  0.0420 -0.1554 -1.3343
11632TIP3   OH256310   1.903   4.321  17.138  0.6519  0.4758 -0.1269
11632TIP3    H156311   1.896   4.416  17.129  0.5685  0.6582  1.7240
11632TIP3    H256312   1.989   4.300  17.100  1.4791  1.5358  1.1043
11633TIP3   OH256313   3.914   5.009  14.030 -0.0824  0.3323 -0.2740
11633TIP3    H156314   3.842   4.973  13.977 -2.0970  0.3613  2.3456
11633TIP3    H256315   3.911   5.103  14.014  0.3491  0.1742 -1.3215
11634TIP3   OH256316   3.333   0.288   1.743  0.0394 -0.3468  0.0508
11634TIP3    H156317   3.266   0.225   1.716  1.0169 -1.1072 -0.6423
11634TIP3    H256318   3.413   0.258   1.699  1.2887 -0.5936  2.3711
11635TIP3   OH256319   1.435   5.682  10.703 -0.3852  0.5576 -0.5385
11635TIP3    H156320   1.345   5.703  10.728 -0.6329  0.1332 -1.0641
11635TIP3    H256321   1.462   5.755  10.647 -0.5981  0.4009 -0.8450
11636TIP3   OH256322   6.196   2.692  17.037 -0.5971  0.2065  0.6653
11636TIP3    H156323   6.187   2.767  16.979  1.3767 -0.3996 -0.4362
11636TIP3    H256324   6.208   2.730  17.124 -1.9359  1.1179  0.4750
11637TIP3   OH256325   3.949   6.636   6.536  0.1780 -0.1140 -0.1778
11637TIP3    H156326   3.999   6.616   6.457  2.2935  0.1861  1.0567
11637TIP3    H256327   3.861   6.657   6.504  1.3036  1.1116 -2.5584
11638TIP3   OH256328   2.168   6.610  12.576  0.6695  0.4016 -0.6210
11638TIP3    H156329   2.139   6.589  12.487  0.1338 -1.9052  0.0630
11638TIP3    H256330   2.095   6.660  12.614 -0.9042 -2.1984 -0.1357
11639TIP3   OH256331   6.207   6.138   5.712  0.3337 -0.3271  0.0373
11639TIP3    H156332   6.226   6.210   5.773 -2.0442 -0.9730  1.5858
11639TIP3    H256333   6.273   6.072   5.734  0.9679  0.3737  0.2970
11640TIP3   OH256334   1.917   0.616   1.649  0.4050 -0.0111  0.1175
11640TIP3    H156335   1.883   0.660   1.571  0.6743 -0.3696 -0.2032
11640TIP3    H256336   2.009   0.602   1.630  0.3213 -0.7081  0.2159
11641TIP3   OH256337   6.762   3.602  16.705 -0.0123 -0.1130  0.4155
11641TIP3    H156338   6.769   3.691  16.670 -1.1281  0.3499  1.3191
11641TIP3    H256339   6.852   3.577  16.725  0.3495  0.6787 -0.1793
11642TIP3   OH256340   4.797   2.026  16.419  0.4861  0.2016  0.0684
11642TIP3    H156341   4.832   2.109  16.385  0.3788  0.3916  0.4205
11642TIP3    H256342   4.764   2.048  16.506  1.9502 -0.5839  0.8365
11643TIP3   OH256343   3.572   5.639  16.011  0.0597 -0.0106 -0.1791
11643TIP3    H156344   3.552   5.574  16.078 -1.3781 -0.6225 -1.1691
11643TIP3    H256345   3.531   5.605  15.932 -1.1833  2.3897 -0.6082
11644TIP3   OH256346   4.345   2.390   2.778 -0.2663  0.4332 -0.1012
11644TIP3    H156347   4.397   2.346   2.711 -1.6877 -1.2628 -0.1276
11644TIP3    H256348   4.406   2.450   2.820  2.0140 -2.2941  0.6154
11645TIP3   OH256349   5.026   2.056  11.531  0.2670 -0.5004  0.3119
11645TIP3    H156350   5.032   2.144  11.494  0.2052 -0.6533 -0.0726
11645TIP3    H256351   5.097   2.007  11.489  0.2170 -0.6665  0.4184
11646TIP3   OH256352   6.655   5.128  15.271  0.4590  0.3755 -0.5329
11646TIP3    H156353   6.601   5.183  15.214 -0.0413  0.1471 -0.2728
11646TIP3    H256354   6.732   5.182  15.290  0.0264  0.9398 -0.3821
11647TIP3   OH256355   3.374   6.215  11.184 -0.0948  0.3228  0.3018
11647TIP3    H156356   3.407   6.251  11.102 -0.2286  0.2131  0.2003
11647TIP3    H256357   3.279   6.224  11.178 -0.2067 -1.1416 -0.2235
11648TIP3   OH256358   1.978   6.595  11.553 -0.5558  0.0344  0.3030
11648TIP3    H156359   1.943   6.575  11.640  2.3858 -2.5673  0.9900
11648TIP3    H256360   1.988   6.690  11.551 -1.2033  0.1656  2.5894
11649TIP3   OH256361   3.585   5.320  15.671  0.0196  0.4661 -0.3780
11649TIP3    H156362   3.534   5.248  15.705  2.1063 -0.3680  1.0954
11649TIP3    H256363   3.676   5.289  15.674  0.8872  2.8721 -0.3636
11650TIP3   OH256364   6.728   4.686  15.697 -0.1183  0.3567  0.1965
11650TIP3    H156365   6.718   4.694  15.602  3.9671  1.6675 -0.1918
11650TIP3    H256366   6.768   4.600  15.710  1.7887  1.2588  0.4793
11651TIP3   OH256367   6.711   1.892  13.936 -0.3574 -0.4609  0.3808
11651TIP3    H156368   6.656   1.898  14.014 -0.0250 -0.2728  0.6004
11651TIP3    H256369   6.797   1.865  13.969  0.2793  1.3857  0.2942
11652TIP3   OH256370   0.056   4.302   2.876  0.6671  0.5859  0.5422
11652TIP3    H156371  -0.015   4.345   2.923 -0.9814  0.9834 -2.2084
11652TIP3    H256372   0.036   4.208   2.880  1.0385  0.5435  1.4185
11653TIP3   OH256373   3.291   3.642  14.293  0.2951 -0.2326 -0.8894
11653TIP3    H156374   3.352   3.634  14.366  1.0272  0.3235 -1.4394
11653TIP3    H256375   3.218   3.693  14.328 -0.9891 -2.8743  0.4811
11654TIP3   OH256376   0.288   3.212   4.718  0.0084 -0.5184 -0.0497
11654TIP3    H156377   0.258   3.255   4.638  0.0459  0.5161  0.4864
11654TIP3    H256378   0.361   3.266   4.748  1.5255 -2.2432 -0.5976
11655TIP3   OH256379   1.743   4.469   2.129 -0.1851  0.1537 -0.4629
11655TIP3    H156380   1.717   4.385   2.166  1.0552 -0.7638 -1.6342
11655TIP3    H256381   1.832   4.484   2.162 -1.2905  2.2490  1.7847
11656TIP3   OH256382   4.918   3.971   5.512  0.3610 -0.0296 -0.2780
11656TIP3    H156383   4.887   4.061   5.509  0.3446 -0.0368 -0.3237
11656TIP3    H256384   5.003   3.973   5.468  0.8774  0.1777  0.6980
11657TIP3   OH256385   1.262   5.490   3.920  0.3237 -0.0198 -0.1322
11657TIP3    H156386   1.343   5.480   3.869  0.1556 -0.6138 -0.2774
11657TIP3    H256387   1.287   5.547   3.993  0.6333  0.6156 -0.7262
11658TIP3   OH256388   6.413   2.399   5.173  0.8026 -0.0543  0.8061
11658TIP3    H156389   6.429   2.491   5.150 -0.7427  0.3059  1.1268
11658TIP3    H256390   6.319   2.395   5.191  1.0293 -1.4950  1.7382
11659TIP3   OH256391   4.175   2.502   4.858  0.6447 -0.3447  0.2882
11659TIP3    H156392   4.231   2.579   4.872  1.4532 -1.1599  1.7301
11659TIP3    H256393   4.226   2.446   4.800  0.1507  0.1158 -0.5866
11660TIP3   OH256394   1.864   2.567   0.332 -0.0586 -0.4560  0.4416
11660TIP3    H156395   1.788   2.533   0.285 -0.1799 -0.4596  0.6372
11660TIP3    H256396   1.940   2.532   0.284 -0.1824 -0.8296  0.5116
11661TIP3   OH256397   0.237   1.461   3.293 -0.0075 -0.7213 -0.6462
11661TIP3    H156398   0.165   1.505   3.247  1.3837 -0.0273 -2.1897
11661TIP3    H256399   0.316   1.507   3.265  1.1169 -1.8650  0.5520
11662TIP3   OH256400   3.122   2.680  17.021  0.3243 -0.0505 -0.0038
11662TIP3    H156401   3.164   2.621  16.958  1.0041 -0.6920  1.0417
11662TIP3    H256402   3.034   2.645  17.032  0.3709 -0.2308 -0.2090
11663TIP3   OH256403   4.202   3.651   5.059 -0.1003  0.5997  0.1897
11663TIP3    H156404   4.116   3.621   5.089  0.9187 -1.3986  1.2202
11663TIP3    H256405   4.232   3.582   5.000  0.8796  1.1966 -0.0166
11664TIP3   OH256406   4.306   4.079   6.070 -0.3239  0.0483 -0.2711
11664TIP3    H156407   4.266   4.005   6.024  0.9515  0.5003 -2.1961
11664TIP3    H256408   4.320   4.145   6.001  0.2515  1.3459  1.0635
11665TIP3   OH256409   3.409   4.065  15.398 -0.0982  0.4316  0.6062
11665TIP3    H156410   3.408   4.015  15.317 -2.5234 -0.5763  1.2286
11665TIP3    H256411   3.426   3.999  15.466 -2.8222  0.4855  1.3820
11666TIP3   OH256412   4.323   6.385  14.423 -0.1674 -0.3313 -0.8784
11666TIP3    H156413   4.231   6.411  14.418  0.2385  0.9054 -2.1195
11666TIP3    H256414   4.321   6.304  14.473 -1.8879 -0.0850 -0.4797
11667TIP3   OH256415   1.745   4.210   3.281  0.2167  0.2565 -0.3520
11667TIP3    H156416   1.715   4.139   3.223 -0.0769  0.2477 -0.1933
11667TIP3    H256417   1.817   4.251   3.234  1.4091 -1.1320  0.2366
11668TIP3   OH256418   5.017   5.998  11.929 -0.0486  0.0204  0.3413
11668TIP3    H156419   4.947   5.941  11.896  0.4466 -1.4279  1.7101
11668TIP3    H256420   5.067   5.941  11.989  1.0476  1.6244  0.9638
11669TIP3   OH256421   1.410   0.782  14.306 -0.6518  0.0305 -0.2726
11669TIP3    H156422   1.473   0.825  14.249 -0.6974  1.1183  0.4777
11669TIP3    H256423   1.443   0.693  14.316 -0.5869 -0.1442 -1.8885
11670TIP3   OH256424   6.147   6.065  11.699  0.6603 -0.4951  0.0374
11670TIP3    H156425   6.057   6.039  11.677  0.2571  0.9541 -0.0504
11670TIP3    H256426   6.187   6.088  11.615  1.0400 -0.8575  0.1130
11671TIP3   OH256427   3.284   1.379   3.740  0.2006  0.4064 -0.1233
11671TIP3    H156428   3.251   1.421   3.661  0.4323  0.9488  0.0664
11671TIP3    H256429   3.332   1.448   3.786  1.1325 -0.2305 -0.1297
11672TIP3   OH256430   2.263   3.476   2.435  0.3010 -0.2813 -0.1498
11672TIP3    H156431   2.219   3.534   2.498  0.7539  0.2722 -0.3425
11672TIP3    H256432   2.284   3.398   2.486 -0.2975 -0.2767  0.1163
11673TIP3   OH256433   3.101   0.243   0.762  0.4035 -0.0560  0.0552
11673TIP3    H156434   3.018   0.214   0.726  0.8561  0.4325 -1.4096
11673TIP3    H256435   3.158   0.166   0.755  0.1806 -0.2888  0.7479
11674TIP3   OH256436   5.970   3.704  11.487 -0.7380 -0.0089 -0.2708
11674TIP3    H156437   5.960   3.799  11.482  0.2738  0.2419  1.9506
11674TIP3    H256438   5.964   3.675  11.396 -0.4000  2.2526 -1.0550
11675TIP3   OH256439   5.667   2.941   5.163 -0.0551  0.1026 -0.2873
11675TIP3    H156440   5.671   3.032   5.133 -4.0603  0.1416 -0.9075
11675TIP3    H256441   5.617   2.895   5.095 -1.0156 -1.8281  1.6698
11676TIP3   OH256442   1.157   1.164  12.077  0.5516  0.3973  0.8222
11676TIP3    H156443   1.139   1.118  12.158 -0.7411  0.2544  0.4611
11676TIP3    H256444   1.071   1.190  12.044  1.1542  1.7192  0.2401
11677TIP3   OH256445   6.463   5.932  13.645  0.0008 -0.2266  0.6807
11677TIP3    H156446   6.496   5.912  13.558  0.7534  0.1593  0.8752
11677TIP3    H256447   6.528   5.991  13.682  0.6785 -1.8966  2.2318
11678TIP3   OH256448   2.643   4.513  13.484 -0.0164  0.0405  0.5234
11678TIP3    H156449   2.627   4.433  13.535 -0.6373 -0.4705 -0.4572
11678TIP3    H256450   2.729   4.499  13.445  0.4834  0.4543  1.4560
11679TIP3   OH256451   2.682   1.667  16.573  0.0486  0.5011 -0.2541
11679TIP3    H156452   2.770   1.700  16.553 -0.1182 -0.4506 -2.6730
11679TIP3    H256453   2.635   1.743  16.608  1.2453  1.4890 -0.7881
11680TIP3   OH256454   6.662   1.085   1.217  0.1484  0.3735  0.1875
11680TIP3    H156455   6.724   1.112   1.150  0.5168 -2.2870 -0.5807
11680TIP3    H256456   6.578   1.123   1.188  0.7322  1.0728 -0.6104
11681TIP3   OH256457   6.693   3.429  11.276 -0.4407  0.5780 -0.0297
11681TIP3    H156458   6.599   3.444  11.286 -0.8696 -2.2909  0.8742
11681TIP3    H256459   6.716   3.471  11.193 -1.9822  3.3957  0.8996
11682TIP3   OH256460   3.609   6.084  14.281 -0.2135 -0.0168 -0.0248
11682TIP3    H156461   3.644   5.996  14.299 -0.2692 -0.2189 -0.8757
11682TIP3    H256462   3.525   6.067  14.237 -1.4011  0.4612  1.9691
11683TIP3   OH256463   2.729   6.617   5.122  0.5761  0.0879  0.1123
11683TIP3    H156464   2.672   6.670   5.177  0.5113 -0.6382  0.7662
11683TIP3    H256465   2.815   6.622   5.164  0.3107 -1.2546  0.8542
11684TIP3   OH256466   3.125   5.297   4.388  0.8435 -0.4106 -0.0280
11684TIP3    H156467   3.138   5.314   4.481  0.0504 -1.2135  0.2295
11684TIP3    H256468   3.119   5.202   4.381  2.0911 -0.4403 -1.0592
11685TIP3   OH256469   4.246   1.809   3.497  0.3825  0.4566  0.0334
11685TIP3    H156470   4.209   1.864   3.565  1.1706  1.1892 -0.1145
11685TIP3    H256471   4.312   1.756   3.542  0.4917  0.5178 -0.0547
11686TIP3   OH256472   5.722   4.942   0.816 -0.4774 -0.1667  0.0845
11686TIP3    H156473   5.672   5.020   0.836 -0.9882 -0.3752 -0.3835
11686TIP3    H256474   5.806   4.955   0.860 -1.9143 -1.0484  3.2641
11687TIP3   OH256475   6.169   2.251   2.954  0.2563  0.0074  0.6485
11687TIP3    H156476   6.212   2.167   2.969 -0.7855 -1.0674 -1.8828
11687TIP3    H256477   6.079   2.227   2.931  0.7432  1.5045 -3.3672
11688TIP3   OH256478   3.748   6.505  14.151 -0.1265 -0.5066 -0.7257
11688TIP3    H156479   3.655   6.520  14.135 -1.1787 -1.0528  4.0647
11688TIP3    H256480   3.762   6.414  14.126 -1.2563 -0.8439 -0.1799
11689TIP3   OH256481   0.158   4.239  13.258  0.1918 -0.4460 -0.3226
11689TIP3    H156482   0.099   4.220  13.331  0.3312 -1.7670 -0.5442
11689TIP3    H256483   0.149   4.164  13.200  0.7075  0.2094 -1.2650
11690TIP3   OH256484   6.108   4.109   5.995  0.7068 -0.7856 -0.0681
11690TIP3    H156485   6.015   4.119   6.015  1.0544 -0.6159  1.5285
11690TIP3    H256486   6.110   4.087   5.902 -0.9369 -0.9190 -0.0921
11691TIP3   OH256487   6.009   6.336  11.375  0.4219  0.2265  0.5627
11691TIP3    H156488   6.027   6.247  11.344  0.3661  0.5205 -0.2959
11691TIP3    H256489   5.969   6.380  11.301 -0.4535  0.6866  1.2964
11692TIP3   OH256490   0.340   3.518   0.723 -0.2642 -0.3094  0.0769
11692TIP3    H156491   0.405   3.568   0.772  0.9293 -1.0114 -0.7734
11692TIP3    H256492   0.325   3.570   0.644  1.0263 -1.2916 -0.8407
11693TIP3   OH256493   6.511   5.686  11.666 -0.4755 -0.1545 -0.1120
11693TIP3    H156494   6.564   5.759  11.635 -0.4832  0.1501  0.5759
11693TIP3    H256495   6.568   5.610  11.661 -1.0244 -0.4375 -2.5282
11694TIP3   OH256496   6.663   1.095   0.701 -0.2844 -0.2141 -0.3458
11694TIP3    H156497   6.568   1.105   0.708 -0.5122 -3.1090  1.4093
11694TIP3    H256498   6.676   1.010   0.660  1.5597 -1.1315  2.0339
11695TIP3   OH256499   1.370   6.726  12.171 -0.4190  0.1447 -0.0179
11695TIP3    H156500   1.329   6.778  12.102 -1.0610  0.5815  0.6744
11695TIP3    H256501   1.440   6.782  12.205 -0.6487  0.2683  0.2507
11696TIP3   OH256502   2.873   2.918   3.680 -0.7355  0.5897  0.1064
11696TIP3    H156503   2.860   2.987   3.616 -3.3044  0.5822  0.5474
11696TIP3    H256504   2.791   2.917   3.731  0.0517 -1.4105  1.4045
11697TIP3   OH256505   4.779   5.672   5.181 -0.4297  0.4039 -0.0815
11697TIP3    H156506   4.720   5.748   5.188 -0.0020  0.7608 -0.3307
11697TIP3    H256507   4.748   5.625   5.104  0.2115  1.1178 -0.7851
11698TIP3   OH256508   4.881   6.630   3.637 -0.1121  0.2779 -0.2910
11698TIP3    H156509   4.828   6.582   3.701  1.1024 -0.9441 -0.1565
11698TIP3    H256510   4.946   6.566   3.609  1.2335  1.7141 -0.4925
11699TIP3   OH256511   5.994   4.241   0.026 -0.5962 -0.0147 -0.0222
11699TIP3    H156512   6.011   4.308   0.092  0.0655  0.0227 -0.2235
11699TIP3    H256513   5.920   4.274  -0.024  0.7444  1.3446 -1.1506
11700TIP3   OH256514   0.454   0.447  16.981 -0.1664  0.2811  0.2978
11700TIP3    H156515   0.527   0.395  16.948 -0.0925  0.9511 -0.5987
11700TIP3    H256516   0.376   0.403  16.949 -0.1453 -0.0376  0.6773
11701TIP3   OH256517   4.381   1.779  14.665 -0.4577 -0.1101  0.0311
11701TIP3    H156518   4.439   1.853  14.685  0.0733 -0.1949 -1.1162
11701TIP3    H256519   4.331   1.764  14.745 -0.8523  1.7565  0.1429
11702TIP3   OH256520   3.195   0.889   5.463  0.4662 -0.4364  0.5753
11702TIP3    H156521   3.133   0.852   5.527  0.0269  0.7595  0.8473
11702TIP3    H256522   3.269   0.829   5.465  0.9081  0.1253  2.9531
11703TIP3   OH256523   1.441   0.549  16.083  0.1299  0.0749 -0.5782
11703TIP3    H156524   1.389   0.604  16.142  1.6156  1.0139 -0.1299
11703TIP3    H256525   1.378   0.485  16.048 -0.8584 -0.2849  1.7628
11704TIP3   OH256526   6.444   1.680   4.215  0.1794 -0.0653  0.4651
11704TIP3    H156527   6.422   1.773   4.220 -0.1221 -0.0528 -0.8769
11704TIP3    H256528   6.375   1.636   4.266  0.1751  0.4241  0.8835
11705TIP3   OH256529   3.430   3.575   5.503  0.0901 -0.1658 -0.0464
11705TIP3    H156530   3.374   3.514   5.551 -0.5387 -0.0808 -0.6681
11705TIP3    H256531   3.518   3.539   5.513 -0.4345 -1.9745 -1.5854
11706TIP3   OH256532   3.182   1.010   0.086  0.4331  0.1420 -0.2669
11706TIP3    H156533   3.165   0.950   0.159 -0.1809  1.0222  0.3215
11706TIP3    H256534   3.097   1.021   0.044  0.2740  1.6155  0.4178
11707TIP3   OH256535   3.876   4.399   1.245  0.1302 -0.3576 -0.2270
11707TIP3    H156536   3.811   4.333   1.269  0.5441 -0.9985 -0.8544
11707TIP3    H256537   3.927   4.358   1.176  0.6170  0.4932 -0.3762
11708TIP3   OH256538   4.307   6.448  15.148 -0.0841 -0.2724 -0.0022
11708TIP3    H156539   4.399   6.473  15.158  0.4706 -1.5004 -1.7959
11708TIP3    H256540   4.263   6.529  15.120  0.5870  0.1443  0.1358
11709TIP3   OH256541   4.205   6.053   4.421 -0.1726  0.7195  0.9082
11709TIP3    H156542   4.202   5.984   4.355 -0.1756 -0.2532  1.9144
11709TIP3    H256543   4.248   6.126   4.377  0.6808 -0.2346  0.1180
11710TIP3   OH256544   3.371   6.663   1.130  0.4424 -0.3032 -0.0521
11710TIP3    H156545   3.401   6.737   1.078  1.7564 -1.3679 -0.8609
11710TIP3    H256546   3.388   6.586   1.075 -1.2981 -1.1783  0.5870
11711TIP3   OH256547   2.629   3.952   0.547  0.0394  0.1903  0.2194
11711TIP3    H156548   2.574   3.932   0.471 -0.4488  2.2469  0.0012
11711TIP3    H256549   2.567   3.966   0.618  0.2385  2.2748  0.0277
11712TIP3   OH256550   4.890   2.307  16.409  0.0536  0.5127 -0.0804
11712TIP3    H156551   4.942   2.268  16.339 -0.2285 -1.2501  0.6659
11712TIP3    H256552   4.819   2.353  16.363  1.2278  1.4213 -1.0257
11713TIP3   OH256553   0.699   0.682   2.180 -0.8795  0.1167  0.6679
11713TIP3    H156554   0.648   0.723   2.110 -1.3680  1.7090  1.9359
11713TIP3    H256555   0.663   0.718   2.261  0.5289 -0.7317  1.7007
11714TIP3   OH256556   0.352   5.302   1.162  0.4432  0.6403 -0.3966
11714TIP3    H156557   0.419   5.236   1.146  0.3859  0.2902  0.7586
11714TIP3    H256558   0.280   5.278   1.103  0.8708  0.3443 -0.8018
11715TIP3   OH256559   4.686   4.330   3.028 -0.0044 -0.0814 -0.1712
11715TIP3    H156560   4.643   4.271   2.966  0.6143 -0.9203  0.1882
11715TIP3    H256561   4.747   4.380   2.974  2.1654 -2.3753  0.0778
11716TIP3   OH256562   3.049   1.283   0.782 -0.3036 -0.2869  0.6664
11716TIP3    H156563   3.044   1.308   0.690  0.6536 -0.9767  0.4262
11716TIP3    H256564   2.967   1.316   0.820  0.3304  2.0375  0.0822
11717TIP3   OH256565   5.937   1.384  12.424 -0.0877 -0.1710 -0.3135
11717TIP3    H156566   5.981   1.463  12.392 -0.6335  0.0933 -0.4313
11717TIP3    H256567   5.853   1.384  12.378 -0.3547 -0.4753  0.1681
11718TIP3   OH256568   0.584   2.095   2.447  0.3613 -0.1524  0.0302
11718TIP3    H156569   0.628   2.096   2.531 -1.0903  0.3930  0.8081
11718TIP3    H256570   0.554   2.186   2.434  2.5119  0.3006 -2.1305
11719TIP3   OH256571   3.902   1.628  12.675  0.2687 -0.5268  0.4644
11719TIP3    H156572   3.818   1.674  12.667 -0.1288 -0.9336  2.0122
11719TIP3    H256573   3.914   1.618  12.770  3.0217  1.2525  0.3527
11720TIP3   OH256574   6.287   4.584   3.558 -0.5116 -0.2295 -0.2881
11720TIP3    H156575   6.347   4.516   3.589  0.5853  1.3040  1.0724
11720TIP3    H256576   6.223   4.594   3.628  0.9993  2.0913  0.8238
11721TIP3   OH256577   0.182   6.078   1.707  0.1891  0.4562 -0.0667
11721TIP3    H156578   0.141   6.048   1.625  0.0633 -0.2993  0.2624
11721TIP3    H256579   0.160   6.010   1.770 -0.7524  1.6459  0.9070
11722TIP3   OH256580   5.676   4.756   3.743 -0.1430  0.4224  0.3314
11722TIP3    H156581   5.698   4.690   3.810 -0.9652 -0.9529 -0.7372
11722TIP3    H256582   5.600   4.720   3.698 -1.1812  2.5428  0.3155
11723TIP3   OH256583   4.297   6.402   2.014 -0.2069 -0.7003  0.2392
11723TIP3    H156584   4.202   6.395   2.013 -0.2403 -0.3107  0.4008
11723TIP3    H256585   4.322   6.384   2.104 -0.0782 -1.3648  0.0731
11724TIP3   OH256586   0.115   0.995  12.789  0.0175  0.0387  0.4810
11724TIP3    H156587   0.039   0.979  12.844  1.3175 -0.9258  2.0150
11724TIP3    H256588   0.143   1.084  12.811 -0.8669  0.5474 -0.3754
11725TIP3   OH256589   3.263   1.586   1.294  0.2217  0.4105  0.4965
11725TIP3    H156590   3.262   1.497   1.261 -0.6518  0.2235  0.9965
11725TIP3    H256591   3.314   1.636   1.230 -1.3366  0.0342 -1.0616
11726TIP3   OH256592   5.301   2.766  17.155  0.5278  0.3390 -0.0753
11726TIP3    H156593   5.239   2.785  17.085  0.1514 -3.2633 -0.8313
11726TIP3    H256594   5.374   2.827  17.139 -1.9132  3.3032 -0.2874
11727TIP3   OH256595   0.147   1.906   0.082 -0.0345  0.0397 -0.1289
11727TIP3    H156596   0.100   1.989   0.094 -0.5321  0.0687 -2.1408
11727TIP3    H256597   0.209   1.924   0.012  1.5236 -0.6336  1.0365
11728TIP3   OH256598   2.184   6.406  11.573 -0.3236 -0.5547 -0.1557
11728TIP3    H156599   2.128   6.483  11.579 -0.3337 -0.5444 -0.3720
11728TIP3    H256600   2.129   6.339  11.532 -0.4080 -0.7681  0.3017
11729TIP3   OH256601   1.567   1.936   0.399  0.3116  0.0537 -0.4603
11729TIP3    H156602   1.638   1.996   0.380 -0.3478  0.5834 -1.2635
11729TIP3    H256603   1.509   1.942   0.323 -0.5319 -0.4526  0.1328
11730TIP3   OH256604   0.711   2.267  13.329  0.0822  0.4602  0.3443
11730TIP3    H156605   0.687   2.360  13.331  0.5353  0.5899 -0.1101
11730TIP3    H256606   0.773   2.260  13.257 -1.7556 -0.6516 -1.1497
11731TIP3   OH256607   2.230   3.492   1.787 -0.1697 -0.3018  0.3711
11731TIP3    H156608   2.186   3.573   1.762 -2.1093 -1.1511  0.9186
11731TIP3    H256609   2.177   3.423   1.747  0.5203 -1.3644  1.2561
11732TIP3   OH256610   0.850   2.142   1.771  1.1764  0.2372  0.2453
11732TIP3    H156611   0.901   2.219   1.797  1.3393 -0.4425  2.0181
11732TIP3    H256612   0.761   2.162   1.798  0.8618  0.5995 -1.0483
11733TIP3   OH256613   4.920   0.477  14.606  0.2146 -0.4387  0.5785
11733TIP3    H156614   4.898   0.498  14.515  1.0182  1.2360  0.7410
11733TIP3    H256615   5.013   0.452  14.603 -0.0052 -1.2980  0.8117
11734TIP3   OH256616   0.653   2.660  14.969  0.0549 -0.4131  0.1749
11734TIP3    H156617   0.591   2.596  15.005  2.1371 -3.1577 -0.8745
11734TIP3    H256618   0.697   2.696  15.046 -1.4079  0.0493  0.8070
11735TIP3   OH256619   6.236   3.609  12.901  0.4578 -0.5249  0.6919
11735TIP3    H156620   6.143   3.586  12.896  0.9194 -2.2787 -0.4055
11735TIP3    H256621   6.252   3.658  12.820  0.7382 -1.2376  0.3094
11736TIP3   OH256622   0.088   0.145   1.644 -0.8962  0.3547 -0.3430
11736TIP3    H156623   0.121   0.067   1.600 -2.4207  0.8235 -2.4374
11736TIP3    H256624   0.123   0.140   1.733  2.2616 -0.6609 -1.5964
11737TIP3   OH256625   5.142   2.829  16.945  0.1805  0.2580  0.0684
11737TIP3    H156626   5.200   2.892  16.902  0.4825 -0.5136 -0.6706
11737TIP3    H256627   5.056   2.870  16.940  0.6702  1.4493  1.2515
11738TIP3   OH256628   5.301   6.274  14.394  0.1323  0.1250  0.5673
11738TIP3    H156629   5.320   6.354  14.345 -2.1086  1.3625  1.5960
11738TIP3    H256630   5.346   6.286  14.478 -0.7681  0.6660  0.9885
11739TIP3   OH256631   0.780   2.543   1.930 -0.5696  0.6910  0.2631
11739TIP3    H156632   0.837   2.565   1.856  0.0292 -0.7871  0.2621
11739TIP3    H256633   0.817   2.590   2.004 -0.1541  0.8167 -0.0191
11740TIP3   OH256634   1.301   1.774   1.306 -0.6630 -0.4011  0.2848
11740TIP3    H156635   1.295   1.848   1.365  1.9551 -0.2934  0.4684
11740TIP3    H256636   1.235   1.791   1.239  0.3893  2.4635 -0.0760
11741TIP3   OH256637   3.083   2.147   1.818  0.4909 -0.0307  0.2142
11741TIP3    H156638   3.151   2.080   1.824  0.3722 -0.2260 -0.4918
11741TIP3    H256639   3.001   2.100   1.834  0.6090  0.4279  2.2706
11742TIP3   OH256640   3.244   4.724  16.609  0.9353 -0.0130 -0.6868
11742TIP3    H156641   3.187   4.800  16.616 -0.3210 -1.1579  2.4094
11742TIP3    H256642   3.193   4.660  16.558  0.1134 -0.4043  0.5996
11743TIP3   OH256643   4.680   6.133   3.031 -0.0638  0.0058  0.4443
11743TIP3    H156644   4.674   6.042   3.002  0.0010 -0.2281  1.1586
11743TIP3    H256645   4.601   6.148   3.083  1.2590 -0.5015  2.6844
11744TIP3   OH256646   0.583   4.938   5.754  0.3629  0.2432 -0.1532
11744TIP3    H156647   0.495   4.918   5.723  0.7056  0.8440 -1.5412
11744TIP3    H256648   0.570   5.001   5.825 -0.3564 -0.2902  0.1970
11745TIP3   OH256649   0.937   3.333  16.514  0.1753 -0.1350  0.4802
11745TIP3    H156650   0.941   3.269  16.444  1.7586 -1.1177  1.4298
11745TIP3    H256651   1.028   3.358  16.529 -0.2916  1.2848  1.0791
11746TIP3   OH256652   2.001   6.088  11.730 -0.3143  0.4772 -0.3867
11746TIP3    H156653   1.940   6.016  11.715 -0.2452  0.1066  1.0878
11746TIP3    H256654   1.949   6.167  11.714 -1.6671  0.2237  2.3705
11747TIP3   OH256655   4.416   6.156   3.397  0.5432  0.0382  0.4101
11747TIP3    H156656   4.356   6.091   3.361  0.6035  0.8577 -1.1951
11747TIP3    H256657   4.370   6.192   3.473  0.6920 -2.1699  1.6183
11748TIP3   OH256658   2.078   0.588  17.052  0.0411  0.5361  0.2490
11748TIP3    H156659   2.036   0.632  17.127  0.4620 -0.1661  0.9051
11748TIP3    H256660   2.018   0.517  17.029  0.2935  0.2629  0.4292
11749TIP3   OH256661   1.371   3.186   1.454  0.2977  0.1462  0.2025
11749TIP3    H156662   1.284   3.208   1.422  0.3568 -1.3981 -1.0963
11749TIP3    H256663   1.429   3.248   1.409  0.2203 -1.0727 -1.6205
11750TIP3   OH256664   1.791   4.781   0.896  0.0315  0.4247 -0.0499
11750TIP3    H156665   1.744   4.857   0.860  2.2198  1.2036 -1.3317
11750TIP3    H256666   1.783   4.791   0.990  1.0408  2.7818 -0.1738
11751TIP3   OH256667   6.150   6.296  12.444  0.4286  0.6629  1.0504
11751TIP3    H156668   6.211   6.364  12.472 -1.6103  2.2344  1.8130
11751TIP3    H256669   6.151   6.299  12.348  1.0693  1.1157  1.0748
11752TIP3   OH256670   1.400   6.076   5.756  0.4308 -1.1306 -0.1813
11752TIP3    H156671   1.430   6.011   5.820  0.7193 -0.9362 -0.1183
11752TIP3    H256672   1.341   6.132   5.806  2.4022  0.3930  0.4973
11753TIP3   OH256673   0.026   2.236  14.749  0.0488 -0.0474 -0.2348
11753TIP3    H156674   0.031   2.205  14.659 -1.6850 -0.0504 -0.3456
11753TIP3    H256675  -0.064   2.266  14.760  0.4961  0.8420  1.2127
11754TIP3   OH256676   4.726   0.370   0.970  0.1958  0.2326  0.3647
11754TIP3    H156677   4.638   0.340   0.946  0.1937 -1.4769  2.3602
11754TIP3    H256678   4.784   0.303   0.934  0.7383  1.6460 -1.4273
11755TIP3   OH256679   2.871   3.022  11.563 -0.2108 -0.0341  0.4309
11755TIP3    H156680   2.786   3.060  11.584  0.3848  0.8324  1.3612
11755TIP3    H256681   2.934   3.093  11.579  0.7295 -0.8076  0.2443
11756TIP3   OH256682   1.948   1.200  11.195 -0.2013  0.1775 -0.5645
11756TIP3    H156683   1.976   1.290  11.211  1.6108 -0.9659  3.1122
11756TIP3    H256684   2.019   1.161  11.144  0.7581 -0.2071  1.0555
11757TIP3   OH256685   5.579   2.418  15.299  0.7355 -0.3808  0.1656
11757TIP3    H156686   5.614   2.494  15.252 -1.1672 -0.1160 -0.8874
11757TIP3    H256687   5.575   2.349  15.234 -1.6913 -0.0843 -0.0369
11758TIP3   OH256688   5.805   6.747   5.182 -0.3162  0.1868 -0.1009
11758TIP3    H156689   5.841   6.683   5.243 -0.7258 -0.1973 -0.2587
11758TIP3    H256690   5.774   6.819   5.238 -0.9546 -0.2928  0.1665
11759TIP3   OH256691   3.848   0.899  14.206  0.3074  0.0407  0.1257
11759TIP3    H156692   3.821   0.970  14.147  2.0817  0.5185 -0.1691
11759TIP3    H256693   3.835   0.934  14.294 -3.4467 -1.0898  0.1075
11760TIP3   OH256694   1.832   1.191  13.496  0.1290 -0.5109  0.3573
11760TIP3    H156695   1.829   1.097  13.517  0.0690 -0.2458  1.5551
11760TIP3    H256696   1.898   1.198  13.428 -0.0486 -1.4622  0.0753
11761TIP3   OH256697   5.521   6.417   1.016 -0.8202 -0.3197 -0.3332
11761TIP3    H156698   5.441   6.457   1.050 -0.9062  0.2359 -1.1834
11761TIP3    H256699   5.545   6.352   1.082  0.1842  2.1974  1.8960
11762TIP3   OH256700   2.173   5.113  11.447  0.0803 -0.2503  0.1443
11762TIP3    H156701   2.146   5.168  11.521  0.3867  0.1676 -0.0495
11762TIP3    H256702   2.149   5.024  11.473  0.8175 -0.1971  1.0366
11763TIP3   OH256703   4.146   4.559   3.157  0.3344 -0.3223  0.1619
11763TIP3    H156704   4.222   4.593   3.109 -0.3051  0.2066 -0.4679
11763TIP3    H256705   4.106   4.496   3.097  0.6632 -1.1129  0.7589
11764TIP3   OH256706   0.333   3.849   1.618  0.1397 -0.3795 -0.4627
11764TIP3    H156707   0.427   3.865   1.619 -0.2586  2.1480 -0.2486
11764TIP3    H256708   0.296   3.924   1.571 -1.9261 -0.2644  1.2370
11765TIP3   OH256709   2.260   5.535   2.994  0.2334 -0.3533 -0.0549
11765TIP3    H156710   2.322   5.538   2.920 -0.9566 -1.0184 -1.1033
11765TIP3    H256711   2.174   5.533   2.952 -0.4791 -0.0619  1.3846
11766TIP3   OH256712   5.665   5.013  13.808 -0.2771  0.3487  0.0853
11766TIP3    H156713   5.680   4.951  13.879 -1.4668  0.4482  0.4239
11766TIP3    H256714   5.650   4.958  13.731  1.6887  0.2419 -0.2488
11767TIP3   OH256715   3.310   0.404  15.963  0.1237 -0.5315 -0.7939
11767TIP3    H156716   3.310   0.310  15.949 -0.0285 -0.3506 -2.1198
11767TIP3    H256717   3.220   0.431  15.947  0.1554 -0.1654 -0.3688
11768TIP3   OH256718   6.531   5.687  16.234 -0.5795  0.9756  0.1146
11768TIP3    H156719   6.544   5.731  16.318 -0.2596 -0.1890  0.6776
11768TIP3    H256720   6.595   5.616  16.233 -0.7028  0.8703 -1.0366
11769TIP3   OH256721   5.549   2.464  12.511  0.1703  0.1459  0.0087
11769TIP3    H156722   5.511   2.487  12.426  1.3667 -0.7270 -0.7802
11769TIP3    H256723   5.477   2.475  12.573 -1.8940 -2.9998 -1.6455
11770TIP3   OH256724   0.405   2.631  13.561  0.4659  0.1093 -0.4523
11770TIP3    H156725   0.349   2.553  13.551  0.3283 -0.3329  3.0590
11770TIP3    H256726   0.344   2.704  13.568  0.4999  0.1822 -0.8880
11771TIP3   OH256727   0.490   2.673   0.174 -0.0845 -0.1866  0.1269
11771TIP3    H156728   0.483   2.662   0.079  0.8515  0.8258 -0.0717
11771TIP3    H256729   0.407   2.641   0.209 -0.7139  0.1157 -1.0965
11772TIP3   OH256730   0.340   6.556  13.406  0.4016  0.1703  0.3008
11772TIP3    H156731   0.317   6.613  13.333 -1.9606  0.1672  0.9927
11772TIP3    H256732   0.294   6.474  13.388 -1.6243  0.7269  2.5701
11773TIP3   OH256733   1.743   0.144   3.382  0.1174  0.2298  0.5068
11773TIP3    H156734   1.826   0.100   3.366 -1.4353 -1.7457 -2.5479
11773TIP3    H256735   1.693   0.083   3.436  0.1741  0.8867  1.3161
11774TIP3   OH256736   5.971   2.887  15.863 -0.3566  0.3139  0.4935
11774TIP3    H156737   5.881   2.907  15.837 -0.3516  0.6637  0.7466
11774TIP3    H256738   5.966   2.798  15.899 -0.5618  0.2566  0.3276
11775TIP3   OH256739   0.582   3.848  13.715  0.0522  0.0610 -0.0443
11775TIP3    H156740   0.530   3.769  13.732 -0.2707 -0.0586 -1.5182
11775TIP3    H256741   0.518   3.919  13.712  0.2102  0.2128  0.1579
11776TIP3   OH256742   2.872   3.748  13.418  0.6041 -0.4050  0.8625
11776TIP3    H156743   2.919   3.777  13.496  0.6511  0.0108  0.6847
11776TIP3    H256744   2.915   3.667  13.391  0.6577 -0.4880  1.2049
11777TIP3   OH256745   3.517   0.859  10.817  0.5129  0.2697 -0.0456
11777TIP3    H156746   3.541   0.942  10.857 -0.4085  0.7201 -0.3993
11777TIP3    H256747   3.458   0.883  10.745 -1.5413 -0.8035  1.2219
11778TIP3   OH256748   6.146   0.988   2.225  0.1735 -0.0082 -0.0205
11778TIP3    H156749   6.091   1.016   2.298 -1.8893 -2.1130 -0.6916
11778TIP3    H256750   6.221   0.946   2.266 -0.1591  0.2993  0.9053
11779TIP3   OH256751   4.800   3.044  13.042  0.5390 -0.1862 -0.0455
11779TIP3    H156752   4.855   2.987  12.988 -1.6544 -3.6202  1.1597
11779TIP3    H256753   4.711   3.015  13.023 -0.5368  1.6326  2.0512
11780TIP3   OH256754   1.023   1.254  16.738 -0.2855  0.0524 -0.1404
11780TIP3    H156755   1.001   1.320  16.804  1.1900  0.1862  0.2439
11780TIP3    H256756   0.975   1.281  16.660  0.4295  1.7014 -0.0420
11781TIP3   OH256757   3.720   0.450   1.648 -0.0098 -0.1634  0.1226
11781TIP3    H156758   3.690   0.541   1.644 -0.8810 -0.4823 -1.0743
11781TIP3    H256759   3.809   0.455   1.681  1.4226  1.4683 -3.7087
11782TIP3   OH256760   5.027   4.334   3.791  0.1890 -0.3366 -0.0318
11782TIP3    H156761   5.042   4.248   3.831  1.2809 -1.0948 -2.0260
11782TIP3    H256762   5.067   4.396   3.853  0.3167 -1.3278  0.9045
11783TIP3   OH256763   1.130   6.768  15.784  0.2378  0.6987  0.0970
11783TIP3    H156764   1.101   6.837  15.724  2.0704  0.4723 -1.0799
11783TIP3    H256765   1.159   6.816  15.862  1.3468  1.2756 -0.6517
11784TIP3   OH256766   1.575   6.660   3.169 -0.4000 -0.6690 -0.1354
11784TIP3    H156767   1.561   6.754   3.156 -0.4492 -0.4241  1.5061
11784TIP3    H256768   1.488   6.621   3.161 -0.8704 -0.1758  2.0233
11785TIP3   OH256769   2.958   2.424   4.516 -0.0124 -0.3197  0.9548
11785TIP3    H156770   2.917   2.443   4.601 -0.6785 -0.2377  0.6216
11785TIP3    H256771   2.997   2.507   4.489 -0.1734 -0.2350  0.9809
11786TIP3   OH256772   0.348   2.832   1.511  0.1324  0.0236  0.4805
11786TIP3    H156773   0.254   2.838   1.494 -0.0128 -1.3951  0.6445
11786TIP3    H256774   0.354   2.784   1.594  1.0154 -0.6602  0.0281
11787TIP3   OH256775   2.445   0.206   3.547 -0.3503 -0.3203  0.2104
11787TIP3    H156776   2.531   0.163   3.550 -0.2166 -0.0101  0.8238
11787TIP3    H256777   2.382   0.135   3.556 -0.1660 -0.5553 -0.2868
11788TIP3   OH256778   4.018   1.204  16.535 -0.1049 -0.4384 -0.3720
11788TIP3    H156779   3.925   1.183  16.533  0.0303 -0.8887 -3.3298
11788TIP3    H256780   4.022   1.292  16.574 -1.9737  0.5798 -2.3688
11789TIP3   OH256781   3.494   1.158   0.433  0.3524 -0.1582  0.4918
11789TIP3    H156782   3.524   1.162   0.524  0.9933  0.4038  0.2607
11789TIP3    H256783   3.482   1.249   0.408  1.5456 -0.2465 -0.4287
11790TIP3   OH256784   2.447   1.343  15.802 -0.3505  0.2856 -0.7126
11790TIP3    H156785   2.474   1.360  15.892  0.2963  0.8358 -1.0088
11790TIP3    H256786   2.368   1.396  15.790 -0.0587  0.7267 -0.6787
11791TIP3   OH256787   0.574   2.015   5.524  0.2650 -0.0906  0.1395
11791TIP3    H156788   0.632   2.033   5.597 -0.2628  1.9826  0.0813
11791TIP3    H256789   0.612   2.063   5.450 -0.9128  0.4189 -0.1606
11792TIP3   OH256790   5.996   6.183   2.070 -0.1012 -0.4513 -0.2243
11792TIP3    H156791   6.056   6.117   2.036  0.2830 -0.3033  0.1702
11792TIP3    H256792   5.914   6.168   2.022 -0.4692 -2.1402  0.8818
11793TIP3   OH256793   6.449   2.782  13.121  0.4919 -0.1557  0.2193
11793TIP3    H156794   6.389   2.825  13.060  0.4169 -2.2131 -1.2103
11793TIP3    H256795   6.495   2.854  13.164 -2.1542  1.4469  0.4981
11794TIP3   OH256796   2.188   5.269   1.107  0.1497  0.2090  0.5655
11794TIP3    H156797   2.259   5.309   1.057  0.1949  0.7437  1.0566
11794TIP3    H256798   2.180   5.323   1.185  0.1569 -0.6864  1.1928
11795TIP3   OH256799   1.494   0.656  10.749 -0.0178 -0.1254  0.6808
11795TIP3    H156800   1.456   0.734  10.789 -1.8326 -0.6371  0.0075
11795TIP3    H256801   1.564   0.689  10.692 -1.9177  1.1891 -0.9448
11796TIP3   OH256802   5.537   1.651  13.937  0.1271 -0.4053  0.2862
11796TIP3    H156803   5.453   1.674  13.896 -0.0918 -1.5938  0.0320
11796TIP3    H256804   5.512   1.591  14.008  0.5229  1.4601  2.0293
11797TIP3   OH256805   3.708   4.556  10.487  0.2064  0.5970 -0.4616
11797TIP3    H156806   3.648   4.504  10.540  2.3556 -1.5282 -0.0256
11797TIP3    H256807   3.663   4.639  10.474 -2.7121 -0.8430  0.0542
11798TIP3   OH256808   5.286   3.130   3.006 -0.4402 -0.0766 -0.2619
11798TIP3    H156809   5.225   3.064   2.972 -0.4422 -0.1202 -0.1757
11798TIP3    H256810   5.280   3.120   3.101 -2.0901  1.5322 -0.1558
11799TIP3   OH256811   3.996   4.235   0.313  0.3740  0.2636 -0.0789
11799TIP3    H156812   4.073   4.204   0.265  1.6449  0.3072  1.8771
11799TIP3    H256813   3.922   4.204   0.262  1.6823 -0.6663 -1.4555
11800TIP3   OH256814   3.435   2.992   2.981  0.4777 -0.1643 -0.2223
11800TIP3    H156815   3.407   2.997   3.072  0.6371  0.2984 -0.1964
11800TIP3    H256816   3.530   2.989   2.985  0.4596 -1.2441 -0.3312
11801TIP3   OH256817   6.544   0.447   4.070 -0.3492 -0.2672 -0.4350
11801TIP3    H156818   6.495   0.380   4.023 -0.0141 -0.9735  0.2125
11801TIP3    H256819   6.612   0.474   4.009 -1.6644  0.9033 -1.4434
11802TIP3   OH256820   2.435   2.223   3.226  0.9079  0.1369 -0.2599
11802TIP3    H156821   2.517   2.183   3.255 -0.7503 -1.8073  1.9207
11802TIP3    H256822   2.389   2.154   3.179 -0.2935  0.6410  0.1415
11803TIP3   OH256823   2.376   6.772   1.495 -0.3934  0.3881  0.7832
11803TIP3    H156824   2.460   6.761   1.452  0.0905  0.5263  1.6832
11803TIP3    H256825   2.328   6.692   1.475  0.2255 -0.0073  0.8742
11804TIP3   OH256826   4.567   3.862   0.258 -0.6898 -0.2280  0.2351
11804TIP3    H156827   4.504   3.845   0.188  0.4450  1.0071 -1.1223
11804TIP3    H256828   4.554   3.954   0.281  1.3153  0.3456 -0.8173
11805TIP3   OH256829   6.787   3.528  11.041  0.2894 -0.6214 -0.0650
11805TIP3    H156830   6.772   3.504  10.949 -1.1719  0.3185 -0.0963
11805TIP3    H256831   6.863   3.585  11.039  1.2772 -1.9179 -0.4794
11806TIP3   OH256832   2.841   5.575   1.103 -0.2834  0.6517  0.9303
11806TIP3    H156833   2.794   5.643   1.152 -0.4060  1.3376 -0.1298
11806TIP3    H256834   2.837   5.604   1.012  2.0074  0.6090  0.7962
11807TIP3   OH256835   3.345   6.777   1.778 -0.1858  0.0600  0.0718
11807TIP3    H156836   3.304   6.859   1.805  1.4549  0.7116  0.6418
11807TIP3    H256837   3.419   6.766   1.837  0.4501 -1.1185 -0.9087
11808TIP3   OH256838   6.566   0.652  14.983  0.0828  0.0947 -0.5424
11808TIP3    H156839   6.520   0.662  14.900  0.3516 -0.0949 -0.7152
11808TIP3    H256840   6.513   0.591  15.033  0.0681 -0.0066 -0.6827
11809TIP3   OH256841   4.579   5.228   4.951  0.3461 -0.3617 -0.2157
11809TIP3    H156842   4.525   5.174   5.010  1.5436 -0.9894  0.3389
11809TIP3    H256843   4.647   5.168   4.920 -1.1750 -0.4690 -3.5352
11810TIP3   OH256844   6.274   4.439  17.079 -0.1980 -0.3081 -0.5124
11810TIP3    H156845   6.226   4.458  17.159  1.1869 -1.4499  0.6177
11810TIP3    H256846   6.286   4.344  17.080  1.0260 -0.1812 -1.3717
11811TIP3   OH256847   3.399   1.545  15.821 -0.5006 -0.0658  0.0273
11811TIP3    H156848   3.424   1.559  15.729  1.3578  2.1797  0.8150
11811TIP3    H256849   3.379   1.633  15.853 -2.4033 -1.0013  1.4291
11812TIP3   OH256850   4.894   2.807   4.989  0.0671 -0.1209  0.4104
11812TIP3    H156851   4.807   2.767   4.988 -0.3084  0.6826  0.1445
11812TIP3    H256852   4.887   2.877   5.054 -0.5948  2.3168 -2.1771
11813TIP3   OH256853   3.138   6.374  16.964 -0.0312  0.1166 -0.4993
11813TIP3    H156854   3.217   6.322  16.980 -0.9754 -0.8365  1.0909
11813TIP3    H256855   3.115   6.355  16.873  2.1053  1.1488 -1.2960
11814TIP3   OH256856   2.686   5.455  12.680  0.3381  0.0947 -0.1307
11814TIP3    H156857   2.733   5.449  12.596  3.3868 -3.0218  1.6520
11814TIP3    H256858   2.756   5.465  12.745 -1.9371  1.7033  2.1412
11815TIP3   OH256859   0.766   4.352   1.062  0.0669 -0.2182 -0.6360
11815TIP3    H156860   0.782   4.377   1.153  1.2755 -1.0209 -0.6156
11815TIP3    H256861   0.819   4.274   1.049 -1.2041 -0.9339 -1.6206
11816TIP3   OH256862   2.642   3.050   3.523  0.4838 -0.4180  0.2776
11816TIP3    H156863   2.595   2.969   3.502  0.5447 -0.0223 -1.4604
11816TIP3    H256864   2.644   3.098   3.440  1.7840  0.6787  0.9357
11817TIP3   OH256865   5.144   1.177   1.328  0.3372  0.4809  0.5618
11817TIP3    H156866   5.143   1.273   1.334  2.7881  0.5387  0.4489
11817TIP3    H256867   5.061   1.150   1.366  0.6597  2.5397  2.8344
11818TIP3   OH256868   1.526   4.810  14.394 -0.7472  0.0860  0.3892
11818TIP3    H156869   1.519   4.782  14.486 -3.2686  0.9273  0.4991
11818TIP3    H256870   1.616   4.839  14.385 -0.0188 -1.5242  2.1746
11819TIP3   OH256871   3.267   0.750   3.613 -0.4812 -0.2553  0.2007
11819TIP3    H156872   3.356   0.715   3.618 -0.2832  0.2356  0.1934
11819TIP3    H256873   3.223   0.713   3.689  0.0966  0.4867  0.9127
11820TIP3   OH256874   5.684   5.105  15.833  0.2274 -0.1791  0.0450
11820TIP3    H156875   5.710   5.123  15.743 -0.3823 -1.1128 -0.3268
11820TIP3    H256876   5.756   5.055  15.870  0.3211 -0.1004 -0.0313
11821TIP3   OH256877   1.898   0.373   4.401 -0.3526 -0.1177 -0.1181
11821TIP3    H156878   1.826   0.401   4.345  0.2004  1.7122  0.0508
11821TIP3    H256879   1.967   0.439   4.387  0.6662 -0.9283  0.9378
11822TIP3   OH256880   2.855   1.467   2.280 -0.2455  0.1940  0.3319
11822TIP3    H156881   2.904   1.514   2.213  0.0752 -0.6354 -0.0258
11822TIP3    H256882   2.788   1.418   2.232 -1.1449  0.9708  0.7771
11823TIP3   OH256883   5.557   2.818   0.588 -0.0832  0.0348  0.1415
11823TIP3    H156884   5.482   2.877   0.587 -1.2185 -1.2854  2.3492
11823TIP3    H256885   5.631   2.872   0.560 -1.1897  2.3368  1.5508
11824TIP3   OH256886   0.490   1.715   4.554  0.1126 -0.4030  0.1509
11824TIP3    H156887   0.437   1.640   4.582  0.5913 -0.4355  1.0019
11824TIP3    H256888   0.579   1.692   4.580  0.5574 -0.3619 -1.2953
11825TIP3   OH256889   4.025   6.554   6.297  0.2632  0.2713 -0.7993
11825TIP3    H156890   4.087   6.578   6.228  0.2095  2.8101 -0.0140
11825TIP3    H256891   3.961   6.498   6.253  0.0676  2.0613 -2.8863
11826TIP3   OH256892   0.983   5.012  16.414  0.0289 -0.4766  0.3614
11826TIP3    H156893   1.060   5.030  16.360  0.2054 -2.7176 -0.1625
11826TIP3    H256894   1.019   4.989  16.500 -0.1777  1.0198  0.8685
11827TIP3   OH256895   3.304   2.695   2.482  0.1035  0.1877  0.0222
11827TIP3    H156896   3.254   2.718   2.561  0.9759 -0.2846  0.7291
11827TIP3    H256897   3.242   2.649   2.427 -0.5721  0.6930  0.3525
11828TIP3   OH256898   1.058   4.959   0.434 -0.2096 -0.3444  0.0436
11828TIP3    H156899   1.150   4.934   0.432 -0.3127 -0.6426 -0.8431
11828TIP3    H256900   1.010   4.876   0.441 -0.4817 -0.3042 -1.2972
11829TIP3   OH256901   5.483   4.268  16.997  0.3647 -0.1547 -0.1255
11829TIP3    H156902   5.464   4.295  17.087  2.4665 -0.2559  0.3903
11829TIP3    H256903   5.520   4.347  16.956  2.2082 -0.9139  0.0169
11830TIP3   OH256904   4.414   4.048   3.676  0.1294  0.0171  0.5989
11830TIP3    H156905   4.365   4.099   3.741  0.7313 -0.3989  1.3945
11830TIP3    H256906   4.470   4.111   3.633 -2.9313  0.9877 -2.1348
11831TIP3   OH256907   3.407   2.413   3.013 -0.6236  0.1484  0.2989
11831TIP3    H156908   3.339   2.407   3.080 -0.3507  3.3091  0.9332
11831TIP3    H256909   3.484   2.446   3.060 -0.0220  1.0665 -1.2843
11832TIP3   OH256910   5.601   3.892   6.335 -0.4867 -0.2429 -0.3307
11832TIP3    H156911   5.512   3.874   6.366 -0.8868  0.9504 -0.7634
11832TIP3    H256912   5.630   3.967   6.387 -0.0210 -0.1473 -0.7243
11833TIP3   OH256913   0.199   0.745   2.589  0.5940  0.2272  0.6190
11833TIP3    H156914   0.140   0.676   2.558  0.6850 -0.2037  1.3858
11833TIP3    H256915   0.221   0.719   2.678  2.0369  0.3104  0.3146
11834TIP3   OH256916   6.561   2.483   3.301  0.0465 -0.0903 -0.1243
11834TIP3    H156917   6.476   2.477   3.259 -0.6023  1.8284  0.8552
11834TIP3    H256918   6.561   2.413   3.366 -0.5834 -0.4118 -0.4703
11835TIP3   OH256919   3.340   1.193  12.054 -0.1030 -0.1249 -0.6502
11835TIP3    H156920   3.272   1.249  12.092 -1.2186 -0.5172 -2.0012
11835TIP3    H256921   3.414   1.252  12.039 -1.0850  0.8869 -1.5774
11836TIP3   OH256922   3.838   2.715  13.813  0.0957 -0.1674  0.4247
11836TIP3    H156923   3.748   2.696  13.838 -0.1456 -0.2833 -0.5049
11836TIP3    H256924   3.878   2.628  13.801  0.1156 -0.1082  0.0778
11837TIP3   OH256925   5.625   2.056  13.133  0.1256  0.0312 -0.2008
11837TIP3    H156926   5.611   2.150  13.140  2.0829  0.6075 -3.0273
11837TIP3    H256927   5.572   2.030  13.058 -0.4532 -1.1620  0.6030
11838TIP3   OH256928   6.443   4.296  11.353 -0.3740 -0.1760 -0.1853
11838TIP3    H156929   6.511   4.361  11.333  0.6810 -1.0447  0.5140
11838TIP3    H256930   6.479   4.214  11.321 -0.8060 -0.7580  0.8121
11839TIP3   OH256931   6.449   4.990  15.402 -0.6993  0.1597  0.0070
11839TIP3    H156932   6.516   5.009  15.337 -0.7308  0.4735  0.0612
11839TIP3    H256933   6.383   5.058  15.388 -2.1069 -1.5012 -1.5441
11840TIP3   OH256934   3.267   0.193  13.488 -0.1198  0.6169  0.1538
11840TIP3    H156935   3.299   0.255  13.554 -1.5542  1.3434  0.1981
11840TIP3    H256936   3.178   0.173  13.516  0.2908 -1.3894  0.0678
11841TIP3   OH256937   5.019   5.599   0.274  0.3859  0.4933 -0.0148
11841TIP3    H156938   4.985   5.522   0.229 -0.8872  0.8282  0.3576
11841TIP3    H256939   4.950   5.665   0.265  1.8720  1.9371 -1.1980
11842TIP3   OH256940   1.928   2.293   0.909  0.0101 -0.3181 -0.1250
11842TIP3    H156941   1.949   2.305   1.002 -0.5610 -0.3164  0.0089
11842TIP3    H256942   1.997   2.340   0.863  0.8029 -1.0689  0.2756
11843TIP3   OH256943   4.037   1.853  11.335  0.8273  0.3213 -0.0043
11843TIP3    H156944   4.085   1.781  11.294  0.1784  0.4685 -1.0393
11843TIP3    H256945   3.951   1.850  11.295  0.5347  1.1748  0.5513
11844TIP3   OH256946   3.541   3.761   4.894  0.2379 -1.7546 -0.3194
11844TIP3    H156947   3.491   3.809   4.961  1.0122 -0.5808 -0.5712
11844TIP3    H256948   3.502   3.674   4.894 -1.3518 -1.0669 -0.0085
11845TIP3   OH256949   0.160   2.166  12.517  0.6142  0.4404 -0.2087
11845TIP3    H156950   0.157   2.244  12.461 -0.8653  0.1587 -0.5337
11845TIP3    H256951   0.155   2.201  12.607 -0.9607  0.6911 -0.3771
11846TIP3   OH256952   6.366   5.076  13.115 -0.4710 -0.7629  0.8724
11846TIP3    H156953   6.372   5.099  13.208 -0.6384  0.7586  0.5126
11846TIP3    H256954   6.356   4.981  13.115 -3.4087 -0.5169  2.5399
11847TIP3   OH256955   3.634   1.332  12.886  0.3157 -0.2038  0.6668
11847TIP3    H156956   3.552   1.369  12.918 -2.1959 -2.5210 -2.7447
11847TIP3    H256957   3.672   1.288  12.962 -2.5020 -0.6339  1.8728
11848TIP3   OH256958   6.490   2.388  16.061  0.0774  0.3340 -0.2066
11848TIP3    H156959   6.453   2.374  15.974 -0.0321 -0.5887 -0.0166
11848TIP3    H256960   6.425   2.351  16.121  0.2937  0.6944  0.2530
11849TIP3   OH256961   5.065   0.700   2.621 -0.0182 -0.5293  0.4352
11849TIP3    H156962   5.034   0.677   2.708 -1.2995 -0.0048  0.1307
11849TIP3    H256963   5.051   0.621   2.568  0.9259 -0.9045  0.7468
11850TIP3   OH256964   5.569   0.810  17.136  0.3792  0.0668 -0.4288
11850TIP3    H156965   5.619   0.728  17.144  0.4565  0.3608  2.4696
11850TIP3    H256966   5.607   0.868  17.202 -0.6823  1.9346 -1.4198
11851TIP3   OH256967   2.765   4.227  16.313  0.4191 -0.0852  0.1291
11851TIP3    H156968   2.675   4.257  16.329  0.6981  0.2910  1.0331
11851TIP3    H256969   2.807   4.232  16.399  1.2573 -0.4196 -0.2598
11852TIP3   OH256970   4.816   1.059  13.199  0.5491  0.4621  0.3291
11852TIP3    H156971   4.801   0.993  13.132 -0.1428  0.7260  0.2291
11852TIP3    H256972   4.731   1.099  13.214  0.1591 -1.1869  3.0445
11853TIP3   OH256973   0.631   2.513  15.338  0.7756  0.2147 -0.0082
11853TIP3    H156974   0.548   2.537  15.298  1.1469  0.8494 -0.4019
11853TIP3    H256975   0.662   2.593  15.379  1.7242  0.2709 -0.8101
11854TIP3   OH256976   0.639   2.318   5.706 -0.5609  0.8463  0.1503
11854TIP3    H156977   0.596   2.298   5.623 -0.4039 -0.6672  0.4175
11854TIP3    H256978   0.662   2.233   5.742  2.5015  1.6021  0.0944
11855TIP3   OH256979   5.759   5.630  15.844  0.5786  0.0701 -0.2001
11855TIP3    H156980   5.718   5.650  15.928  1.5667  3.5819 -0.4989
11855TIP3    H256981   5.711   5.553  15.812 -2.5231  1.1351  1.6889
11856TIP3   OH256982   4.481   6.114   3.903 -0.3202  0.6348  0.1138
11856TIP3    H156983   4.538   6.089   3.831 -0.7376 -0.8710  0.3072
11856TIP3    H256984   4.397   6.072   3.884 -0.5284  0.4843  1.3012
11857TIP3   OH256985   6.504   1.044  15.335  0.0447 -0.2321  0.1531
11857TIP3    H156986   6.532   0.977  15.396  0.7773  1.8317  2.1531
11857TIP3    H256987   6.522   1.008  15.248  2.2605 -1.7809  1.2426
11858TIP3   OH256988   0.306   4.446  14.833  0.1822 -0.2155 -0.1994
11858TIP3    H156989   0.245   4.426  14.761 -0.0335 -1.8489  0.4051
11858TIP3    H256990   0.392   4.445  14.793  0.1244 -1.8499 -0.3236
11859TIP3   OH256991   6.157   4.006  14.858 -0.0192 -0.2365 -0.5582
11859TIP3    H156992   6.169   3.981  14.950  0.2719  0.0484 -0.5195
11859TIP3    H256993   6.068   4.038  14.853  0.5786  1.5559  0.0291
11860TIP3   OH256994   1.994   2.134   3.526  0.0574 -0.4444  0.5691
11860TIP3    H156995   2.003   2.065   3.460  1.1529 -1.4939  1.7895
11860TIP3    H256996   1.993   2.087   3.609 -1.6915  0.8389  1.2987
11861TIP3   OH256997   3.484   0.496   5.791 -0.2561  0.0397 -0.0138
11861TIP3    H156998   3.482   0.516   5.884  2.3985 -0.3536  0.1551
11861TIP3    H256999   3.497   0.401   5.787 -1.2734 -0.0759 -0.7866
11862TIP3   OH257000   6.322   3.444   1.567 -0.2708 -0.1716  0.1492
11862TIP3    H157001   6.341   3.517   1.508 -0.2317  0.2185  0.6406
11862TIP3    H257002   6.405   3.397   1.574 -0.1525  0.0488  0.2547
11863TIP3   OH257003   5.596   4.922  12.008 -0.4645  0.5382 -0.6887
11863TIP3    H157004   5.545   4.892  11.933  0.8761 -1.4942 -0.8181
11863TIP3    H257005   5.538   4.910  12.083 -1.0226  0.4825 -1.1323
11864TIP3   OH257006   6.187   0.672   0.970 -0.2423 -0.0933  0.2565
11864TIP3    H157007   6.109   0.722   0.947  0.0632  0.0395 -0.4970
11864TIP3    H257008   6.180   0.592   0.919 -0.1035 -0.2712  0.5160
11865TIP3   OH257009   0.652   3.954  11.236  0.4040 -0.5864 -0.2573
11865TIP3    H157010   0.603   3.908  11.304 -0.1962  1.7367  0.9558
11865TIP3    H257011   0.717   4.006  11.283  0.4799  0.4829 -1.4928
11866TIP3   OH257012   6.331   1.020   1.852 -0.2760 -0.8933  0.2890
11866TIP3    H157013   6.266   1.088   1.870 -0.2936 -1.2720  1.7687
11866TIP3    H257014   6.351   0.983   1.938 -1.3481 -3.7372 -0.6126
11867TIP3   OH257015   0.783   1.678  10.383 -0.2250  0.0447  0.6108
11867TIP3    H157016   0.708   1.724  10.346 -1.4158 -1.3170  1.2814
11867TIP3    H257017   0.745   1.613  10.442  1.4657 -1.0582  0.5264
11868TIP3   OH257018   0.832   0.228  11.525 -0.1134 -0.1524  0.0856
11868TIP3    H157019   0.807   0.320  11.519  4.7038  1.2913  0.3777
11868TIP3    H257020   0.866   0.207  11.439 -1.0469 -1.6742  0.0680
11869TIP3   OH257021   5.498   4.356   2.556  0.0070  0.3263 -0.3542
11869TIP3    H157022   5.482   4.450   2.547 -0.3437  0.3062  0.0256
11869TIP3    H257023   5.593   4.347   2.548  0.0502  0.7250 -0.2969
11870TIP3   OH257024   5.724   0.211   5.309 -0.0231  0.3334  0.0328
11870TIP3    H157025   5.694   0.231   5.398  1.1667  2.1181  0.0551
11870TIP3    H257026   5.681   0.276   5.254  0.4440  0.1981 -0.4982
11871TIP3   OH257027   1.553   0.892  11.401  0.7805  0.1393 -0.0597
11871TIP3    H157028   1.484   0.955  11.420  2.0334  0.9717  1.9012
11871TIP3    H257029   1.610   0.936  11.338 -0.4159 -0.5114 -1.6036
11872TIP3   OH257030   6.037   6.762   4.956  0.3760 -0.2802  0.0603
11872TIP3    H157031   6.040   6.803   5.043  1.8051  0.2449 -0.2349
11872TIP3    H257032   5.962   6.702   4.961 -1.7239  2.3066  0.5189
11873TIP3   OH257033   6.612   5.361   6.475  0.7055  0.2836  0.1798
11873TIP3    H157034   6.703   5.383   6.454  0.3323 -0.8543 -3.0743
11873TIP3    H257035   6.602   5.271   6.444 -1.8348  0.8121 -0.6916
11874TIP3   OH257036   0.986   2.567   3.372  0.4050  0.3603 -0.5267
11874TIP3    H157037   1.035   2.573   3.454  0.5262  0.2936 -0.5933
11874TIP3    H257038   0.915   2.506   3.390  1.1410 -0.6027 -0.8218
11875TIP3   OH257039   3.661   2.431   3.414 -0.0945 -0.1987  0.2457
11875TIP3    H157040   3.609   2.358   3.447 -0.4349 -0.2133 -0.3132
11875TIP3    H257041   3.723   2.391   3.353 -0.2892 -0.0211 -0.0698
11876TIP3   OH257042   2.255   1.277  14.413 -0.2406 -0.4553 -0.1859
11876TIP3    H157043   2.213   1.293  14.497  0.6927 -0.0785  0.2255
11876TIP3    H257044   2.343   1.245  14.436 -0.2972 -1.2280 -1.0157
11877TIP3   OH257045   1.746   6.513   5.614 -0.0884  0.0876 -0.6291
11877TIP3    H157046   1.698   6.584   5.656  1.7091  1.0096 -0.0645
11877TIP3    H257047   1.760   6.544   5.525 -1.1919 -0.5246 -1.0312
11878TIP3   OH257048   4.347   2.252   5.911  0.1611  0.0835  0.3300
11878TIP3    H157049   4.257   2.276   5.934  0.0860  0.6801 -0.5428
11878TIP3    H257050   4.401   2.317   5.955  0.0543  0.8154 -0.5873
11879TIP3   OH257051   4.837   4.639   3.755 -0.2666 -0.1926  0.3364
11879TIP3    H157052   4.785   4.666   3.680 -0.0610  0.5397  0.4497
11879TIP3    H257053   4.867   4.551   3.734  1.0182  0.5659 -1.0916
11880TIP3   OH257054   4.533   1.269  14.049  0.1280  0.2700 -0.3121
11880TIP3    H157055   4.523   1.364  14.047  0.8065  0.3731  0.8432
11880TIP3    H257056   4.446   1.235  14.028  0.0447  1.1324 -1.4348
11881TIP3   OH257057   5.336   3.358   2.431 -1.0039 -0.2241  0.0120
11881TIP3    H157058   5.264   3.363   2.369 -0.0725 -1.8923 -1.2346
11881TIP3    H257059   5.313   3.287   2.490 -0.5899 -0.4823 -0.1318
11882TIP3   OH257060   0.982   3.692   2.994  0.0803 -0.4661  0.1663
11882TIP3    H157061   0.941   3.691   2.907 -2.3208  0.1752  1.2574
11882TIP3    H257062   1.074   3.713   2.976 -0.1582 -1.3321 -2.2956
11883TIP3   OH257063   3.604   6.748  17.127 -0.1050  0.1469 -0.0975
11883TIP3    H157064   3.515   6.757  17.162  0.3633  1.4421  0.8296
11883TIP3    H257065   3.599   6.675  17.066 -1.1478 -1.7218  2.1220
11884TIP3   OH257066   1.104   1.388  16.136 -0.5849 -0.4273 -0.0873
11884TIP3    H157067   1.087   1.303  16.175 -0.4043  0.5444  2.1974
11884TIP3    H257068   1.199   1.391  16.122 -0.2426  0.3217  2.1672
11885TIP3   OH257069   5.241   5.886  16.350  0.5851 -0.1213  0.2338
11885TIP3    H157070   5.251   5.898  16.444  1.5120  0.5577  0.0535
11885TIP3    H257071   5.322   5.842  16.322 -0.3428 -1.7441 -0.0102
11886TIP3   OH257072   4.238   6.422  12.959  0.0217  0.8509 -0.4237
11886TIP3    H157073   4.165   6.485  12.953 -0.4492  0.4809  1.2825
11886TIP3    H257074   4.287   6.450  13.036 -0.9471 -1.6614  1.1410
11887TIP3   OH257075   3.144   0.931  14.718  0.5006 -0.2242 -0.2335
11887TIP3    H157076   3.196   0.853  14.701  2.6425  1.0159  0.4425
11887TIP3    H257077   3.204   0.991  14.762 -1.4682  1.3138  0.4387
11888TIP3   OH257078   2.070   5.138  12.358 -0.2236  0.2202  0.1034
11888TIP3    H157079   2.015   5.212  12.332 -1.1346 -0.2824  0.6183
11888TIP3    H257080   2.104   5.162  12.445  1.3322  1.0595 -0.7062
11889TIP3   OH257081   3.369   1.303  13.378  0.6496 -0.4602 -0.6126
11889TIP3    H157082   3.324   1.222  13.401  0.0474 -0.5052 -1.8729
11889TIP3    H257083   3.312   1.372  13.413 -0.2164 -0.5284 -1.8438
11890TIP3   OH257084   3.365   0.389   3.012  0.1432  0.5167 -0.5522
11890TIP3    H157085   3.450   0.349   3.032 -0.4425 -1.5522 -2.1495
11890TIP3    H257086   3.383   0.449   2.940  0.3573  0.6041 -0.4278
11891TIP3   OH257087   1.496   1.153   2.046 -0.1595 -0.0921  0.6160
11891TIP3    H157088   1.456   1.088   2.104 -1.0546 -1.1513 -1.1346
11891TIP3    H257089   1.509   1.106   1.963  1.4535  1.2727  0.0742
11892TIP3   OH257090   5.552   2.777   3.516  0.7398 -0.3726  0.3071
11892TIP3    H157091   5.503   2.783   3.433 -0.2276 -0.1939  0.8808
11892TIP3    H257092   5.632   2.827   3.500 -0.1832  1.0328 -0.0041
11893TIP3   OH257093   5.498   1.083  12.493 -0.8558  0.5830  0.3551
11893TIP3    H157094   5.440   1.067  12.418  0.5977  1.5340 -0.9813
11893TIP3    H257095   5.586   1.084  12.456  0.0418 -0.7287  2.3617
11894TIP3   OH257096   2.306   6.553   1.829  0.0282  0.3367 -0.2681
11894TIP3    H157097   2.251   6.629   1.810 -0.0364  0.9652  2.2443
11894TIP3    H257098   2.333   6.521   1.743  0.4540  3.4667 -1.3588
11895TIP3   OH257099   0.938   6.303  11.474 -0.2580 -0.1454  0.1258
11895TIP3    H157100   0.992   6.228  11.499 -1.2345 -0.6842  0.6381
11895TIP3    H257101   0.952   6.367  11.545  0.0274 -0.1142  0.0434
11896TIP3   OH257102   3.840   6.084  16.189 -0.2240  0.5294 -0.2634
11896TIP3    H157103   3.817   5.991  16.183 -1.2064  0.8164 -1.4440
11896TIP3    H257104   3.801   6.113  16.271  2.0374 -0.6075  1.2279
11897TIP3   OH257105   2.124   5.915  14.026  0.4440 -0.0268  0.0340
11897TIP3    H157106   2.050   5.957  14.071 -1.7073 -1.8040 -1.7041
11897TIP3    H257107   2.172   5.987  13.986 -1.2271  1.0648 -0.0597
11898TIP3   OH257108   6.102   5.409   4.874 -0.1928 -0.4730  0.1105
11898TIP3    H157109   6.125   5.407   4.782 -2.8887 -2.4413 -0.6111
11898TIP3    H257110   6.052   5.490   4.885 -1.1230 -0.9549 -0.5136
11899TIP3   OH257111   2.581   0.477  16.344 -0.1402 -0.3279 -0.4485
11899TIP3    H157112   2.650   0.476  16.410 -2.2090 -2.8307  1.8200
11899TIP3    H257113   2.563   0.569  16.329  0.0560  0.3381  2.9112
11900TIP3   OH257114   6.338   1.964  13.678 -0.0435  0.8623 -0.6348
11900TIP3    H157115   6.349   1.910  13.757  1.2773  0.7953 -0.8546
11900TIP3    H257116   6.390   2.042  13.695  0.6339  0.6380 -1.6291
11901TIP3   OH257117   3.150   3.006  13.850  0.0958 -0.4876  0.7073
11901TIP3    H157118   3.058   3.033  13.844  0.2421 -0.3053 -0.7756
11901TIP3    H257119   3.157   2.965  13.937 -0.6468  2.2596  2.1260
11902TIP3   OH257120   5.014   6.366   5.734 -0.3751 -0.3329  0.5504
11902TIP3    H157121   4.922   6.346   5.714 -0.2694  0.2648 -0.6038
11902TIP3    H257122   5.058   6.363   5.649  0.4581  0.4926  0.9422
11903TIP3   OH257123   2.768   2.823   1.180 -0.2082  0.5252  0.0862
11903TIP3    H157124   2.691   2.879   1.188  1.5017  3.0462 -0.5304
11903TIP3    H257125   2.784   2.817   1.086  1.0863  1.0856  0.2624
11904TIP3   OH257126   4.400   1.973  16.832 -0.3462 -0.3420  0.1283
11904TIP3    H157127   4.465   2.041  16.850  0.8450 -0.3393 -3.8801
11904TIP3    H257128   4.442   1.891  16.859 -0.6016  0.1397  2.0726
11905TIP3   OH257129   6.515   2.552  12.297  0.5387 -0.0525  0.2341
11905TIP3    H157130   6.499   2.519  12.385  1.0490 -1.1757 -0.0800
11905TIP3    H257131   6.603   2.520  12.275  0.3774  0.1281 -0.7118
11906TIP3   OH257132   0.818   1.152  12.309 -0.0380 -0.0067  0.3593
11906TIP3    H157133   0.878   1.211  12.355 -1.6546  2.5217 -0.5998
11906TIP3    H257134   0.818   1.072  12.360  4.5976 -0.3334  0.0488
11907TIP3   OH257135   3.579   1.307  12.088  0.0650  0.9616 -0.2610
11907TIP3    H157136   3.592   1.245  12.159  1.3949  2.3069  0.7158
11907TIP3    H257137   3.586   1.393  12.130  1.0062  1.7813 -2.0344
11908TIP3   OH257138   1.498   1.579   4.443  0.2403  0.3428 -0.1882
11908TIP3    H157139   1.498   1.600   4.537  0.3842  2.5070 -0.6428
11908TIP3    H257140   1.428   1.634   4.407  1.4158  0.9143 -1.6256
11909TIP3   OH257141   4.825   6.289   4.970 -0.7307  0.2925  0.0322
11909TIP3    H157142   4.831   6.214   5.029 -0.3530  1.3883  1.4228
11909TIP3    H257143   4.734   6.320   4.979 -0.4381  0.9760  0.7042
11910TIP3   OH257144   3.595   3.842   1.062  0.2219 -0.2959 -0.9406
11910TIP3    H157145   3.549   3.780   1.118 -2.0205  2.2014  0.1302
11910TIP3    H257146   3.661   3.882   1.118 -1.5089  1.6410 -0.1795
11911TIP3   OH257147   2.618   5.648   3.417 -0.4707 -0.1056  0.0346
11911TIP3    H157148   2.688   5.609   3.470 -1.2576 -0.9701  0.4609
11911TIP3    H257149   2.545   5.586   3.425 -0.7617  0.0112 -1.6606
11912TIP3   OH257150   1.750   4.894  10.696  0.2453  0.1343 -0.0760
11912TIP3    H157151   1.816   4.921  10.760 -1.1460  0.5843  1.1663
11912TIP3    H257152   1.749   4.964  10.631  1.9247 -0.5029 -0.8229
11913TIP3   OH257153   4.746   3.152   1.297 -0.1635 -0.4952  0.3706
11913TIP3    H157154   4.821   3.122   1.246  1.3227  2.4613  0.6733
11913TIP3    H257155   4.757   3.113   1.383 -0.1188 -1.7424 -0.1985
11914TIP3   OH257156   6.387   2.170  12.837 -0.4578 -0.1833  0.4892
11914TIP3    H157157   6.312   2.151  12.892 -0.0002 -2.8756  0.2749
11914TIP3    H257158   6.352   2.171  12.748 -0.3447 -0.8992  0.4331
11915TIP3   OH257159   1.355   2.984   4.342 -0.2583 -0.5558 -0.7299
11915TIP3    H157160   1.328   3.034   4.419  0.5178 -0.0845 -0.7592
11915TIP3    H257161   1.281   2.992   4.282 -0.2900  0.2598 -0.5929
11916TIP3   OH257162   5.601   3.599   2.033  1.0273 -0.5061 -0.3623
11916TIP3    H157163   5.593   3.504   2.018 -0.7714 -0.9850  3.2139
11916TIP3    H257164   5.648   3.606   2.116  0.6890  1.7402 -0.3528
11917TIP3   OH257165   5.887   0.809  13.051  0.1371  0.3745  0.2393
11917TIP3    H157166   5.885   0.747  12.979  0.3494 -1.2075  1.5635
11917TIP3    H257167   5.795   0.824  13.073  0.0595  1.1980 -0.6372
11918TIP3   OH257168   2.362   2.316  13.937 -0.4236  0.1469 -0.2216
11918TIP3    H157169   2.358   2.226  13.906  2.4625  1.1263 -3.6642
11918TIP3    H257170   2.294   2.362  13.887 -0.7033  0.2685  0.2605
11919TIP3   OH257171   0.828   3.485   3.087  0.1696 -0.2290  0.3402
11919TIP3    H157172   0.849   3.567   3.043  0.4039 -0.0267  0.8261
11919TIP3    H257173   0.891   3.480   3.159 -0.4408 -0.3854  0.8603
11920TIP3   OH257174   1.197   1.399   2.690  0.6677  0.5675  0.5063
11920TIP3    H157175   1.167   1.489   2.680  4.1423  1.7044 -0.2373
11920TIP3    H257176   1.258   1.402   2.763  3.3721 -0.4542 -1.6088
11921TIP3   OH257177   6.090   2.930   0.959  0.1355  0.5387 -0.0948
11921TIP3    H157178   6.083   3.016   0.918 -0.0551  0.1509 -0.8913
11921TIP3    H257179   6.014   2.926   1.018  0.7054  1.3074  0.6975
11922TIP3   OH257180   2.597   6.277   2.557 -0.1773 -0.0977 -0.0263
11922TIP3    H157181   2.663   6.344   2.538  0.4293 -1.2070 -1.9130
11922TIP3    H257182   2.516   6.311   2.521 -0.5997  1.0952  1.9598
11923TIP3   OH257183   3.599   5.417  11.659 -0.3621 -0.2991  0.3634
11923TIP3    H157184   3.520   5.421  11.712 -1.7202  0.1523 -1.6413
11923TIP3    H257185   3.639   5.503  11.670 -0.5305 -0.2755  0.8133
11924TIP3   OH257186   3.342   5.631  15.542  0.0937  0.1025 -0.2706
11924TIP3    H157187   3.280   5.638  15.470 -0.3720 -0.1671  0.1001
11924TIP3    H257188   3.418   5.588  15.504 -0.7210 -1.3930 -0.2467
11925TIP3   OH257189   1.566   1.011   3.904  0.2812  0.0428  0.1256
11925TIP3    H157190   1.589   0.920   3.928  2.2842  0.3698 -0.4174
11925TIP3    H257191   1.565   1.011   3.809  3.9731  1.3671 -0.0106
11926TIP3   OH257192   5.353   1.686  15.535  0.0968  0.1746 -0.6553
11926TIP3    H157193   5.370   1.688  15.441  1.4181  2.3829 -0.3994
11926TIP3    H257194   5.402   1.609  15.567  1.0323  0.4101 -1.5118
11927TIP3   OH257195   5.597   5.527  16.189 -0.1355  0.1244  0.2278
11927TIP3    H157196   5.671   5.560  16.241 -1.1479  0.2980  1.5859
11927TIP3    H257197   5.555   5.462  16.246 -0.2824 -0.9185 -1.0339
11928TIP3   OH257198   6.646   4.047  14.703  0.3155  0.0416  0.2307
11928TIP3    H157199   6.557   4.011  14.695 -0.4727  2.0041 -0.0603
11928TIP3    H257200   6.638   4.116  14.769  1.3332  1.1338 -0.7621
11929TIP3   OH257201   1.868   1.142  12.721 -0.1710  0.6289 -0.0058
11929TIP3    H157202   1.917   1.153  12.802 -1.0722  1.7285  0.4060
11929TIP3    H257203   1.927   1.094  12.663 -0.0975 -1.4763  1.8004
11930TIP3   OH257204   4.482   6.279  13.954 -0.4649 -0.6064 -0.4393
11930TIP3    H157205   4.575   6.290  13.971 -0.6712  0.7578 -0.0800
11930TIP3    H257206   4.439   6.327  14.026 -1.4675 -2.7300  0.4359
11931TIP3   OH257207   5.988   0.733  15.536 -0.2595  0.1860  0.4645
11931TIP3    H157208   6.007   0.787  15.613 -0.8637 -0.7858  1.3007
11931TIP3    H257209   6.068   0.683  15.521  0.2335  1.1605 -0.1928
11932TIP3   OH257210   1.738   1.017  14.294  0.2824 -0.1094  0.0464
11932TIP3    H157211   1.810   1.074  14.320  0.3012 -0.5316  0.9202
11932TIP3    H257212   1.724   0.960  14.369 -0.8801 -0.1175 -0.1713
11933TIP3   OH257213   3.330   3.556   4.260 -0.1783  0.0860 -0.1391
11933TIP3    H157214   3.409   3.509   4.287 -0.1937 -1.6576 -2.9386
11933TIP3    H257215   3.260   3.517   4.313  0.1465 -1.5799 -0.9215
11934TIP3   OH257216   5.103   6.175  13.492  1.4472 -0.1708 -0.1751
11934TIP3    H157217   5.166   6.219  13.435  1.2824 -0.6072 -0.6993
11934TIP3    H257218   5.071   6.244  13.550  1.3444  0.3614 -0.8545
11935TIP3   OH257219   6.740   1.633   0.562  0.2882  0.2726  0.4253
11935TIP3    H157220   6.822   1.679   0.581  0.3811  0.7899 -1.1474
11935TIP3    H257221   6.767   1.558   0.509  0.0179 -1.0329  2.1097
11936TIP3   OH257222   1.142   0.935  14.223 -0.8134 -0.6231 -0.6395
11936TIP3    H157223   1.161   0.856  14.274  0.1770  0.2528  0.3724
11936TIP3    H257224   1.227   0.965  14.192 -0.9309  1.2097  0.7311
11937TIP3   OH257225   3.066   4.459   3.256 -0.1352 -1.1173 -0.0488
11937TIP3    H157226   3.157   4.477   3.233 -0.4654 -0.9010 -1.2270
11937TIP3    H257227   3.025   4.432   3.173 -0.9089 -2.1561  0.6519
11938TIP3   OH257228   3.247   1.203  11.570  0.1511  0.7584  0.7466
11938TIP3    H157229   3.183   1.240  11.509  0.2390  0.2147  0.3296
11938TIP3    H257230   3.196   1.179  11.647  0.1799  2.3223  1.2771
11939TIP3   OH257231   5.545   3.000   1.876 -0.2304 -0.4095 -0.1567
11939TIP3    H157232   5.597   3.027   1.952 -0.7234  2.4255 -0.7531
11939TIP3    H257233   5.600   3.021   1.801 -1.0177 -0.1729 -0.6766
11940TIP3   OH257234   6.587   6.010   4.554 -0.7449 -0.8269 -0.1281
11940TIP3    H157235   6.505   5.973   4.523 -1.0499 -0.1622 -0.1255
11940TIP3    H257236   6.640   6.021   4.474 -0.7316 -1.0743 -0.1535
11941TIP3   OH257237   5.672   1.747  11.655  0.6187 -0.1572  0.0784
11941TIP3    H157238   5.595   1.735  11.599 -1.2349  0.8719  2.3472
11941TIP3    H257239   5.639   1.743  11.744  3.3332 -0.4660  1.1346
11942TIP3   OH257240   2.308   0.748   5.349  0.1550 -0.5942 -0.2705
11942TIP3    H157241   2.216   0.737   5.325 -0.3135  0.0046  1.1623
11942TIP3    H257242   2.353   0.765   5.266 -0.9673 -1.1945 -1.0197
11943TIP3   OH257243   5.015   6.642  13.403  0.0037  0.1052 -0.1418
11943TIP3    H157244   5.018   6.660  13.497 -0.5441  0.6599 -0.2299
11943TIP3    H257245   4.996   6.727  13.363  0.7840 -0.0296 -0.7923
11944TIP3   OH257246   6.102   3.981  15.697 -0.8919 -0.0729  0.2174
11944TIP3    H157247   6.050   3.903  15.717  0.4285 -0.6813  1.3116
11944TIP3    H257248   6.123   4.018  15.782  0.8432 -0.0811 -0.1962
11945TIP3   OH257249   6.443   5.758   1.672 -0.7521 -0.5553  0.6871
11945TIP3    H157250   6.462   5.675   1.629  0.7611 -0.9056  1.9796
11945TIP3    H257251   6.529   5.798   1.686 -1.4076  0.8347  0.8384
11946TIP3   OH257252   5.537   0.308  12.107  0.0473 -0.3720 -0.1095
11946TIP3    H157253   5.595   0.351  12.045 -0.6482 -0.0021 -0.5075
11946TIP3    H257254   5.566   0.217  12.108  0.2522 -0.3130 -0.7533
11947TIP3   OH257255   5.041   4.558   5.880 -0.3233  0.1597 -0.1651
11947TIP3    H157256   5.136   4.573   5.884  0.2075 -2.7699 -0.7879
11947TIP3    H257257   5.023   4.494   5.948 -1.8741  0.6592 -0.0795
11948TIP3   OH257258   1.697   4.619   4.574  0.1410 -0.4889 -0.2561
11948TIP3    H157259   1.651   4.683   4.519 -0.5336 -2.8697 -2.5820
11948TIP3    H257260   1.785   4.616   4.538  0.9923  1.0383  1.5808
11949TIP3   OH257261   5.399   2.295  15.486  0.3951 -0.4937 -0.0366
11949TIP3    H157262   5.456   2.341  15.425 -0.1030 -0.4726 -0.4927
11949TIP3    H257263   5.391   2.206  15.451  1.1882 -0.8739  0.7286
11950TIP3   OH257264   0.028   5.406  15.863 -0.3467  0.2606 -0.3156
11950TIP3    H157265  -0.052   5.354  15.866 -0.8932  1.0505 -0.9426
11950TIP3    H257266   0.036   5.434  15.771 -0.6087  2.0935  0.1895
11951TIP3   OH257267   6.303   1.973   0.519  0.1600  0.2871 -0.3047
11951TIP3    H157268   6.324   2.045   0.460  0.8278 -1.2793 -2.0406
11951TIP3    H257269   6.309   1.895   0.464 -2.9881 -0.8874  0.9496
11952TIP3   OH257270   4.305   3.715  11.233  0.2039  0.3120  0.6433
11952TIP3    H157271   4.265   3.721  11.320 -1.5196 -2.1056  0.0710
11952TIP3    H257272   4.240   3.670  11.179  1.3748  1.4778 -1.8346
11953TIP3   OH257273   0.664   6.208  16.283  0.0643 -0.2263 -0.1033
11953TIP3    H157274   0.600   6.139  16.299 -0.6542  0.1668 -1.2074
11953TIP3    H257275   0.612   6.284  16.256  0.8534  0.7259  1.0255
11954TIP3   OH257276   1.200   6.612  10.702  0.1149 -0.2357 -0.1553
11954TIP3    H157277   1.147   6.690  10.685  1.4400  1.2036  2.0991
11954TIP3    H257278   1.215   6.573  10.615 -2.2996  0.8322 -1.0956
11955TIP3   OH257279   2.993   0.225   5.714 -0.4398  0.2904 -0.2534
11955TIP3    H157280   3.015   0.145   5.666 -0.6727  1.7595 -2.8800
11955TIP3    H257281   2.935   0.195   5.784 -0.9579 -1.7807 -1.5243
11956TIP3   OH257282   4.576   5.890  11.976  0.7133  0.4220  0.2585
11956TIP3    H157283   4.617   5.900  12.062  0.9118  0.8988  0.1124
11956TIP3    H257284   4.529   5.973  11.963 -0.0377  0.0070  0.2855
11957TIP3   OH257285   2.131   2.737  17.075 -0.4318 -0.4071 -0.2783
11957TIP3    H157286   2.220   2.707  17.098 -0.3352 -0.5409 -0.8233
11957TIP3    H257287   2.091   2.758  17.159 -0.1479 -1.1027  0.0400
11958TIP3   OH257288   6.191   5.529  13.792 -0.6840 -0.4915 -0.2819
11958TIP3    H157289   6.274   5.514  13.836 -0.5604 -0.0535 -0.3600
11958TIP3    H257290   6.146   5.593  13.847 -0.1793  0.6871 -1.2255
11959TIP3   OH257291   3.310   1.031   5.058  0.0207 -0.2215  0.5148
11959TIP3    H157292   3.252   1.033   5.134 -2.1962  0.6374 -1.1387
11959TIP3    H257293   3.376   1.098   5.076 -0.5165  0.0102  1.6658
11960TIP3   OH257294   4.414   3.281   4.190 -0.5006 -0.2123  0.9611
11960TIP3    H157295   4.365   3.323   4.119 -0.5035 -0.9724  0.5141
11960TIP3    H257296   4.394   3.188   4.182  1.1475 -0.5708  0.6446
11961TIP3   OH257297   4.015   0.225  13.537  0.0854  0.4958 -0.7279
11961TIP3    H157298   3.949   0.171  13.494  0.1929  1.0511 -1.6066
11961TIP3    H257299   3.971   0.260  13.614 -0.0445 -0.6790 -0.2555
11962TIP3   OH257300   0.606   3.259  12.231 -0.1469  0.2034 -0.5456
11962TIP3    H157301   0.536   3.318  12.262 -0.6431 -1.4749  1.6750
11962TIP3    H257302   0.567   3.214  12.157 -0.3990  1.3284 -1.1184
11963TIP3   OH257303   0.023   3.836   1.745 -0.2171  0.9246  0.3284
11963TIP3    H157304   0.109   3.856   1.709  0.4341 -0.3424  1.1386
11963TIP3    H257305   0.041   3.794   1.829 -1.6283  0.6728  0.5318
11964TIP3   OH257306   5.173   5.276   1.222  0.0103 -0.5316 -0.0452
11964TIP3    H157307   5.249   5.295   1.277  0.8744  0.8791 -1.6739
11964TIP3    H257308   5.202   5.296   1.133 -1.6287 -1.9504 -0.9343
11965TIP3   OH257309   6.377   2.543   3.043  0.0268  0.0634  0.2509
11965TIP3    H157310   6.324   2.479   3.091  0.3075 -1.1181 -0.9693
11965TIP3    H257311   6.329   2.625   3.051 -1.7987 -0.8966 -0.4885
11966TIP3   OH257312   6.686   1.263  15.372 -0.3879  0.7470  0.0104
11966TIP3    H157313   6.777   1.258  15.344  0.2335  0.9184  1.9748
11966TIP3    H257314   6.659   1.172  15.384 -0.4132  0.7064 -0.3468
11967TIP3   OH257315   5.318   2.768  15.741 -0.6562  0.5170 -0.0780
11967TIP3    H157316   5.363   2.685  15.759 -0.3383  0.7265  0.1151
11967TIP3    H257317   5.251   2.746  15.677 -0.3386  0.1743 -0.2985
11968TIP3   OH257318   4.967   2.152  16.212 -0.6773 -0.2393 -0.4825
11968TIP3    H157319   5.021   2.075  16.193 -0.4899  0.2623 -2.0260
11968TIP3    H257320   4.909   2.160  16.137  1.1145  2.6766 -1.6490
11969TIP3   OH257321   3.231   4.550   0.799 -0.1003  0.4147  0.1198
11969TIP3    H157322   3.233   4.473   0.856 -2.6551 -0.0852 -0.4128
11969TIP3    H257323   3.322   4.561   0.770  0.0923 -3.2584 -0.9142
11970TIP3   OH257324   0.634   6.776  12.461 -0.5302 -0.0814 -0.0797
11970TIP3    H157325   0.692   6.834  12.412 -0.8439  1.4796  1.3160
11970TIP3    H257326   0.653   6.688  12.428  2.5129  0.4012  0.2236
11971TIP3   OH257327   6.244   3.285  15.895 -0.3355 -0.2168  0.2562
11971TIP3    H157328   6.315   3.337  15.857  0.1694 -0.4805  0.8126
11971TIP3    H257329   6.262   3.196  15.868  0.1260 -0.4308  1.2366
11972TIP3   OH257330   2.119   4.697   0.980  0.2458 -0.4135 -0.1778
11972TIP3    H157331   2.135   4.781   1.023  0.2780 -0.5466  0.0761
11972TIP3    H257332   2.034   4.669   1.014  0.3523 -0.6022 -0.0648
11973TIP3   OH257333   5.421   4.215  10.798 -0.0200  0.5729 -0.1411
11973TIP3    H157334   5.331   4.239  10.822  0.1465 -1.3339  2.5379
11973TIP3    H257335   5.444   4.145  10.858  3.3308  1.0945 -0.7407
11974TIP3   OH257336   4.916   2.305   1.725  0.1441  0.3554 -0.0418
11974TIP3    H157337   4.941   2.245   1.655 -1.7974  1.2043 -1.5091
11974TIP3    H257338   4.836   2.268   1.761 -0.4760  1.4603 -0.2495
11975TIP3   OH257339   3.006   3.419   4.053  0.1332 -0.5817 -0.0286
11975TIP3    H157340   2.965   3.489   4.104 -1.1916 -1.4364  0.0963
11975TIP3    H257341   3.017   3.457   3.966 -1.5323 -0.5516 -0.2456
11976TIP3   OH257342   5.254   5.812  11.969 -0.2310 -0.1760 -0.4462
11976TIP3    H157343   5.306   5.888  11.940 -1.0141  0.3910 -0.3824
11976TIP3    H257344   5.244   5.759  11.891  1.0716 -0.6597 -0.2939
11977TIP3   OH257345   4.322   4.160  13.683 -0.9775  0.4486 -0.1956
11977TIP3    H157346   4.333   4.118  13.598 -1.1825  0.2653 -0.1311
11977TIP3    H257347   4.246   4.217  13.672 -0.4931  1.0697 -0.3852
11978TIP3   OH257348   1.798   5.051   2.335  0.3825  0.1554 -0.0949
11978TIP3    H157349   1.859   5.120   2.311 -0.6830  0.9950 -0.4357
11978TIP3    H257350   1.721   5.067   2.280 -0.3703 -0.5507  0.7368
11979TIP3   OH257351   6.148   4.833  13.932  0.3056 -0.0450 -0.9877
11979TIP3    H157352   6.212   4.764  13.912  0.5528 -0.3915  0.8725
11979TIP3    H257353   6.196   4.915  13.920  0.8169 -0.2798 -0.5799
11980TIP3   OH257354   4.241   0.368  16.540 -0.0246 -0.0168 -0.4336
11980TIP3    H157355   4.218   0.356  16.448 -2.3715  2.0951 -0.1820
11980TIP3    H257356   4.156   0.372  16.585  1.0225  1.5197  1.4579
11981TIP3   OH257357   2.732   5.938  10.849 -0.7473 -0.3248 -0.2408
11981TIP3    H157358   2.693   5.910  10.932 -1.6174 -0.3029 -0.6391
11981TIP3    H257359   2.743   5.857  10.799 -0.6810 -0.2794 -0.2995
11982TIP3   OH257360   5.799   3.879  16.061  0.5984  0.0971 -0.1979
11982TIP3    H157361   5.766   3.928  15.986 -3.8193  0.1023  1.6060
11982TIP3    H257362   5.781   3.935  16.136 -0.3578 -2.3370  1.4340
11983TIP3   OH257363   5.193   5.569   5.446 -0.0357 -0.2107  0.3165
11983TIP3    H157364   5.119   5.510   5.431  0.4996 -0.5181 -1.2095
11983TIP3    H257365   5.169   5.618   5.525 -1.3356 -1.1248  0.5082
11984TIP3   OH257366   5.366   6.002  14.358  0.0028 -0.2446  0.1182
11984TIP3    H157367   5.386   6.001  14.264 -0.1484  1.8986  0.0480
11984TIP3    H257368   5.345   6.093  14.377 -0.9341 -0.8467  2.0481
11985TIP3   OH257369   1.464   0.658  11.172 -0.4121 -0.7174 -0.2022
11985TIP3    H157370   1.451   0.751  11.188 -0.9473 -0.6320 -1.0907
11985TIP3    H257371   1.544   0.653  11.119  0.2644 -0.8546  0.8163
11986TIP3   OH257372   3.723   1.896   2.095 -0.4096 -0.2954 -0.4058
11986TIP3    H157373   3.676   1.845   2.029 -0.1072  0.5712 -1.3165
11986TIP3    H257374   3.764   1.966   2.045  0.2844  0.0529  0.6448
11987TIP3   OH257375   3.139   1.365  12.107 -0.2151 -0.4479 -0.4853
11987TIP3    H157376   3.074   1.298  12.126 -1.7572  0.4832 -2.3024
11987TIP3    H257377   3.089   1.447  12.101  1.1177  0.3021 -1.7775
11988TIP3   OH257378   0.917   2.406  11.649 -0.1570 -0.5906 -0.0126
11988TIP3    H157379   1.005   2.367  11.648 -0.3622 -1.1421  1.6781
11988TIP3    H257380   0.931   2.497  11.672  0.0240 -0.5285 -0.3688
11989TIP3   OH257381   1.775   1.585  12.876  0.6149 -0.6825 -0.2042
11989TIP3    H157382   1.802   1.676  12.889 -0.1931 -0.3299 -0.9336
11989TIP3    H257383   1.688   1.591  12.835  0.8053 -1.7688 -0.8027
11990TIP3   OH257384   3.825   6.617   2.109  0.1771  0.5616  0.8548
11990TIP3    H157385   3.855   6.646   2.195  0.8488 -0.3577  0.9400
11990TIP3    H257386   3.747   6.565   2.127 -0.7829  1.9439  0.7379
11991TIP3   OH257387   5.406   6.338   5.338  0.3810 -0.2035 -0.3583
11991TIP3    H157388   5.360   6.399   5.281 -0.7194 -1.2794 -0.6438
11991TIP3    H257389   5.355   6.257   5.333  1.0036 -0.7042  1.1553
11992TIP3   OH257390   6.183   5.918  15.451 -0.3261 -0.1591  0.8727
11992TIP3    H157391   6.271   5.897  15.419  0.4510  0.6438  2.4198
11992TIP3    H257392   6.184   5.890  15.543 -1.8536 -0.5804  0.7735
11993TIP3   OH257393   5.022   2.709   4.355  0.1820 -0.0994 -0.2125
11993TIP3    H157394   4.926   2.709   4.347  0.2119 -2.7232 -0.9811
11993TIP3    H257395   5.042   2.624   4.393  2.1552  0.9164  1.0877
11994TIP3   OH257396   3.815   5.856   0.773 -0.2434  0.5117  0.2202
11994TIP3    H157397   3.766   5.777   0.791  0.1854  0.5352  1.5346
11994TIP3    H257398   3.848   5.844   0.684 -3.1398  0.7913 -0.9194
11995TIP3   OH257399   2.239   4.941  11.211  0.2007 -0.0960 -0.7459
11995TIP3    H157400   2.277   5.004  11.272 -1.7575  0.3607  0.0216
11995TIP3    H257401   2.167   4.987  11.170 -0.4456 -1.4224 -1.1348
11996TIP3   OH257402   1.944   5.101   4.412  0.4760 -0.2837 -0.7134
11996TIP3    H157403   1.994   5.172   4.453 -0.2905 -0.0553 -0.1444
11996TIP3    H257404   1.928   5.039   4.483 -1.9176  0.6941 -0.3221
11997TIP3   OH257405   0.169   0.431  11.810 -0.2529 -0.5349  0.3145
11997TIP3    H157406   0.143   0.518  11.839 -0.8892 -1.0289  1.2666
11997TIP3    H257407   0.135   0.424  11.720  1.7751  1.0314 -0.6049
11998TIP3   OH257408   2.068   5.700  17.123 -0.0750 -0.4535 -0.4482
11998TIP3    H157409   2.007   5.685  17.051  1.5187  0.5096 -2.0266
11998TIP3    H257410   2.061   5.793  17.141  1.8831 -0.0758 -1.5350
11999TIP3   OH257411   5.252   2.505  12.578  0.1467 -0.7250 -0.0932
11999TIP3    H157412   5.254   2.451  12.499  0.3924 -0.9101  0.0395
11999TIP3    H257413   5.181   2.567  12.563 -0.6782 -1.6194  0.1201
12000TIP3   OH257414   4.904   1.212  17.065 -0.1012  0.0005  0.2232
12000TIP3    H157415   4.824   1.186  17.110 -0.1672 -1.5195 -0.7185
12000TIP3    H257416   4.889   1.189  16.974  1.7083 -1.1339  0.1599
12001TIP3   OH257417   2.032   6.194  11.461  0.4145  0.5311 -0.0271
12001TIP3    H157418   2.023   6.183  11.366 -1.9079  0.2857  0.1900
12001TIP3    H257419   2.034   6.105  11.496 -4.4474  0.5291  0.5704
12002TIP3   OH257420   3.056   5.363   5.061 -0.2438  0.4599 -0.2083
12002TIP3    H157421   3.013   5.448   5.073  0.7612  1.1645 -1.4551
12002TIP3    H257422   3.089   5.365   4.971 -0.2207 -1.2693 -0.2661
12003TIP3   OH257423   0.845   3.554  16.652 -0.1566 -0.3570 -0.5446
12003TIP3    H157424   0.860   3.465  16.621  2.6468 -0.2884  0.5010
12003TIP3    H257425   0.770   3.547  16.712 -0.7626 -1.7719 -1.4670
12004TIP3   OH257426   2.026   1.701  16.829  0.5548 -0.2339  0.0442
12004TIP3    H157427   2.068   1.654  16.901  0.6969  0.1304  0.2038
12004TIP3    H257428   2.029   1.793  16.856  0.7303 -0.0813 -0.4870
12005TIP3   OH257429   3.087   0.270   1.369  0.2635 -0.7344  0.5555
12005TIP3    H157430   3.098   0.319   1.450  2.3586  0.7162 -0.5569
12005TIP3    H257431   3.062   0.336   1.304  0.9561 -1.4884 -0.4882
12006TIP3   OH257432   2.195   6.732  13.936 -0.3150 -0.1947 -0.7441
12006TIP3    H157433   2.117   6.746  13.989  0.4211  0.5395  0.1659
12006TIP3    H257434   2.211   6.637  13.942 -1.0865 -0.3331 -0.8773
12007TIP3   OH257435   1.590   0.327   2.375 -0.0900 -0.5874  0.9058
12007TIP3    H157436   1.600   0.355   2.466  0.3977  0.8802  0.4249
12007TIP3    H257437   1.680   0.318   2.342 -0.2473  1.1681 -0.0803
12008TIP3   OH257438   3.246   2.908  11.673  0.2180 -0.1882 -0.0946
12008TIP3    H157439   3.287   2.829  11.637  0.5659 -1.2696  2.5590
12008TIP3    H257440   3.314   2.975  11.665  0.2094 -0.3556 -1.6361
12009TIP3   OH257441   0.172   5.933   6.032  0.0035 -0.1547 -0.1592
12009TIP3    H157442   0.191   6.011   5.979 -0.5962  1.0384  1.3258
12009TIP3    H257443   0.246   5.927   6.092  0.6254 -1.4356 -1.0377
12010TIP3   OH257444   0.087   3.285  12.761 -0.3239 -0.4558  0.6954
12010TIP3    H157445   0.120   3.339  12.832  1.8873 -0.6111 -0.1900
12010TIP3    H257446   0.152   3.217  12.750 -0.8511 -0.6836 -1.2062
12011TIP3   OH257447   1.758   2.314   2.452  0.2580 -0.3176 -0.2456
12011TIP3    H157448   1.698   2.374   2.498  0.7989 -0.5736  0.8036
12011TIP3    H257449   1.702   2.240   2.427  0.1663 -0.6738  0.9553
12012TIP3   OH257450   1.216   5.760  15.389  0.2830  0.2269 -0.1861
12012TIP3    H157451   1.125   5.737  15.405  0.0835  1.3354  0.3457
12012TIP3    H257452   1.215   5.805  15.305  0.4767 -0.5555 -0.6094
12013TIP3   OH257453   5.072   0.503  13.842  0.6493  0.9030  0.7878
12013TIP3    H157454   5.005   0.481  13.777  0.9202 -2.6695  1.5849
12013TIP3    H257455   5.024   0.509  13.925  1.0482 -0.0670  1.1006
12014TIP3   OH257456   3.680   2.666  10.604 -0.1542  0.3304  0.0330
12014TIP3    H157457   3.742   2.705  10.665  1.1025  1.7959 -2.1377
12014TIP3    H257458   3.726   2.590  10.568  0.3097  1.2484 -1.3576
12015TIP3   OH257459   2.140   6.133  14.445 -0.2335 -0.1037 -0.3275
12015TIP3    H157460   2.088   6.053  14.440 -0.2582 -0.1376  0.3960
12015TIP3    H257461   2.089   6.198  14.396 -0.9300 -0.1560  0.3130
12016TIP3   OH257462   1.371   6.063  14.614 -0.4535  0.1419  0.0705
12016TIP3    H157463   1.369   5.968  14.627 -1.7179  0.1445 -0.0334
12016TIP3    H257464   1.454   6.091  14.654  0.6681 -1.1837 -1.2465
12017TIP3   OH257465   3.042   1.846   0.233  0.2985  0.2184 -0.0134
12017TIP3    H157466   3.097   1.908   0.281 -0.2204  0.5116  0.1968
12017TIP3    H257467   2.956   1.887   0.229 -0.1022 -0.5789  0.3169
12018TIP3   OH257468   0.188   1.205  14.936  0.1506 -0.4675  0.2822
12018TIP3    H157469   0.261   1.233  14.991 -0.2982 -2.6841  2.1217
12018TIP3    H257470   0.219   1.215  14.847  1.4751  1.7556  0.9626
12019TIP3   OH257471   5.994   3.464  15.406 -0.3859 -0.4230  0.2396
12019TIP3    H157472   5.999   3.559  15.417 -1.7035 -0.2739 -0.3758
12019TIP3    H257473   5.978   3.430  15.494  0.2445 -0.0945  0.4847
12020TIP3   OH257474   5.776   0.866  10.467 -0.3250 -0.4133  0.0533
12020TIP3    H157475   5.690   0.831  10.445 -0.9253  0.4746  0.9313
12020TIP3    H257476   5.772   0.958  10.439  0.1908 -0.2629  0.4651
12021TIP3   OH257477   4.421   3.690   3.060 -0.6412  0.8901 -0.4746
12021TIP3    H157478   4.487   3.624   3.082 -0.0893  1.0230 -1.6913
12021TIP3    H257479   4.469   3.756   3.010 -1.6363  1.1344 -1.1191
12022TIP3   OH257480   1.178   0.172  15.983 -0.0714  0.1845 -0.1404
12022TIP3    H157481   1.250   0.232  16.001  1.2536 -1.2507 -0.6021
12022TIP3    H257482   1.101   0.229  15.977  0.8217  1.6111  1.4694
12023TIP3   OH257483   6.505   3.042   1.298  0.5268  0.0862  0.3555
12023TIP3    H157484   6.552   3.122   1.322 -0.0113  1.0952 -1.8049
12023TIP3    H257485   6.422   3.049   1.345  1.5557 -0.5303  2.2907
12024TIP3   OH257486   2.838   1.501   1.275  0.5574 -0.5406  0.3025
12024TIP3    H157487   2.868   1.433   1.213 -1.6205 -1.5676  0.3366
12024TIP3    H257488   2.800   1.568   1.219  1.3006 -0.0505  0.3722
12025TIP3   OH257489   0.254   2.885  10.711 -0.0630 -0.1694 -0.1198
12025TIP3    H157490   0.268   2.979  10.696 -1.4398 -0.0882 -0.9857
12025TIP3    H257491   0.194   2.858  10.641  0.2629 -1.6859  0.1617
12026TIP3   OH257492   5.275   3.919   1.952 -0.1966 -0.3087 -0.4027
12026TIP3    H157493   5.187   3.893   1.977 -0.7248 -0.6753 -2.5400
12026TIP3    H257494   5.320   3.836   1.936  0.7931 -0.1539  1.4501
12027TIP3   OH257495   6.588   6.609  11.956 -0.7141  0.4061 -0.4367
12027TIP3    H157496   6.521   6.613  12.025 -1.1400 -1.4267 -0.7383
12027TIP3    H257497   6.596   6.700  11.926 -2.1236  0.8586  0.5012
12028TIP3   OH257498   3.956   5.987   2.425 -0.6717  0.4177  0.3878
12028TIP3    H157499   3.993   5.934   2.496 -0.1707 -0.1792 -0.3090
12028TIP3    H257500   3.870   6.014   2.457  0.6039  2.3502  2.3151
12029TIP3   OH257501   0.142   5.410  13.494  0.1012 -0.1844 -0.5613
12029TIP3    H157502   0.228   5.370  13.506  1.7598  3.0812 -0.9364
12029TIP3    H257503   0.114   5.383  13.406  0.2183 -2.1466 -0.0060
12030TIP3   OH257504   2.925   1.074   2.652  0.4398  0.2358 -0.0131
12030TIP3    H157505   2.899   1.099   2.563  1.8325  0.8545 -0.2594
12030TIP3    H257506   2.870   1.129   2.708  0.4971  0.8076 -0.5081
12031TIP3   OH257507   2.935   2.293   4.265 -0.2683 -0.2070  0.3464
12031TIP3    H157508   2.975   2.330   4.344 -0.6903 -0.5462  0.7194
12031TIP3    H257509   2.952   2.359   4.197  1.3262 -0.5584  0.3828
12032TIP3   OH257510   5.456   2.536   2.921 -0.1934 -0.6931  0.2929
12032TIP3    H157511   5.493   2.598   2.858  2.0459  1.2412  3.3309
12032TIP3    H257512   5.523   2.469   2.931 -1.2305 -1.8787 -0.5418
12033TIP3   OH257513   6.071   1.588  12.294 -0.0201  0.1830 -0.1116
12033TIP3    H157514   6.148   1.638  12.268 -0.6088  0.4615 -1.3532
12033TIP3    H257515   6.034   1.556  12.211 -2.7677  2.3308  0.2243
12034TIP3   OH257516   3.755   4.857   4.872  0.4684  0.3717  0.1671
12034TIP3    H157517   3.677   4.894   4.829  2.3209  1.1255 -2.7119
12034TIP3    H257518   3.799   4.932   4.911  1.7569  0.5534 -1.5863
12035TIP3   OH257519   5.420   6.156   0.887  0.0438  0.0076  0.6522
12035TIP3    H157520   5.350   6.181   0.827  0.7443  0.5458  0.0497
12035TIP3    H257521   5.406   6.211   0.964  0.0225  0.3790  0.3854
12036TIP3   OH257522   2.843   4.461  11.285  0.3368 -0.3456 -0.4438
12036TIP3    H157523   2.809   4.482  11.198  0.2613  1.4607 -0.0042
12036TIP3    H257524   2.777   4.403  11.323 -1.3937  1.6837 -0.2757
12037TIP3   OH257525   1.298   0.421  13.167 -0.1189  0.3296 -0.0005
12037TIP3    H157526   1.253   0.484  13.223  0.6382  1.0868 -0.2315
12037TIP3    H257527   1.234   0.399  13.099 -0.4824  0.6331  0.2414
12038TIP3   OH257528   6.322   1.887  14.366 -0.2269  0.5291 -0.0732
12038TIP3    H157529   6.315   1.816  14.430  0.3640  0.4465 -0.0991
12038TIP3    H257530   6.285   1.851  14.286  0.8489 -0.0391 -0.3185
12039TIP3   OH257531   0.916   3.707   5.112  0.3068  0.1579 -0.1075
12039TIP3    H157532   0.965   3.650   5.172 -0.8274 -1.5416 -0.7685
12039TIP3    H257533   0.963   3.699   5.029  0.1176  0.1548 -0.2134
12040TIP3   OH257534   2.512   3.242   3.662 -0.3391 -0.4157  0.5739
12040TIP3    H157535   2.575   3.170   3.670 -0.1397 -0.4376 -1.1076
12040TIP3    H257536   2.465   3.242   3.746  1.9782 -0.3084  1.9049
12041TIP3   OH257537   1.716   0.744   1.421 -0.3500 -0.0606 -0.1365
12041TIP3    H157538   1.784   0.803   1.454 -0.7319  0.0340  0.4847
12041TIP3    H257539   1.654   0.803   1.378  0.2504 -0.2019 -1.2309
12042TIP3   OH257540   2.799   3.453  16.625 -0.1882 -0.3220 -0.0506
12042TIP3    H157541   2.743   3.513  16.575 -1.6342 -0.0765  1.8212
12042TIP3    H257542   2.841   3.508  16.690 -0.9043 -1.1783  1.1593
12043TIP3   OH257543   3.432   6.416  13.244  0.5577 -0.3515  0.0238
12043TIP3    H157544   3.436   6.362  13.323  0.6593 -1.2062 -0.5566
12043TIP3    H257545   3.500   6.483  13.257 -0.0072  0.0258  1.0301
12044TIP3   OH257546   6.414   6.609  13.558  0.3416 -0.0938 -0.1683
12044TIP3    H157547   6.445   6.664  13.486 -0.4787  0.8528  0.1939
12044TIP3    H257548   6.491   6.559  13.585  1.6580  2.4415  0.9337
12045TIP3   OH257549   5.761   2.037   4.584  0.1441  0.2757 -0.2775
12045TIP3    H157550   5.829   2.076   4.529 -0.3093  2.3062  0.5584
12045TIP3    H257551   5.725   1.965   4.531  1.3249  0.6845 -1.6593
12046TIP3   OH257552   1.440   2.501   4.132  0.3560  0.4046 -0.3195
12046TIP3    H157553   1.451   2.596   4.124 -0.2070  0.5159  0.1778
12046TIP3    H257554   1.400   2.474   4.049 -3.0973  1.1798  0.9818
12047TIP3   OH257555   0.260   0.201   5.712  0.2814 -0.0173  0.0136
12047TIP3    H157556   0.227   0.285   5.744 -0.5949  0.2735 -1.6179
12047TIP3    H257557   0.355   0.209   5.715  0.2013  0.8590  0.2927
12048TIP3   OH257558   4.806   2.062   2.575 -0.5094  0.7320 -0.1715
12048TIP3    H157559   4.813   2.045   2.669 -1.9687  1.4027  0.0757
12048TIP3    H257560   4.836   2.152   2.565 -2.4849  1.4266 -0.0133
12049TIP3   OH257561   0.156   2.138   0.650 -0.0476 -0.1755  0.2874
12049TIP3    H157562   0.144   2.044   0.661 -0.1903 -0.0776  1.0322
12049TIP3    H257563   0.071   2.170   0.622 -0.2214 -0.1647  0.8081
12050TIP3   OH257564   3.647   5.871   1.802  0.0053  0.2111 -0.3227
12050TIP3    H157565   3.568   5.905   1.844 -0.2020 -0.6565 -0.0093
12050TIP3    H257566   3.656   5.923   1.722 -1.5680 -0.5117 -0.9858
12051TIP3   OH257567   6.162   2.486  16.030 -0.3506  0.1507  0.2343
12051TIP3    H157568   6.229   2.507  16.095 -0.2788 -0.6557  0.4247
12051TIP3    H257569   6.087   2.456  16.082 -0.5914  0.3132 -0.0158
12052TIP3   OH257570   3.643   4.570  14.373  0.0330  0.0221 -0.3953
12052TIP3    H157571   3.551   4.594  14.381  0.5040  2.2269 -1.3834
12052TIP3    H257572   3.647   4.514  14.296 -0.5739 -0.6570  0.0600
12053TIP3   OH257573   1.818   6.641  16.175 -0.0711  0.0709  0.5707
12053TIP3    H157574   1.818   6.736  16.160  3.0230  0.1026  0.3910
12053TIP3    H257575   1.796   6.603  16.090 -1.2633  0.6298  0.6296
12054TIP3   OH257576   3.836   3.750  11.036 -0.4888  0.1126 -0.6119
12054TIP3    H157577   3.924   3.740  10.999 -0.0713 -0.4578  0.4838
12054TIP3    H257578   3.796   3.663  11.027  0.7970 -0.9934  3.1045
12055TIP3   OH257579   2.686   6.659  12.713  0.0267 -0.1203 -0.4926
12055TIP3    H157580   2.702   6.574  12.670 -1.5031 -0.5354 -0.2657
12055TIP3    H257581   2.603   6.689  12.677  1.6412  2.3984 -2.2844
12056TIP3   OH257582   5.313   2.486   4.689  0.3254 -0.1170  0.5575
12056TIP3    H157583   5.333   2.492   4.595 -1.7686 -0.2467  0.0692
12056TIP3    H257584   5.379   2.540   4.731  0.5131  0.9940 -1.1143
12057TIP3   OH257585   1.554   6.713   5.464  0.1618  0.1444  0.2819
12057TIP3    H157586   1.512   6.781   5.411  0.7285  1.3199  1.3208
12057TIP3    H257587   1.636   6.695   5.420 -0.2189 -0.2469 -0.2787
12058TIP3   OH257588   4.690   1.050   3.375 -0.0045  0.4164 -0.0066
12058TIP3    H157589   4.671   1.120   3.312  0.5017  1.3615  0.8928
12058TIP3    H257590   4.783   1.058   3.393 -0.1763  0.2257  0.9711
12059TIP3   OH257591   2.210   1.819  13.254  0.0643 -0.1277 -0.4838
12059TIP3    H157592   2.178   1.881  13.188  0.5406  0.9855  0.3108
12059TIP3    H257593   2.132   1.780  13.291 -0.2209 -0.5256 -1.4743
12060TIP3   OH257594   3.926   3.651  13.303  0.1961 -0.4676 -0.4267
12060TIP3    H157595   3.919   3.717  13.372  1.0401  0.7147 -1.4612
12060TIP3    H257596   3.996   3.592  13.332 -1.9980 -2.2128  1.5426
12061TIP3   OH257597   6.501   5.096   5.960 -0.1712  0.1738  0.0305
12061TIP3    H157598   6.495   5.008   5.997 -1.7665  0.4597  0.4937
12061TIP3    H257599   6.580   5.094   5.906 -0.9404 -1.9545 -1.0666
12062TIP3   OH257600   3.438   1.896  11.360  0.1752 -0.0373  0.4729
12062TIP3    H157601   3.350   1.924  11.335  0.7230  1.2948 -0.0267
12062TIP3    H257602   3.424   1.817  11.412 -1.4057  0.9830  1.6362
12063TIP3   OH257603   3.217   3.724   2.504 -0.0174 -0.1230 -0.2466
12063TIP3    H157604   3.136   3.773   2.490  0.3657  0.3016 -0.9535
12063TIP3    H257605   3.270   3.741   2.427 -0.6285 -3.1315 -1.4106
12064TIP3   OH257606   5.245   6.121  16.819  0.3899 -0.2586  0.5681
12064TIP3    H157607   5.308   6.153  16.883  0.3795 -2.4646  1.7278
12064TIP3    H257608   5.217   6.036  16.853 -1.3897 -0.4134 -1.1673
12065TIP3   OH257609   3.795   0.914   0.222  0.7596  0.1255  0.1049
12065TIP3    H157610   3.873   0.960   0.192  1.4090 -1.0376 -0.0099
12065TIP3    H257611   3.800   0.828   0.180 -0.6095  0.0627  0.0475
12066TIP3   OH257612   0.642   4.409  16.849  0.9098 -0.1797  0.1393
12066TIP3    H157613   0.736   4.396  16.844  0.6860 -0.9183 -2.9947
12066TIP3    H257614   0.626   4.490  16.800 -0.1222 -0.2146  0.3953
12067TIP3   OH257615   4.268   4.174   5.035  0.0070  0.3546 -0.0674
12067TIP3    H157616   4.204   4.227   4.988 -1.2116 -0.8131  0.2588
12067TIP3    H257617   4.253   4.194   5.128  0.1549  0.1201  0.0091
12068TIP3   OH257618   0.842   1.448   3.096 -0.8101  0.2277 -0.8290
12068TIP3    H157619   0.848   1.543   3.107 -1.1085  0.3510 -1.6999
12068TIP3    H257620   0.862   1.433   3.003  1.2921 -0.7557 -0.2582
12069TIP3   OH257621   1.443   0.730  15.846 -0.3362 -0.3845 -0.1142
12069TIP3    H157622   1.467   0.640  15.869  3.5634  0.5250 -0.2659
12069TIP3    H257623   1.475   0.783  15.919  0.0455  1.1572 -1.3685
12070TIP3   OH257624   2.770   0.333   3.006  0.1809 -0.3080  0.3374
12070TIP3    H157625   2.827   0.396   2.962  0.6003 -0.0555  1.2316
12070TIP3    H257626   2.682   0.356   2.979  0.4937 -0.6916 -1.0554
12071TIP3   OH257627   3.349   0.331  13.705 -0.2456 -0.4050  0.1848
12071TIP3    H157628   3.412   0.371  13.765  0.9431 -2.0545  0.0742
12071TIP3    H257629   3.269   0.322  13.757 -0.1015  0.7664  0.6379
12072TIP3   OH257630   0.506   3.902  16.542 -0.2647 -0.8104 -0.3747
12072TIP3    H157631   0.540   3.819  16.509  0.7980 -0.3806 -0.3732
12072TIP3    H257632   0.558   3.919  16.621 -0.3341 -0.0372 -0.4966
12073TIP3   OH257633   5.979   5.743  16.880  0.2348 -0.4353  0.4064
12073TIP3    H157634   6.072   5.734  16.858  0.5702  1.8251  0.7800
12073TIP3    H257635   5.945   5.804  16.814 -0.4775  0.4376  1.5775
12074TIP3   OH257636   3.389   0.112  16.925  0.7228 -0.2049  0.4771
12074TIP3    H157637   3.474   0.150  16.949  1.6317 -1.5974 -0.4299
12074TIP3    H257638   3.361   0.162  16.849  0.2370  0.9166  1.3797
12075TIP3   OH257639   3.486   3.364  11.464  0.0467  0.4071  0.2127
12075TIP3    H157640   3.560   3.319  11.504 -1.5339 -0.3216  2.4178
12075TIP3    H257641   3.472   3.442  11.517 -0.3555  0.8920 -0.5886
12076TIP3   OH257642   3.115   1.947   1.319 -0.2956 -0.0012  0.5977
12076TIP3    H157643   3.202   1.956   1.280 -0.4406  0.3058  0.3477
12076TIP3    H257644   3.075   1.875   1.270 -0.4438  0.3243  0.2343
12077TIP3   OH257645   2.360   6.445   5.191 -0.4725 -0.2445 -0.2427
12077TIP3    H157646   2.442   6.419   5.148  0.6814 -0.2723  1.8557
12077TIP3    H257647   2.367   6.406   5.279 -1.7810  1.5269  0.6638
12078TIP3   OH257648   0.453   1.089  17.054  0.3413  0.4815 -0.1717
12078TIP3    H157649   0.480   1.047  17.136  0.4925 -0.4525 -0.6983
12078TIP3    H257650   0.414   1.019  17.003 -1.5168  1.4700 -0.1239
12079TIP3   OH257651   1.900   3.141  15.662  0.7153  0.0819 -0.2732
12079TIP3    H157652   1.907   3.158  15.756 -0.3040  1.5494 -0.4500
12079TIP3    H257653   1.954   3.209  15.622  0.0060  0.3182 -0.8178
12080TIP3   OH257654   2.196   5.059   2.180  0.2685  0.4258 -0.6671
12080TIP3    H157655   2.194   5.000   2.255 -0.7988  2.4278  0.9439
12080TIP3    H257656   2.193   5.002   2.104  3.0870 -1.7506  0.7514
12081TIP3   OH257657   6.670   3.554   4.500 -0.1087 -0.0167  0.1878
12081TIP3    H157658   6.750   3.556   4.552 -0.8884  1.7006  1.3605
12081TIP3    H257659   6.630   3.469   4.521  1.0674 -0.5845  0.1180
12082TIP3   OH257660   2.880   0.433   1.328  0.3616 -0.5398  0.1620
12082TIP3    H157661   2.873   0.357   1.385 -2.1208  1.9720  3.4131
12082TIP3    H257662   2.792   0.445   1.293  0.7724  0.7030 -0.4820
12083TIP3   OH257663   6.570   2.920   3.843  0.3901  0.3796 -0.4046
12083TIP3    H157664   6.531   2.891   3.761 -1.0586  1.0974  0.0225
12083TIP3    H257665   6.594   2.839   3.888 -0.3687 -0.0615 -0.7868
12084TIP3   OH257666   6.063   4.438   0.208 -0.6570 -0.5063 -0.1302
12084TIP3    H157667   6.126   4.506   0.185  0.1660 -1.2226 -0.0329
12084TIP3    H257668   6.054   4.444   0.303 -1.2107  0.0012 -0.2121
12085TIP3   OH257669   5.317   2.620   6.739  0.0010  0.0190 -0.6808
12085TIP3    H157670   5.411   2.623   6.721 -0.1065  3.5315 -0.9051
12085TIP3    H257671   5.275   2.647   6.657 -1.1547 -0.0222 -0.1254
12086TIP3   OH257672   1.875   0.571  13.438  0.5232  0.3426  0.1696
12086TIP3    H157673   1.842   0.494  13.392  1.7651 -1.6975  2.5850
12086TIP3    H257674   1.836   0.565  13.525  3.0439  0.7868  1.3520
12087TIP3   OH257675   6.434   0.132   1.900  0.6830 -0.0648  0.7374
12087TIP3    H157676   6.499   0.195   1.933  0.5481  0.4655 -0.0026
12087TIP3    H257677   6.486   0.058   1.870  0.9055  0.0944  0.7263
12088TIP3   OH257678   3.619   6.458   5.982  0.0036 -0.2873 -0.5052
12088TIP3    H157679   3.530   6.463   6.018  0.8030 -1.1820  1.6672
12088TIP3    H257680   3.658   6.543   6.002  0.6726 -1.0198  1.4466
12089TIP3   OH257681   5.751   4.597   5.688  0.7664 -0.1591 -0.5033
12089TIP3    H157682   5.807   4.674   5.695 -0.5529  0.8006 -0.3970
12089TIP3    H257683   5.809   4.523   5.706  2.1465  0.7678 -1.0633
12090TIP3   OH257684   5.202   4.559  16.312  0.5276 -0.0155 -0.1565
12090TIP3    H157685   5.107   4.572  16.305  0.3726 -0.6328  0.6882
12090TIP3    H257686   5.236   4.645  16.337  0.2248  0.2766 -0.7259
12091TIP3   OH257687   1.796   0.772   6.361 -0.6741 -0.0432  0.5200
12091TIP3    H157688   1.766   0.861   6.345 -3.4062 -0.3818  3.3319
12091TIP3    H257689   1.739   0.718   6.306 -0.5894 -0.2375  0.6241
12092TIP3   OH257690   3.693   6.408  12.756 -0.4963  0.2083  0.5606
12092TIP3    H157691   3.763   6.344  12.750 -0.6801  0.1995 -1.9806
12092TIP3    H257692   3.616   6.363  12.722 -1.1061  1.0654  0.7992
12093TIP3   OH257693   0.920   4.286  16.838 -0.0914 -0.0930 -0.1236
12093TIP3    H157694   0.954   4.285  16.927 -0.6862  1.5345  0.1471
12093TIP3    H257695   0.991   4.322  16.786 -0.3942  0.7167  0.0074
12094TIP3   OH257696   2.510   3.864  13.891  0.0392  0.5662 -0.8657
12094TIP3    H157697   2.482   3.952  13.914  0.7339  0.6812 -0.4568
12094TIP3    H257698   2.565   3.876  13.813 -1.7659  0.2465 -2.2182
12095TIP3   OH257699   2.244   2.430  14.929  0.3624 -0.1756 -0.2557
12095TIP3    H157700   2.244   2.408  15.022 -0.7541 -0.3769 -0.3053
12095TIP3    H257701   2.337   2.430  14.905  0.5905 -1.3143  0.5787
12096TIP3   OH257702   0.775   1.895  16.083  0.6498 -0.2624 -0.7604
12096TIP3    H157703   0.862   1.925  16.109  1.4460 -2.3914 -0.9132
12096TIP3    H257704   0.790   1.811  16.040 -1.5383 -0.9373 -0.2647
12097TIP3   OH257705   3.714   5.969   3.190 -0.0756 -0.1044 -0.0900
12097TIP3    H157706   3.726   6.026   3.266 -0.1189  2.1842 -1.7255
12097TIP3    H257707   3.623   5.942   3.194  0.1751 -0.7615  1.1887
12098TIP3   OH257708   1.720   2.152  13.183  0.6903  0.2524  0.1116
12098TIP3    H157709   1.710   2.214  13.111  2.3651  0.7479  0.2799
12098TIP3    H257710   1.648   2.172  13.243 -0.3372  0.2546 -1.0924
12099TIP3   OH257711   5.488   1.285   3.931  0.1015  0.2065  0.5625
12099TIP3    H157712   5.404   1.275   3.976  0.8477  1.1470  2.1992
12099TIP3    H257713   5.548   1.232   3.982  0.7960  0.6181  0.1745
12100TIP3   OH257714   4.977   6.647  16.576  0.4057 -0.1778  0.2833
12100TIP3    H157715   4.965   6.596  16.656  0.1819 -2.5242 -1.2097
12100TIP3    H257716   4.906   6.619  16.518  1.5860  0.2029 -1.3938
12101TIP3   OH257717   3.892   3.946   3.986 -0.5083 -0.0468  0.4308
12101TIP3    H157718   3.916   3.944   4.079  3.3229 -2.3917 -0.4897
12101TIP3    H257719   3.950   4.012   3.948 -2.8189  1.6934 -0.1665
12102TIP3   OH257720   2.277   2.391   1.012 -0.0817 -0.3231  0.7019
12102TIP3    H157721   2.263   2.379   1.106  0.2782  0.0462  0.8067
12102TIP3    H257722   2.372   2.398   1.003 -0.0790 -0.9205  0.2386
12103TIP3   OH257723   0.111   4.741  15.933 -0.1402 -0.0323 -0.7999
12103TIP3    H157724   0.073   4.798  16.000  1.6004  0.7584 -0.4418
12103TIP3    H257725   0.041   4.726  15.870 -1.4846  0.0926  0.6512
12104TIP3   OH257726   6.113   6.117  12.639  0.0519  0.3449 -0.1871
12104TIP3    H157727   6.119   6.183  12.570 -0.4290  0.7949  0.1910
12104TIP3    H257728   6.030   6.137  12.683  0.0260 -0.3633  0.0808
12105TIP3   OH257729   0.410   1.017   2.366 -0.1218 -0.3212 -0.6137
12105TIP3    H157730   0.433   0.938   2.318  1.4269 -1.4693  1.8899
12105TIP3    H257731   0.491   1.070   2.366 -1.0599  1.1496 -2.0389
12106TIP3   OH257732   3.380   4.445  12.454 -0.2303 -0.2930 -0.1453
12106TIP3    H157733   3.444   4.380  12.484 -2.3038 -1.9775  0.6834
12106TIP3    H257734   3.321   4.458  12.528 -2.3911 -0.6901 -1.7510
12107TIP3   OH257735   2.276   1.856   4.484  0.6039 -0.7799  0.2094
12107TIP3    H157736   2.279   1.948   4.457  0.0519 -0.3423  1.5723
12107TIP3    H257737   2.366   1.836   4.508  0.6813 -0.5251  0.1363
12108TIP3   OH257738   3.563   6.538   5.247  0.1172 -0.3358  0.4589
12108TIP3    H157739   3.556   6.629   5.220 -0.7581 -0.0579  1.5873
12108TIP3    H257740   3.654   6.514   5.228  0.4689  0.8966  0.5620
12109TIP3   OH257741   1.612   2.724  16.821  0.1891 -0.1585  0.1851
12109TIP3    H157742   1.542   2.747  16.760 -0.6804 -0.6578  0.9641
12109TIP3    H257743   1.692   2.727  16.770 -0.2840  1.5080 -0.4623
12110TIP3   OH257744   1.649   3.835   1.874 -0.0649  0.5945  0.5690
12110TIP3    H157745   1.617   3.874   1.955 -0.7219  1.6966 -0.1906
12110TIP3    H257746   1.609   3.889   1.805  1.4996  0.4744 -0.4565
12111TIP3   OH257747   1.773   5.502  14.012 -0.1804 -0.4161  0.3502
12111TIP3    H157748   1.831   5.491  13.936 -1.5283 -1.0497 -0.5983
12111TIP3    H257749   1.699   5.444  13.995 -0.1298 -1.1474  2.5362
12112TIP3   OH257750   2.346   4.720  15.397  0.2030  0.1723 -0.3093
12112TIP3    H157751   2.356   4.788  15.463 -2.8153 -0.4463  0.8847
12112TIP3    H257752   2.266   4.744  15.350 -0.8549 -2.4371  0.0616
12113TIP3   OH257753   5.925   0.923   2.555  0.3636 -0.0684 -0.0938
12113TIP3    H157754   5.891   0.838   2.527 -0.1185 -0.2338  0.9818
12113TIP3    H257755   5.855   0.961   2.607  0.9276  0.6068  0.1793
12114TIP3   OH257756   2.023   3.321   4.032 -0.5645  0.5287  0.3512
12114TIP3    H157757   1.941   3.297   4.074 -1.8841  2.5053 -1.0306
12114TIP3    H257758   2.024   3.270   3.951 -0.6199  0.7978  0.1811
12115TIP3   OH257759   3.379   6.392   3.730  0.7505  0.4516  0.2073
12115TIP3    H157760   3.341   6.310   3.700  0.1142  1.1039 -0.8045
12115TIP3    H257761   3.448   6.411   3.667  1.0097  0.5993  0.5353
12116TIP3   OH257762   6.694   6.387  16.530  0.1393  0.3560  0.2911
12116TIP3    H157763   6.610   6.425  16.557 -0.2094 -0.9392  1.1331
12116TIP3    H257764   6.711   6.425  16.444 -1.4224  0.4891  0.0140
12117TIP3   OH257765   2.230   1.589  16.995  0.6974 -0.0275  0.1366
12117TIP3    H157766   2.152   1.607  17.047  0.5416  1.1812 -0.4989
12117TIP3    H257767   2.294   1.555  17.058 -0.0961 -0.3357  0.7799
12118TIP3   OH257768   3.400   3.599   1.285  0.1742  0.1468  0.5718
12118TIP3    H157769   3.478   3.644   1.318  1.2293 -0.6437 -0.8222
12118TIP3    H257770   3.408   3.510   1.318 -0.0916  0.0340  0.3358
12119TIP3   OH257771   0.754   3.932   5.063  0.0412  0.2822 -0.2851
12119TIP3    H157772   0.821   3.979   5.013  1.5077 -0.8590  0.5323
12119TIP3    H257773   0.801   3.856   5.099 -1.5109 -0.1032  0.9758
12120TIP3   OH257774   1.661   1.810   2.400  0.2393 -0.4476 -0.3364
12120TIP3    H157775   1.658   1.905   2.390  0.3114 -0.7681 -4.0521
12120TIP3    H257776   1.578   1.788   2.442  0.6059  1.3231  1.3575
12121TIP3   OH257777   3.830   2.625   4.984 -0.3429 -0.6679 -0.1418
12121TIP3    H157778   3.909   2.627   5.037  1.8266 -0.2831 -3.2620
12121TIP3    H257779   3.819   2.533   4.960  0.5952 -0.3803 -1.7325
12122TIP3   OH257780   3.793   3.422  16.881  0.3315 -0.5452 -0.7946
12122TIP3    H157781   3.869   3.456  16.835  0.0487 -0.6216 -1.3161
12122TIP3    H257782   3.740   3.499  16.901  0.8080 -0.4326  0.0470
12123TIP3   OH257783   2.275   2.939  11.509  0.6504  0.5244  0.2981
12123TIP3    H157784   2.306   2.989  11.433  1.3534 -0.8279 -0.3372
12123TIP3    H257785   2.222   3.001  11.559 -0.8001  1.1435 -1.9010
12124TIP3   OH257786   5.236   1.375   4.437  0.5082 -0.5854 -0.0939
12124TIP3    H157787   5.274   1.437   4.499  0.5375 -0.7343  0.0367
12124TIP3    H257788   5.142   1.381   4.453  0.5538 -1.0187  0.3357
12125TIP3   OH257789   0.506   2.113   2.975  0.3169  0.3464  0.0986
12125TIP3    H157790   0.451   2.035   2.966 -0.2715  0.3945  2.8328
12125TIP3    H257791   0.453   2.173   3.028  1.4396  1.9372 -0.5538
12126TIP3   OH257792   4.450   5.382  14.086 -0.2359  0.6837 -0.2345
12126TIP3    H157793   4.507   5.416  14.017 -1.6258  1.2593 -1.1395
12126TIP3    H257794   4.378   5.445  14.090 -1.5410 -0.7748 -0.1311
12127TIP3   OH257795   5.714   3.354  11.378 -0.0881 -0.1877 -0.4721
12127TIP3    H157796   5.718   3.414  11.303 -0.3808 -1.4570 -1.5158
12127TIP3    H257797   5.712   3.267  11.339 -2.4166 -0.8048  0.9478
12128TIP3   OH257798   0.955   0.448   4.731  0.7371  0.8946 -0.3709
12128TIP3    H157799   1.013   0.426   4.657  1.0985 -2.1910  0.7579
12128TIP3    H257800   0.867   0.427   4.699  0.6276  1.8648 -0.7305
12129TIP3   OH257801   2.814   5.010  16.875  0.4494  0.5690 -0.2186
12129TIP3    H157802   2.766   4.944  16.826  2.3917 -1.0255 -0.0594
12129TIP3    H257803   2.748   5.052  16.931 -1.0533 -0.2996 -1.3072
12130TIP3   OH257804   6.413   3.790   3.733 -0.2276  0.1755  0.4616
12130TIP3    H157805   6.348   3.829   3.675 -0.2558  1.1184  1.1167
12130TIP3    H257806   6.478   3.859   3.746  1.1076 -0.8704 -0.4764
12131TIP3   OH257807   2.039   2.602   1.238 -0.0008  0.0629  0.1656
12131TIP3    H157808   2.057   2.655   1.160 -0.9341  0.2533  0.0768
12131TIP3    H257809   1.944   2.605   1.248  0.1737  0.5779  1.7008
12132TIP3   OH257810   2.281   2.218   3.550  0.5504 -0.2664  0.2008
12132TIP3    H157811   2.254   2.174   3.631  1.9167 -2.3486 -0.4700
12132TIP3    H257812   2.199   2.233   3.503 -0.0822 -0.5909  1.1799
12133TIP3   OH257813   1.697   0.824   0.397  0.4024 -0.2952 -0.5857
12133TIP3    H157814   1.733   0.846   0.483 -0.3193  1.3711 -0.7008
12133TIP3    H257815   1.711   0.902   0.345  1.3011 -1.4806 -2.1536
12134TIP3   OH257816   5.878   4.432   3.320  0.2765 -0.3808 -0.5544
12134TIP3    H157817   5.885   4.425   3.415 -2.9362 -0.5609 -0.2801
12134TIP3    H257818   5.893   4.343   3.288  1.4315 -0.3050 -0.2257
12135TIP3   OH257819   3.780   6.616  11.522  0.8029 -0.1675  0.3447
12135TIP3    H157820   3.753   6.528  11.496  2.3556  0.0222 -2.0304
12135TIP3    H257821   3.717   6.674  11.479  1.2936 -0.0136 -0.1742
12136TIP3   OH257822   3.013   6.129   0.332 -0.7212 -0.0240 -0.1528
12136TIP3    H157823   3.065   6.124   0.253 -0.5499  0.0006 -0.0408
12136TIP3    H257824   3.003   6.223   0.350 -0.5069 -0.0351  0.0227
12137TIP3   OH257825   6.226   2.180  10.402 -0.2614 -0.3169 -0.4782
12137TIP3    H157826   6.310   2.175  10.448 -0.9399 -0.0136  0.8054
12137TIP3    H257827   6.208   2.273  10.393 -0.9190 -0.3795  0.1137
12138TIP3   OH257828   2.072   3.780  15.796 -0.2838 -0.0831  0.2037
12138TIP3    H157829   2.119   3.808  15.717  0.6115  2.9622  1.7208
12138TIP3    H257830   1.988   3.747  15.764  1.7297 -3.0469 -2.3541
12139TIP3   OH257831   0.002   6.212   1.979 -0.4115  0.0694 -0.0740
12139TIP3    H157832   0.095   6.217   1.999 -0.5917 -0.1275  0.8397
12139TIP3    H257833  -0.019   6.298   1.942  0.1032  0.1616 -0.1586
12140TIP3   OH257834   0.880   6.475  14.417  0.1103 -0.1840  0.7308
12140TIP3    H157835   0.814   6.525  14.464 -0.3202  0.1109 -0.1816
12140TIP3    H257836   0.923   6.539  14.360  0.5048 -0.5710  0.5926
12141TIP3   OH257837   2.874   4.581  12.073 -0.0327  0.0995  0.6473
12141TIP3    H157838   2.784   4.605  12.095  0.9550  1.5102  3.4133
12141TIP3    H257839   2.898   4.515  12.139  0.7292 -0.8106 -0.5193
12142TIP3   OH257840   4.598   3.996   5.878 -0.2716 -0.1750 -0.3999
12142TIP3    H157841   4.684   3.988   5.836  0.1888  1.9283  0.0758
12142TIP3    H257842   4.616   3.990   5.971 -0.8296 -1.1043 -0.3431
12143TIP3   OH257843   1.959   5.802   1.342  0.5715 -0.3004  0.4194
12143TIP3    H157844   2.046   5.830   1.313  0.3668  0.3735  0.4598
12143TIP3    H257845   1.917   5.882   1.372  0.0294 -0.6709  0.6427
12144TIP3   OH257846   1.275   3.539  14.719 -0.1508 -0.3816 -0.7475
12144TIP3    H157847   1.253   3.449  14.693  0.0941 -0.5369 -0.4321
12144TIP3    H257848   1.353   3.529  14.774 -1.4576 -0.2222  1.2148
12145TIP3   OH257849   2.382   4.495   3.781  0.3670 -0.3203 -0.3236
12145TIP3    H157850   2.373   4.576   3.832  1.4815  1.1423 -2.3690
12145TIP3    H257851   2.455   4.449   3.821  0.1010 -0.0351  0.4978
12146TIP3   OH257852   2.336   0.084  12.854 -0.5437  0.2735  0.0297
12146TIP3    H157853   2.351   0.025  12.781  1.2063  0.9144 -0.1377
12146TIP3    H257854   2.414   0.140  12.857 -0.5885  0.2611  2.3542
12147TIP3   OH257855   0.723   0.888  12.076  0.2737  0.0374  0.1880
12147TIP3    H157856   0.727   0.873  11.982 -0.0775 -1.1663  0.3576
12147TIP3    H257857   0.630   0.898  12.095  0.2588 -0.7012  0.5417
12148TIP3   OH257858   5.269   4.645   0.903  0.6289  0.2367  0.2220
12148TIP3    H157859   5.309   4.590   0.970 -0.3485  0.6090  1.1187
12148TIP3    H257860   5.190   4.680   0.944 -0.7348 -0.6315 -1.5704
12149TIP3   OH257861   1.856   1.761  14.808  0.3261 -0.0417  0.2568
12149TIP3    H157862   1.780   1.767  14.866 -1.1566  2.4346 -1.8461
12149TIP3    H257863   1.897   1.848  14.811  0.3181  0.1066 -2.2022
12150TIP3   OH257864   6.703   6.248   2.740 -0.8980 -0.2882  0.7280
12150TIP3    H157865   6.627   6.248   2.682 -1.1434  1.6568  1.0258
12150TIP3    H257866   6.755   6.173   2.711 -3.2544 -2.1058  0.9898
12151TIP3   OH257867   2.038   0.139  16.984  0.0074 -0.3212  0.2889
12151TIP3    H157868   2.041   0.178  16.897  0.4687  0.7280  0.7628
12151TIP3    H257869   1.985   0.200  17.036  0.5328 -0.4476  0.9766
12152TIP3   OH257870   6.392   4.672   2.588 -0.2731 -0.4427  0.2951
12152TIP3    H157871   6.479   4.711   2.600 -0.0899 -1.1867  1.4650
12152TIP3    H257872   6.351   4.726   2.520  0.0166  1.7264  1.7900
12153TIP3   OH257873   4.521   2.815  16.989 -0.4105 -1.0978 -0.0240
12153TIP3    H157874   4.597   2.777  17.033  0.8861  1.2547 -0.0840
12153TIP3    H257875   4.451   2.812  17.053  0.3052 -1.5059  0.7453
12154TIP3   OH257876   1.424   3.972   4.765  0.2437 -0.0318  0.4036
12154TIP3    H157877   1.497   4.033   4.750  0.6742 -0.4738  0.6940
12154TIP3    H257878   1.346   4.028   4.768  0.4613  0.3609 -0.7729
12155TIP3   OH257879   0.212   3.150   1.276  0.1779 -0.7167  0.2422
12155TIP3    H157880   0.136   3.166   1.220  0.0427  1.1541  0.9280
12155TIP3    H257881   0.229   3.235   1.318  3.0226 -0.9333 -0.3706
12156TIP3   OH257882   2.784   4.317  12.122 -0.5842  0.4842  0.1813
12156TIP3    H157883   2.844   4.260  12.170 -2.0876 -0.3090  1.1351
12156TIP3    H257884   2.813   4.310  12.031 -0.3052 -1.2165  0.3933
12157TIP3   OH257885   2.726   6.536   3.800  0.0708  0.0431  0.4584
12157TIP3    H157886   2.807   6.566   3.760  1.1317 -1.4320  1.4236
12157TIP3    H257887   2.674   6.503   3.728  0.6621  0.2501 -0.0696
12158TIP3   OH257888   3.278   6.118   4.925 -0.0822  0.3545  0.4652
12158TIP3    H157889   3.334   6.056   4.877  0.1430  1.2525 -0.4515
12158TIP3    H257890   3.324   6.132   5.008  0.8465  0.7529 -0.1073
12159TIP3   OH257891   6.324   2.733   5.958 -0.6149  0.3251 -0.0325
12159TIP3    H157892   6.239   2.715   5.998 -1.1353  1.5390 -0.5730
12159TIP3    H257893   6.371   2.784   6.024 -1.5129  2.4211 -0.9519
12160TIP3   OH257894   5.085   5.044  13.114  0.2166  0.2300 -0.8999
12160TIP3    H157895   5.172   5.079  13.095  0.8380 -1.7802 -1.9073
12160TIP3    H257896   5.064   4.990  13.038 -2.1883  1.1877 -0.9505
12161TIP3   OH257897   2.423   0.653  11.217 -0.1618  0.2743  0.0685
12161TIP3    H157898   2.462   0.712  11.153  0.8584  1.0168  1.3447
12161TIP3    H257899   2.329   0.670  11.212 -0.0014  0.9952 -0.5750
12162TIP3   OH257900   4.612   2.460   5.919  0.2686 -0.7909 -0.1056
12162TIP3    H157901   4.599   2.515   5.841  1.1235  0.0036  0.3007
12162TIP3    H257902   4.702   2.429   5.912  0.8895  0.5823  1.3484
12163TIP3   OH257903   0.553   6.522   2.737 -0.4421  0.0494  0.0940
12163TIP3    H157904   0.613   6.494   2.807 -0.5564 -0.7890 -0.1395
12163TIP3    H257905   0.501   6.592   2.777  0.2605  0.3425  0.4982
12164TIP3   OH257906   5.316   2.317  13.416  0.0550 -0.0455 -0.1919
12164TIP3    H157907   5.365   2.264  13.479  1.2543  0.6285 -0.5330
12164TIP3    H257908   5.296   2.257  13.344  1.2649 -0.0934 -0.5028
12165TIP3   OH257909   0.088   1.939   2.571 -0.4487 -0.3119 -0.5583
12165TIP3    H157910   0.027   1.866   2.580 -0.1374 -0.5042  0.0756
12165TIP3    H257911   0.032   2.016   2.563 -0.8089 -0.2632  1.9196
12166TIP3   OH257912   3.914   3.405   1.764 -0.4174 -0.0265 -0.1544
12166TIP3    H157913   3.839   3.437   1.714  0.2479 -0.0986 -1.2180
12166TIP3    H257914   3.987   3.461   1.736 -0.2814  0.7336  1.6539
12167TIP3   OH257915   1.749   2.739  13.808  0.2678 -0.2532  0.1864
12167TIP3    H157916   1.690   2.681  13.856  0.3014 -0.1362  0.3737
12167TIP3    H257917   1.832   2.734  13.856  0.7783 -1.3550 -0.7837
12168TIP3   OH257918   3.136   3.951   1.748  0.8949  0.0745 -0.5307
12168TIP3    H157919   3.120   3.989   1.835  0.8458 -0.1722 -0.4327
12168TIP3    H257920   3.169   4.025   1.696  0.9953  0.2061 -0.2833
12169TIP3   OH257921   3.892   1.675   4.262  0.7010  0.5068  0.0149
12169TIP3    H157922   3.851   1.596   4.228  1.2089 -1.1724  3.1455
12169TIP3    H257923   3.985   1.666   4.240  0.3842  1.5031 -1.8689
12170TIP3   OH257924   2.381   0.300   3.296  0.1051  0.0347 -0.1118
12170TIP3    H157925   2.410   0.276   3.384 -0.6573  0.9414  0.3905
12170TIP3    H257926   2.402   0.392   3.288 -0.0632  0.0189 -0.7885
12171TIP3   OH257927   6.401   6.364  15.167 -0.2175  0.0655  0.2633
12171TIP3    H157928   6.377   6.346  15.258 -1.3826 -0.7966 -0.2133
12171TIP3    H257929   6.324   6.340  15.116  0.4261  0.5482 -0.9639
12172TIP3   OH257930   2.271   4.727   2.293  0.0632  0.8668 -0.4391
12172TIP3    H157931   2.195   4.687   2.250 -0.0148  1.1972 -0.6121
12172TIP3    H257932   2.345   4.707   2.236  0.1648  0.2489 -0.0949
12173TIP3   OH257933   6.777   1.880  15.518 -0.5784  0.4538 -0.3672
12173TIP3    H157934   6.695   1.893  15.565  0.3138 -1.7389  1.9106
12173TIP3    H257935   6.752   1.831  15.439 -1.6163  0.9471 -0.3509
12174TIP3   OH257936   3.352   2.052   0.223  0.1591 -1.0816 -0.2502
12174TIP3    H157937   3.404   2.129   0.199 -0.5369 -0.3540  0.5625
12174TIP3    H257938   3.311   2.025   0.141 -0.9088  0.4108 -0.2329
12175TIP3   OH257939   2.056   1.995  16.937 -0.1359 -0.5958  0.1187
12175TIP3    H157940   2.149   1.975  16.926 -0.4015 -1.3790 -0.7393
12175TIP3    H257941   2.041   2.069  16.879 -0.1272 -0.6899 -0.0036
12176TIP3   OH257942   6.301   0.066  15.338  0.2150 -0.3897  0.1800
12176TIP3    H157943   6.308   0.008  15.263 -1.2457  0.0108 -0.2858
12176TIP3    H257944   6.278   0.008  15.411 -0.1894 -0.5365 -0.0621
12177TIP3   OH257945   4.874   5.689  14.669  0.6385 -0.1339  0.1085
12177TIP3    H157946   4.818   5.722  14.739 -1.0835 -1.2693 -0.7007
12177TIP3    H257947   4.860   5.595  14.668  0.2892 -0.0948 -2.0350
12178TIP3   OH257948   2.297   3.356   2.968 -0.4165  0.2645  0.4852
12178TIP3    H157949   2.246   3.276   2.971 -0.2332 -0.0097 -2.4863
12178TIP3    H257950   2.386   3.327   2.949 -0.2663  1.1276 -0.1536
12179TIP3   OH257951   1.850   5.911  16.966 -0.0016  0.2350 -0.1015
12179TIP3    H157952   1.841   5.907  16.871 -0.0558  0.0211 -0.0898
12179TIP3    H257953   1.944   5.919  16.982  0.2062 -1.9201 -0.1060
12180TIP3   OH257954   1.832   1.710   3.207  0.1569  0.5433 -0.2025
12180TIP3    H157955   1.912   1.706   3.260  0.2356 -0.2591 -0.3789
12180TIP3    H257956   1.817   1.804   3.193  0.8196  0.7124  0.2023
12181TIP3   OH257957   2.476   2.879  14.650  0.4356  0.2466 -0.1793
12181TIP3    H157958   2.498   2.821  14.723  1.0974 -0.0972 -0.6469
12181TIP3    H257959   2.519   2.962  14.671 -0.5166  0.5805  0.4933
12182TIP3   OH257960   5.676   0.906   3.340  0.8181 -0.4694  0.0005
12182TIP3    H157961   5.646   0.956   3.264  0.1598  0.4429  0.8440
12182TIP3    H257962   5.620   0.935   3.411  2.0321 -0.6555  1.0449
12183TIP3   OH257963   4.637   0.468  15.260  0.2917  0.1259 -0.4084
12183TIP3    H157964   4.576   0.494  15.329  1.3419 -0.7785  0.8898
12183TIP3    H257965   4.626   0.373  15.253  3.3869 -0.4778  1.7176
12184TIP3   OH257966   2.172   2.866  13.752 -0.3017  0.2376  0.7357
12184TIP3    H157967   2.112   2.869  13.827 -0.0903 -0.8162  0.9515
12184TIP3    H257968   2.205   2.956  13.745  1.8587 -0.2312  3.7039
12185TIP3   OH257969   5.325   6.753  12.862 -0.0174 -0.3543  0.3355
12185TIP3    H157970   5.253   6.761  12.800 -0.0681 -0.6016  0.3646
12185TIP3    H257971   5.307   6.673  12.911  0.7715 -0.9118 -0.2789
12186TIP3   OH257972   1.724   1.273  15.111  0.3096  0.2688 -0.2018
12186TIP3    H157973   1.747   1.306  15.198  2.1373  0.2581 -0.6701
12186TIP3    H257974   1.679   1.190  15.127  1.4110 -0.1501  0.6864
12187TIP3   OH257975   5.732   3.803  15.231  0.3101  0.3037 -0.3143
12187TIP3    H157976   5.723   3.742  15.304  0.3985 -0.2733 -0.7857
12187TIP3    H257977   5.723   3.889  15.271 -0.4366 -0.0345  0.2534
12188TIP3   OH257978   0.625   4.878  14.574 -0.5556 -0.1451  0.7125
12188TIP3    H157979   0.577   4.856  14.494  0.4847 -0.2461  0.1069
12188TIP3    H257980   0.564   4.857  14.644 -0.8947 -1.6461  0.0087
12189TIP3   OH257981   2.172   1.126  15.617  0.3305  0.8840 -0.0405
12189TIP3    H157982   2.086   1.117  15.575 -0.5040 -0.1779  1.8108
12189TIP3    H257983   2.153   1.171  15.700  1.5250  0.4692  0.4671
12190TIP3   OH257984   1.994   4.282   5.051  0.0177 -0.0161 -0.4174
12190TIP3    H157985   1.913   4.334   5.045  0.0227  0.1056  0.4879
12190TIP3    H257986   2.063   4.342   5.023  0.0342  0.5047  0.7252
12191TIP3   OH257987   3.002   4.055   5.167  0.2056 -0.2065 -0.0177
12191TIP3    H157988   3.098   4.051   5.169  0.1995 -0.9257 -0.6016
12191TIP3    H257989   2.976   3.963   5.156 -0.5967 -0.1827  1.6345
12192TIP3   OH257990   2.876   1.164   3.363 -0.3360  0.1933 -0.4528
12192TIP3    H157991   2.904   1.149   3.454 -0.1778 -1.0306 -0.6944
12192TIP3    H257992   2.841   1.253   3.364  0.1006  0.3749  0.7047
12193TIP3   OH257993   1.341   0.741   3.984 -0.1050  0.2082  0.4930
12193TIP3    H157994   1.426   0.729   3.942  0.4823 -1.3697  2.0995
12193TIP3    H257995   1.312   0.827   3.953  1.7864  0.5158 -0.5432
12194TIP3   OH257996   0.230   4.483   6.860 -0.2890 -0.0152 -0.0634
12194TIP3    H157997   0.275   4.421   6.918  1.3457  2.1527  1.0294
12194TIP3    H257998   0.139   4.481   6.890 -0.2369 -1.7575  0.0552
12195TIP3   OH257999   3.215   0.969   2.854 -0.6464  0.0912  0.2310
12195TIP3    H158000   3.305   0.973   2.820 -1.3009 -0.2412 -1.5988
12195TIP3    H258001   3.191   0.877   2.851 -0.9668  0.1476  0.9430
12196TIP3   OH258002   1.329   5.659   2.722  0.3788 -0.5063  0.4356
12196TIP3    H158003   1.277   5.678   2.644  0.2277 -1.6301  0.2591
12196TIP3    H258004   1.392   5.732   2.727  1.0429 -0.9366 -1.2929
12197TIP3   OH258005   3.545   3.896   5.991 -0.6070 -0.1837  0.0569
12197TIP3    H158006   3.532   3.873   5.899  0.4398 -2.0696  0.3475
12197TIP3    H258007   3.638   3.877   6.007 -0.3714  1.6968  1.0863
12198TIP3   OH258008   3.620   4.472   2.500 -0.0517  0.0196 -0.5967
12198TIP3    H158009   3.652   4.504   2.416 -0.7667  2.0940 -0.0919
12198TIP3    H258010   3.540   4.424   2.478 -0.7482  1.3544 -1.0033
12199TIP3   OH258011   4.636   1.542  10.599  0.8877  0.1431 -0.5867
12199TIP3    H158012   4.689   1.483  10.652  0.8745  0.0220 -0.7080
12199TIP3    H258013   4.546   1.510  10.610  0.6759  1.1539  0.6896
12200TIP3   OH258014   1.789   6.030  13.218 -0.1352  0.1633  0.5911
12200TIP3    H158015   1.829   5.946  13.243 -1.9051 -0.8313  0.1930
12200TIP3    H258016   1.828   6.094  13.277  1.1077 -0.9688  1.0308
12201TIP3   OH258017   3.716   5.102   4.714  0.0649  0.1353  0.2126
12201TIP3    H158018   3.639   5.097   4.771 -1.5594  0.3271 -1.9270
12201TIP3    H258019   3.681   5.100   4.625  2.5505  0.0454 -0.8108
12202TIP3   OH258020   0.473   1.861   4.291  0.1361  0.2382 -0.2515
12202TIP3    H158021   0.421   1.936   4.319 -1.6067 -0.8666 -0.4111
12202TIP3    H258022   0.516   1.831   4.371 -0.0962  0.7005  0.0490
12203TIP3   OH258023   2.526   5.639   4.934 -0.0247  0.0054 -0.3043
12203TIP3    H158024   2.599   5.598   4.888  0.8787  0.6274  0.5360
12203TIP3    H258025   2.541   5.618   5.026  0.4979  2.1948  0.1575
12204TIP3   OH258026   5.429   2.352   6.317  0.3429 -0.8785  0.4309
12204TIP3    H158027   5.389   2.349   6.404  2.3527 -1.3953  1.3737
12204TIP3    H258028   5.378   2.417   6.269 -1.2504 -1.1226  1.7566
12205TIP3   OH258029   1.623   0.789   2.448 -0.0759  0.5191  0.0221
12205TIP3    H158030   1.669   0.766   2.529  0.2729 -0.2313 -0.3815
12205TIP3    H258031   1.538   0.821   2.476  0.0969  0.3867  0.6900
12206TIP3   OH258032   6.593   1.452  15.613  0.4842 -0.0873  0.2082
12206TIP3    H158033   6.615   1.497  15.694 -0.9886 -0.8391  1.0379
12206TIP3    H258034   6.672   1.402  15.591  0.6101 -0.5425  1.6301
12207TIP3   OH258035   1.076   2.165  14.998  0.1497 -0.3907  0.5057
12207TIP3    H158036   1.132   2.123  15.064  0.3980  0.9438  1.1771
12207TIP3    H258037   1.029   2.233  15.047 -0.2478  0.1050 -0.5463
12208TIP3   OH258038   1.827   5.619  11.427 -0.2410  0.0909 -0.4694
12208TIP3    H158039   1.803   5.529  11.405 -1.5116  0.6957 -1.5934
12208TIP3    H258040   1.863   5.612  11.516  0.2963 -1.6221 -0.7879
12209TIP3   OH258041   5.024   2.174  15.105 -0.5650  0.0489  0.0457
12209TIP3    H158042   4.961   2.102  15.103  0.5708 -0.9639  0.3202
12209TIP3    H258043   5.016   2.215  15.019  0.6377 -2.0383 -1.0884
12210TIP3   OH258044   5.961   3.239   4.267  0.7216 -0.2039 -0.8243
12210TIP3    H158045   5.872   3.205   4.256  0.2550 -0.2268  2.5393
12210TIP3    H258046   5.961   3.323   4.221 -1.5685  0.5703  0.5002
12211TIP3   OH258047   5.740   3.257   1.037 -0.0791 -0.1132 -0.4257
12211TIP3    H158048   5.728   3.349   1.062  0.8139 -0.3190  0.8318
12211TIP3    H258049   5.829   3.237   1.064  0.4228 -0.7985 -2.5039
12212TIP3   OH258050   1.745   5.062  15.066  0.2026  0.0874  0.0115
12212TIP3    H158051   1.725   5.104  15.150  2.0710  0.6560  0.1865
12212TIP3    H258052   1.744   4.968  15.086  1.7112  0.2462  0.9387
12213TIP3   OH258053   4.216   0.514  15.906 -0.0404  0.0551 -0.0082
12213TIP3    H158054   4.300   0.479  15.878 -0.6811 -0.7597 -0.9866
12213TIP3    H258055   4.232   0.607  15.919  0.6252  0.2256 -1.8502
12214TIP3   OH258056   4.744   6.065   4.763  0.4656 -0.0644 -0.6044
12214TIP3    H158057   4.830   6.089   4.727  0.1009  1.2121 -0.6507
12214TIP3    H258058   4.697   6.148   4.769 -0.1550 -0.5246  1.0552
12215TIP3   OH258059   6.580   5.399  13.138 -0.1398 -0.4310  0.3157
12215TIP3    H158060   6.582   5.488  13.103 -3.1378 -1.1439 -1.8364
12215TIP3    H258061   6.493   5.390  13.176 -0.0587 -2.6107  0.0480
12216TIP3   OH258062   3.124   2.936   2.132  0.0811  0.1183 -0.3930
12216TIP3    H158063   3.176   2.939   2.213  0.6429  0.9764 -0.7775
12216TIP3    H258064   3.184   2.900   2.067 -0.1783  0.0072 -0.5679
12217TIP3   OH258065   2.778   1.416   2.605  0.6105  0.2022  0.2742
12217TIP3    H158066   2.772   1.378   2.517  1.1839 -0.6864  0.6118
12217TIP3    H258067   2.864   1.460   2.606  1.6783 -1.8391  1.1711
12218TIP3   OH258068   1.693   1.849   5.253  0.2507 -0.0134  0.2625
12218TIP3    H158069   1.625   1.851   5.321 -0.4264 -0.6366 -0.3784
12218TIP3    H258070   1.715   1.756   5.244  1.9134  0.2752  1.1641
12219TIP3   OH258071   3.762   2.571   4.296 -0.3010  0.3879  0.2093
12219TIP3    H158072   3.733   2.545   4.209 -1.1312 -0.6036  0.7676
12219TIP3    H258073   3.681   2.590   4.343  0.0735 -0.2651  1.1286
12220TIP3   OH258074   1.481   5.723   0.531 -0.2429 -0.3485  0.3418
12220TIP3    H158075   1.435   5.645   0.562  0.8309 -0.7387  0.9601
12220TIP3    H258076   1.504   5.703   0.441  0.0068 -0.7471  0.4903
12221TIP3   OH258077   6.357   5.313  12.427  0.5669  0.5529 -0.2538
12221TIP3    H158078   6.442   5.351  12.451 -0.0856  0.9090  1.6094
12221TIP3    H258079   6.308   5.310  12.510 -0.9849 -0.2928 -1.1783
12222TIP3   OH258080   3.602   1.574   5.042  0.0595  0.3010 -0.5387
12222TIP3    H158081   3.540   1.503   5.058  1.7174 -0.9325  0.5695
12222TIP3    H258082   3.565   1.622   4.968 -1.5811 -1.1336 -0.6743
12223TIP3   OH258083   6.713   2.107  16.309 -0.0854 -0.2510  0.5976
12223TIP3    H158084   6.723   2.198  16.334  0.6661 -0.5469  1.3757
12223TIP3    H258085   6.768   2.097  16.232 -1.2114  0.2764 -0.2925
12224TIP3   OH258086   0.395   1.771   4.005  0.5348 -0.2644 -0.1841
12224TIP3    H158087   0.404   1.676   3.997  2.1226 -0.2024  0.6350
12224TIP3    H258088   0.449   1.794   4.081 -0.0640  1.2581 -0.1929
12225TIP3   OH258089   0.921   0.013   2.238  0.0153 -0.6023  0.1844
12225TIP3    H158090   0.851   0.007   2.303  0.0327 -1.4401  0.1378
12225TIP3    H258091   0.991   0.060   2.282  0.4505 -2.1167  1.1643
12226TIP3   OH258092   5.195   0.819  12.071 -0.4560 -0.3226  0.1293
12226TIP3    H158093   5.139   0.884  12.028  0.3526  0.9303  0.9446
12226TIP3    H258094   5.180   0.738  12.022 -0.7321  0.7134 -1.5318
12227TIP3   OH258095   4.900   0.422  16.024  0.5414  0.3966  0.0889
12227TIP3    H158096   4.972   0.408  15.962  0.4769 -1.4298  0.4066
12227TIP3    H258097   4.918   0.361  16.096 -1.4719 -0.2901  0.0338
12228TIP3   OH258098   1.273   4.158  15.012 -0.8239 -0.2146 -0.2564
12228TIP3    H158099   1.321   4.213  15.075  1.7552 -2.9490  0.2749
12228TIP3    H258100   1.218   4.102  15.067 -3.0599  1.3762 -0.7805
12229TIP3   OH258101   4.509   2.964  13.918 -0.5274 -0.0062  0.2140
12229TIP3    H158102   4.457   2.944  13.997  2.0594 -1.6460  1.5610
12229TIP3    H258103   4.596   2.985  13.951  0.1433  1.0341 -2.1261
12230TIP3   OH258104   4.590   2.235   4.898 -0.0419  0.1048 -0.0058
12230TIP3    H158105   4.668   2.278   4.935  0.6934 -0.3328 -1.0094
12230TIP3    H258106   4.625   2.159   4.850 -1.0538  0.1048 -0.7651
12231TIP3   OH258107   1.424   1.658  16.844  0.2149  0.4369 -0.5370
12231TIP3    H158108   1.509   1.672  16.887  0.5714 -0.8209 -0.8191
12231TIP3    H258109   1.365   1.633  16.915  0.0317  1.4385 -0.3201
12232TIP3   OH258110   2.468   3.273  13.072 -0.5757  0.0869  0.1488
12232TIP3    H158111   2.481   3.230  12.987 -1.7722  2.6740 -1.4216
12232TIP3    H258112   2.398   3.223  13.114 -0.6567 -0.6250 -0.8200
12233TIP3   OH258113   1.444   5.440  13.612  0.3043  0.4834  0.8012
12233TIP3    H158114   1.375   5.377  13.589  0.8026  0.1605  0.2083
12233TIP3    H258115   1.415   5.476  13.696 -0.1609 -0.2803  0.9794
12234TIP3   OH258116   6.662   3.590   3.069  0.7332 -0.0587  0.1149
12234TIP3    H158117   6.615   3.583   2.986  0.3221 -1.1302  0.4225
12234TIP3    H258118   6.752   3.564   3.047  1.3595  2.5889 -0.5965
12235TIP3   OH258119   6.672   1.351   0.638  0.3181  0.1461 -0.3160
12235TIP3    H158120   6.681   1.256   0.640  1.8297  0.3118  1.2630
12235TIP3    H258121   6.646   1.370   0.548 -0.9678 -1.8334 -0.4007
12236TIP3   OH258122   6.263   0.236   4.490 -0.4369 -0.1918  0.0383
12236TIP3    H158123   6.227   0.189   4.565 -0.3433 -0.6780 -0.2149
12236TIP3    H258124   6.322   0.301   4.527  0.3459 -1.0680  0.3536
12237TIP3   OH258125   0.617   6.183   4.994 -0.4725 -0.1828  0.1281
12237TIP3    H158126   0.595   6.275   5.007 -1.1248 -0.1085 -1.3510
12237TIP3    H258127   0.634   6.175   4.900  1.7344 -1.1294  0.5764
12238TIP3   OH258128   1.385   1.416  12.630  0.2303  0.6493  0.2814
12238TIP3    H158129   1.410   1.353  12.697 -1.4429  0.9378  1.2048
12238TIP3    H258130   1.394   1.369  12.547  0.4059 -0.3412  0.8587
12239TIP3   OH258131   4.785   2.965  12.443  0.2698 -0.1979 -0.3882
12239TIP3    H158132   4.806   2.876  12.415 -0.7437 -0.5420 -0.0535
12239TIP3    H258133   4.690   2.965  12.457  0.4877  0.4717  1.2543
12240TIP3   OH258134   5.608   4.925   4.935  0.5503  0.5878  0.2779
12240TIP3    H158135   5.558   4.959   5.010 -0.0044  0.7256 -0.1568
12240TIP3    H258136   5.552   4.858   4.897 -0.2438  2.2381 -1.5216
12241TIP3   OH258137   2.673   4.476   3.329 -0.3966 -0.1142 -0.2755
12241TIP3    H158138   2.661   4.467   3.424  1.5941  0.0361  0.0295
12241TIP3    H258139   2.702   4.390   3.300  0.5191  0.2438 -0.4626
12242TIP3   OH258140   1.069   5.512   3.103 -0.2285 -0.5654  1.0371
12242TIP3    H158141   1.065   5.598   3.147 -0.5514 -0.3244  0.5413
12242TIP3    H258142   1.159   5.506   3.071 -0.7800  0.5730 -0.8622
12243TIP3   OH258143   3.623   4.901  12.294 -0.2160  0.2627 -0.8310
12243TIP3    H158144   3.546   4.916  12.240  1.1417  1.8086 -2.3898
12243TIP3    H258145   3.589   4.855  12.371 -2.9580  2.3819 -0.6927
12244TIP3   OH258146   1.749   3.684  11.006  0.2602  0.2477 -0.6920
12244TIP3    H158147   1.783   3.773  11.003  1.6413 -0.3152 -3.2058
12244TIP3    H258148   1.699   3.674  10.924 -3.3507  0.0111  1.4307
12245TIP3   OH258149   1.246   3.908  16.173  0.4110 -0.2003 -0.4468
12245TIP3    H158150   1.225   3.824  16.132 -1.8889  0.0591  0.1554
12245TIP3    H258151   1.186   3.970  16.133 -0.8780  0.3282  2.2187
12246TIP3   OH258152   1.766   0.526   1.864  0.5981  0.2523  0.3979
12246TIP3    H158153   1.814   0.444   1.857 -0.8901 -0.6450  0.5354
12246TIP3    H258154   1.816   0.588   1.810  1.0664 -1.0394 -0.6750
12247TIP3   OH258155   0.275   1.012   3.302  0.1745 -0.4965 -0.2261
12247TIP3    H158156   0.222   0.947   3.255  0.9664 -1.8161  0.6947
12247TIP3    H258157   0.363   0.976   3.302  0.8561  1.1128 -0.6582
12248TIP3   OH258158   4.519   1.544  13.991 -0.1626  0.2583  0.1265
12248TIP3    H158159   4.430   1.567  13.964 -0.9564 -2.8067 -0.1358
12248TIP3    H258160   4.574   1.570  13.917 -0.7459  2.6418  0.5022
12249TIP3   OH258161   5.786   4.070   1.274  0.3616  0.1002  0.0395
12249TIP3    H158162   5.729   4.145   1.289  1.0201  0.5291  0.4032
12249TIP3    H258163   5.728   4.003   1.236 -0.1890  0.8464 -0.4451
12250TIP3   OH258164   1.478   2.746   5.031 -0.5646 -0.3101 -0.0782
12250TIP3    H158165   1.486   2.681   4.962 -0.0080 -0.2119 -0.1115
12250TIP3    H258166   1.452   2.826   4.986 -2.2207 -0.7363  0.0818
12251TIP3   OH258167   3.936   5.716   0.101 -0.1103  0.2180  0.0261
12251TIP3    H158168   4.024   5.685   0.081 -0.5335 -0.9823 -0.0140
12251TIP3    H258169   3.888   5.637   0.128 -1.1672  0.8604  0.0553
12252TIP3   OH258170   0.522   1.186  13.609 -0.3294 -0.7054 -0.4673
12252TIP3    H158171   0.459   1.188  13.680  1.5607 -3.0740  1.3777
12252TIP3    H258172   0.506   1.267  13.560 -2.8169  0.1306  1.6169
12253TIP3   OH258173   5.184   5.654   3.407 -0.3877 -0.3471 -0.3723
12253TIP3    H158174   5.174   5.740   3.366  2.6414  0.7064  0.9251
12253TIP3    H258175   5.243   5.606   3.348 -2.4708 -1.7669 -1.3604
12254TIP3   OH258176   3.832   5.038  11.326 -0.1217 -0.6843 -0.0083
12254TIP3    H158177   3.843   4.959  11.378 -2.9679 -0.7005  0.6635
12254TIP3    H258178   3.810   5.106  11.389  1.3534  0.4488 -0.6852
12255TIP3   OH258179   5.202   6.347   1.526  0.2602  0.4468  0.2170
12255TIP3    H158180   5.202   6.253   1.543  1.1209  0.2351 -0.8223
12255TIP3    H258181   5.295   6.367   1.510  0.0150  1.3714 -0.0397
12256TIP3   OH258182   2.723   1.211  16.979  0.3271 -0.2637  0.2076
12256TIP3    H158183   2.638   1.253  16.961  1.6370  2.5627  0.2538
12256TIP3    H258184   2.716   1.125  16.938 -3.1194 -0.7129  1.5401
12257TIP3   OH258185   4.457   4.879  17.117 -0.1281  0.7601 -0.4611
12257TIP3    H158186   4.484   4.890  17.208  0.6066 -0.3435 -0.5324
12257TIP3    H258187   4.365   4.907  17.115 -0.4958 -0.3086  0.8696
12258TIP3   OH258188   3.087   5.146  11.721 -0.5004 -0.4041 -1.0256
12258TIP3    H158189   3.068   5.138  11.815  2.3604 -0.0978 -0.3550
12258TIP3    H258190   3.052   5.231  11.696 -0.9725 -0.3328 -0.1275
12259TIP3   OH258191   1.912   5.506   5.118 -0.4883  0.1332  0.2734
12259TIP3    H158192   1.824   5.540   5.133 -0.2978  0.5999  0.3324
12259TIP3    H258193   1.898   5.414   5.094 -1.0174  0.3091 -0.1033
12260TIP3   OH258194   4.207   1.640  17.173 -0.1494 -0.1371  0.3638
12260TIP3    H158195   4.242   1.669  17.088 -0.9529  1.2156  0.4695
12260TIP3    H258196   4.149   1.711  17.199 -1.7748 -1.6413  0.9203
12261TIP3   OH258197   0.292   1.327   4.895  0.2545  0.3670  0.1627
12261TIP3    H158198   0.264   1.360   4.980  1.1108  1.2275  0.1174
12261TIP3    H258199   0.358   1.390   4.865 -1.7918  1.4537 -2.2648
12262TIP3   OH258200   5.079   2.050  13.536  0.1812  0.0745  0.0590
12262TIP3    H158201   5.045   2.043  13.625 -2.0354  1.8997 -0.6142
12262TIP3    H258202   5.002   2.050  13.480  1.4303  1.1252 -1.7244
12263TIP3   OH258203   3.497   5.216  15.353 -0.2137 -0.0211  0.7201
12263TIP3    H158204   3.482   5.121  15.351 -0.1390 -0.0040 -0.8144
12263TIP3    H258205   3.592   5.225  15.349 -0.2751  0.1447 -0.5326
12264TIP3   OH258206   1.453   4.771   1.537  0.0272  0.2534 -0.6408
12264TIP3    H158207   1.422   4.681   1.528 -0.5219  0.6189 -2.5922
12264TIP3    H258208   1.416   4.800   1.620 -0.3585 -1.1013 -0.3221
12265TIP3   OH258209   6.034   5.582   0.705  0.0713  0.1912 -0.3273
12265TIP3    H158210   6.106   5.520   0.693  0.8040  0.3001  3.1157
12265TIP3    H258211   5.960   5.541   0.660  0.8557 -2.6358  0.8568
12266TIP3   OH258212   6.200   6.425   4.646 -0.2636 -0.0848  0.5309
12266TIP3    H158213   6.195   6.479   4.725 -2.6256 -3.4769  2.8537
12266TIP3    H258214   6.112   6.388   4.637 -0.1371  0.4089 -3.9258
12267TIP3   OH258215   3.005   0.129  13.569  0.0163  0.0901 -0.1705
12267TIP3    H158216   2.934   0.117  13.633 -1.2892 -0.3249 -1.6613
12267TIP3    H258217   3.051   0.045  13.568 -0.4718 -0.1776 -0.3701
12268TIP3   OH258218   3.158   6.583   0.839  0.1368 -0.2431 -0.2312
12268TIP3    H158219   3.186   6.665   0.798  1.3045  0.2255  1.5062
12268TIP3    H258220   3.233   6.554   0.890 -0.9328 -1.4004  0.7065
12269TIP3   OH258221   0.621   1.412  15.212 -0.2755  0.4102 -0.2500
12269TIP3    H158222   0.688   1.412  15.280  1.1580 -1.2791 -1.6231
12269TIP3    H258223   0.568   1.490  15.230  2.1289  1.8429  0.7735
12270TIP3   OH258224   1.018   2.782   2.681 -0.2971  0.1312 -0.2378
12270TIP3    H158225   0.983   2.727   2.612 -1.3230  1.7050 -1.0018
12270TIP3    H258226   1.020   2.726   2.758 -0.8138 -1.1208 -1.1319
12271TIP3   OH258227   1.353   2.210   5.301  0.0801 -0.0618 -0.0697
12271TIP3    H158228   1.379   2.302   5.294  0.1638 -0.1929 -1.6891
12271TIP3    H258229   1.356   2.191   5.394  0.1943  1.5475  0.2613
12272TIP3   OH258230   6.400   5.146   5.621  0.6367  0.1861  0.1593
12272TIP3    H158231   6.410   5.061   5.665 -2.8705 -0.7463 -0.6866
12272TIP3    H258232   6.329   5.189   5.667 -1.4709  0.2176 -2.9328
12273TIP3   OH258233   4.048   1.078  11.222  0.8864 -0.3819  0.7102
12273TIP3    H158234   3.959   1.071  11.188  0.6350  1.7762  0.8635
12273TIP3    H258235   4.046   1.032  11.306 -0.3417  0.5194  1.1810
12274TIP3   OH258236   0.725   0.301   1.161 -0.2391  1.0504 -0.7254
12274TIP3    H158237   0.805   0.316   1.110  0.3072  2.6302  0.5350
12274TIP3    H258238   0.663   0.366   1.128 -0.8584  0.1185 -1.3987
12275TIP3   OH258239   3.324   3.195   2.151 -0.0817 -0.2925  0.3368
12275TIP3    H158240   3.288   3.254   2.217  1.0454  1.0652 -0.2166
12275TIP3    H258241   3.295   3.108   2.177 -3.6595  0.7350 -0.0644
12276TIP3   OH258242   0.089   6.020  15.069 -0.4949  0.4888 -0.1975
12276TIP3    H158243  -0.007   6.026  15.063 -0.6223 -0.7743  0.3778
12276TIP3    H258244   0.105   5.940  15.120  0.9528 -2.5052 -4.9725
12277TIP3   OH258245   4.833   6.705   3.907  0.0237 -0.2829  0.1213
12277TIP3    H158246   4.745   6.722   3.872 -0.6093 -0.1244  1.7488
12277TIP3    H258247   4.862   6.626   3.862 -1.1982 -0.6869  0.0202
12278TIP3   OH258248   6.376   2.328   4.172  0.0263  0.3447  0.0083
12278TIP3    H158249   6.301   2.386   4.181 -0.4273  0.1636 -2.3108
12278TIP3    H258250   6.357   2.274   4.095  1.8779 -0.6993  0.2234
12279TIP3   OH258251   3.188   4.634   6.253 -0.1232 -0.5984 -0.5036
12279TIP3    H158252   3.151   4.550   6.279 -1.0105 -0.0297  0.1111
12279TIP3    H258253   3.195   4.630   6.158 -1.7527 -0.7278 -0.6219
12280TIP3   OH258254   2.674   6.437  16.421  0.0991 -0.8536 -0.0941
12280TIP3    H158255   2.621   6.431  16.342 -1.5548 -0.6965  0.9791
12280TIP3    H258256   2.627   6.386  16.487  1.8213 -1.6054  0.6106
12281TIP3   OH258257   1.887   0.614   5.620 -0.8107  0.0443  0.3037
12281TIP3    H158258   1.906   0.686   5.560 -0.4047 -0.1059  0.2540
12281TIP3    H258259   1.912   0.535   5.573 -0.5542 -0.0796  0.6393
12282TIP3   OH258260   0.781   2.433  16.973 -0.2262  0.1449 -0.2957
12282TIP3    H158261   0.774   2.337  16.971 -0.0645  0.0140  3.0713
12282TIP3    H258262   0.698   2.463  16.936 -0.5138 -1.3058 -0.8775
12283TIP3   OH258263   5.543   2.873  14.179  0.3894 -0.3932  0.4096
12283TIP3    H158264   5.630   2.836  14.162  0.8641  0.7908  0.1967
12283TIP3    H258265   5.559   2.967  14.193 -0.7419 -0.3215  1.3119
12284TIP3   OH258266   2.819   2.019  14.555  0.2906  0.4265  0.6830
12284TIP3    H158267   2.837   1.927  14.536 -0.2766  0.1881  1.2581
12284TIP3    H258268   2.902   2.064  14.540  0.6726 -0.2385  0.7754
12285TIP3   OH258269   3.753   3.956  17.015 -0.6136 -0.1025  0.0915
12285TIP3    H158270   3.667   3.934  16.978 -0.4629  0.1703 -0.4171
12285TIP3    H258271   3.762   4.050  17.001  0.1104 -0.2700 -0.5583
12286TIP3   OH258272   4.062   0.890   4.934  0.1472 -0.0267  0.5504
12286TIP3    H158273   4.053   0.985   4.941  1.1356 -0.0232  2.0399
12286TIP3    H258274   4.088   0.862   5.022  2.7684 -1.3211 -0.5888
12287TIP3   OH258275   2.934   5.787  16.348 -0.6183  0.2527  1.1815
12287TIP3    H158276   2.839   5.796  16.361 -0.6967 -1.6602  2.0923
12287TIP3    H258277   2.945   5.793  16.253 -1.9527 -1.7695  0.8527
12288TIP3   OH258278   0.908   1.221   4.702  0.1572  0.7544  0.1031
12288TIP3    H158279   0.899   1.213   4.797  2.0114  0.6979  0.2833
12288TIP3    H258280   0.849   1.292   4.678 -0.8739  0.2802  1.1882
12289TIP3   OH258281   3.394   5.348  14.648 -0.5356 -0.2761 -0.0132
12289TIP3    H158282   3.353   5.330  14.733 -0.4490  0.2271  0.1376
12289TIP3    H258283   3.476   5.298  14.650 -0.6456 -0.4547  0.0995
12290TIP3   OH258284   1.013   4.018  13.376 -0.8161 -0.4582 -0.1373
12290TIP3    H158285   1.105   4.007  13.350 -0.5822 -0.2089  0.5791
12290TIP3    H258286   0.975   4.072  13.307 -0.2974 -0.1266 -0.1697
12291TIP3   OH258287   1.638   2.256  13.748 -0.0105 -0.3926 -0.3083
12291TIP3    H158288   1.612   2.341  13.784  0.2031  0.1140 -1.3368
12291TIP3    H258289   1.599   2.192  13.808 -1.2443  0.4032 -0.2416
12292TIP3   OH258290   6.240   3.400   2.935  0.6136  0.1444 -0.0014
12292TIP3    H158291   6.295   3.472   2.906  0.0696 -0.0346 -1.5282
12292TIP3    H258292   6.190   3.374   2.857 -0.7635 -0.4739  1.0523
12293TIP3   OH258293   5.713   3.040  13.095 -0.0042  0.5485  0.5885
12293TIP3    H158294   5.758   2.989  13.163  0.4896  0.3846  0.1463
12293TIP3    H258295   5.704   3.128  13.133  0.2280  0.4471  0.8837
12294TIP3   OH258296   0.439   3.905   2.755  0.1223  0.8061  0.3975
12294TIP3    H158297   0.444   3.990   2.798 -0.0209  0.6209  0.7785
12294TIP3    H258298   0.523   3.864   2.771  0.4863  1.1938 -0.4570
12295TIP3   OH258299   0.647   6.361  14.800 -0.1796  0.3432  0.1660
12295TIP3    H158300   0.710   6.414  14.849 -0.8411 -0.9804  2.5209
12295TIP3    H258301   0.694   6.281  14.779 -0.6016 -0.0522  0.6932
12296TIP3   OH258302   3.371   3.773   0.852  0.7848  0.1497  0.2946
12296TIP3    H158303   3.458   3.810   0.869  1.3265 -0.4820 -1.0313
12296TIP3    H258304   3.389   3.686   0.815 -0.4178  0.0176  0.0042
12297TIP3   OH258305   5.605   3.741  11.579  0.3258 -0.3879  0.6969
12297TIP3    H158306   5.680   3.682  11.585  0.6092  0.0729  1.7594
12297TIP3    H258307   5.643   3.828  11.574 -0.1456 -0.1362  1.4755
12298TIP3   OH258308   1.791   2.029   2.771 -0.1898  0.1043 -0.3335
12298TIP3    H158309   1.876   1.993   2.798 -0.4059 -0.9200 -0.9821
12298TIP3    H258310   1.798   2.123   2.789  1.8252  0.3652 -2.2149
12299TIP3   OH258311   5.250   0.891  12.852  0.6699  0.0819  0.4775
12299TIP3    H158312   5.344   0.874  12.856  0.3194 -1.8933  0.7201
12299TIP3    H258313   5.214   0.852  12.931 -0.6351 -1.1509 -0.6942
12300TIP3   OH258314   4.104   3.489  12.421 -0.5372  0.4132 -0.0518
12300TIP3    H158315   4.131   3.423  12.485  0.3481  0.7002 -0.1325
12300TIP3    H258316   4.169   3.558  12.429 -0.9934  0.9015 -0.5598
12301TIP3   OH258317   4.374   4.588   1.091  0.1279 -0.2099  0.0728
12301TIP3    H158318   4.299   4.622   1.139 -1.7574 -1.9556 -1.5218
12301TIP3    H258319   4.427   4.665   1.070 -0.3987  0.8676  2.5355
12302TIP3   OH258320   4.601   1.818   2.570  0.3446 -0.3951  0.2060
12302TIP3    H158321   4.583   1.892   2.628  0.0587 -0.8722  0.7384
12302TIP3    H258322   4.550   1.836   2.491 -0.0583 -0.2317  0.5029
12303TIP3   OH258323   4.116   0.450   0.710  0.2314  0.2748 -0.2842
12303TIP3    H158324   4.031   0.480   0.742 -0.2847 -0.3270 -1.0746
12303TIP3    H258325   4.095   0.389   0.638  1.3335  0.6201 -0.9145
12304TIP3   OH258326   4.087   5.468   3.486 -0.7390 -0.2052 -0.1973
12304TIP3    H158327   4.141   5.544   3.468 -0.6953 -0.1668  0.0819
12304TIP3    H258328   4.102   5.450   3.579 -2.6589  0.9596  0.3760
12305TIP3   OH258329   1.498   3.585   1.948 -0.1711  0.2879 -0.0175
12305TIP3    H158330   1.422   3.528   1.944  0.9549 -1.3258  0.9354
12305TIP3    H258331   1.479   3.647   2.018  0.4505 -1.7175  1.9544
12306TIP3   OH258332   0.702   3.663  14.211 -0.1052  0.2595  0.2959
12306TIP3    H158333   0.730   3.740  14.261  0.5331  1.0520 -1.2424
12306TIP3    H258334   0.618   3.689  14.172 -0.8601 -0.5447  1.3635
12307TIP3   OH258335   2.911   4.686  14.810 -0.5741  0.0521 -0.0615
12307TIP3    H158336   2.911   4.597  14.775  0.2640  0.0137  0.0315
12307TIP3    H258337   2.821   4.717  14.798 -0.6471 -0.4901 -0.9001
12308TIP3   OH258338   4.525   0.465   3.011  0.4778  0.2245 -0.1995
12308TIP3    H158339   4.431   0.454   2.997  0.7344 -1.1615 -0.8725
12308TIP3    H258340   4.545   0.413   3.089  0.3693  2.0548  1.0945
12309TIP3   OH258341   3.266   4.500  16.791  0.0948 -0.0924 -0.1520
12309TIP3    H158342   3.216   4.570  16.750 -0.5380 -0.5651 -0.1996
12309TIP3    H258343   3.211   4.422  16.781  0.6620 -0.5374  0.1492
12310TIP3   OH258344   2.406   1.282   2.524 -0.1026 -0.3603 -0.8857
12310TIP3    H158345   2.369   1.368   2.503 -0.7249 -0.8389 -1.8052
12310TIP3    H258346   2.369   1.261   2.610 -3.0720 -1.4080 -2.3478
12311TIP3   OH258347   5.095   3.472  15.252 -0.4954 -0.2592 -0.8326
12311TIP3    H158348   5.182   3.510  15.255 -0.2093 -0.8635 -1.3713
12311TIP3    H258349   5.049   3.523  15.185 -1.6604  2.3138  1.7848
12312TIP3   OH258350   5.574   6.637   5.068  0.2366  0.1933  0.0869
12312TIP3    H158351   5.653   6.685   5.092  0.2141 -0.1217  0.8193
12312TIP3    H258352   5.597   6.545   5.080  0.4721 -0.0267 -1.8957
12313TIP3   OH258353   2.429   3.076  16.255 -0.0617  0.3718  0.6340
12313TIP3    H158354   2.422   3.055  16.348 -0.0581 -0.5279  0.4287
12313TIP3    H258355   2.506   3.133  16.249  0.0379  0.2894  1.1568
12314TIP3   OH258356   4.429   4.299   1.773 -0.1554 -0.1195  0.3776
12314TIP3    H158357   4.366   4.319   1.842  0.0540  0.3696  0.4258
12314TIP3    H258358   4.489   4.373   1.772 -1.6835  1.1514 -2.0824
12315TIP3   OH258359   5.865   5.858   5.044 -0.2957 -0.2482  0.3848
12315TIP3    H158360   5.838   5.811   5.123 -1.2214 -0.7026 -0.1891
12315TIP3    H258361   5.809   5.936   5.042 -0.7796 -0.6015 -0.1919
12316TIP3   OH258362   1.536   4.142  13.726 -0.3767  0.3813 -0.0205
12316TIP3    H158363   1.461   4.117  13.781  1.2134 -1.7193  1.2974
12316TIP3    H258364   1.515   4.107  13.640 -1.8188  1.5813 -0.1673
12317TIP3   OH258365   0.201   6.403   3.617 -0.2451  0.1264 -0.2773
12317TIP3    H158366   0.143   6.331   3.593 -0.5524  0.4874 -0.6332
12317TIP3    H258367   0.149   6.482   3.602 -0.3996  0.3750  1.4896
12318TIP3   OH258368   3.691   3.440   1.040 -0.2673  0.6487 -0.4001
12318TIP3    H158369   3.690   3.485   0.955 -0.7036 -0.1217 -0.8064
12318TIP3    H258370   3.773   3.469   1.081 -0.4555  1.6806 -0.7230
12319TIP3   OH258371   6.399   2.932   1.076 -0.2220 -0.5689 -0.2741
12319TIP3    H158372   6.337   2.873   1.119  0.8969 -1.1579  0.5549
12319TIP3    H258373   6.460   2.958   1.145 -0.9967  2.0086 -0.4851
12320TIP3   OH258374   0.175   3.871  15.932 -0.5142  0.0326 -0.5875
12320TIP3    H158375   0.124   3.799  15.896  1.3662 -0.4583 -2.4033
12320TIP3    H258376   0.174   3.938  15.864  0.4383  0.3992 -0.2584
12321TIP3   OH258377   4.676   5.058  12.820 -0.7730 -0.0782  0.4187
12321TIP3    H158378   4.660   5.129  12.883  2.6005  1.6883 -0.5954
12321TIP3    H258379   4.733   4.997  12.867 -1.3600 -0.6753  0.3517
12322TIP3   OH258380   2.733   1.114   6.291 -0.1706  0.2830  0.7130
12322TIP3    H158381   2.761   1.180   6.227  0.7551  0.4122  1.2333
12322TIP3    H258382   2.756   1.153   6.376  0.2986 -0.6600  1.0313
12323TIP3   OH258383   0.416   2.614  16.503  0.0227 -0.0801 -0.7685
12323TIP3    H158384   0.438   2.532  16.547  0.3348 -0.6481 -1.9596
12323TIP3    H258385   0.321   2.611  16.492 -0.0358 -0.0127 -0.2982
12324TIP3   OH258386   2.333   5.720  15.606 -0.4297  0.3047  0.4137
12324TIP3    H158387   2.257   5.709  15.549  0.8617 -1.6391 -1.0126
12324TIP3    H258388   2.298   5.714  15.694 -1.7998 -1.7452 -0.2361
12325TIP3   OH258389   5.795   5.904  12.150 -0.2611  0.0077  0.0396
12325TIP3    H158390   5.868   5.852  12.183 -1.1628 -0.6212  1.0664
12325TIP3    H258391   5.718   5.851  12.169 -1.0080  0.7728 -0.8298
12326TIP3   OH258392   5.220   4.345   5.502 -0.1788  0.3796 -0.1565
12326TIP3    H158393   5.280   4.322   5.430  1.4269 -0.1999  1.3274
12326TIP3    H258394   5.215   4.265   5.554 -1.9839  0.5457 -0.0514
12327TIP3   OH258395   1.467   0.515  14.352 -0.3397 -0.1031 -1.3365
12327TIP3    H158396   1.509   0.482  14.432 -1.1876 -1.4484 -1.4280
12327TIP3    H258397   1.375   0.495  14.364 -0.8763  2.1681 -1.4643
12328TIP3   OH258398   2.010   0.685   2.591  0.0050  0.4123  0.2947
12328TIP3    H158399   2.074   0.677   2.520 -0.1157 -2.3026  0.4662
12328TIP3    H258400   2.039   0.622   2.656 -0.6633  1.9305  2.1058
12329TIP3   OH258401   4.584   5.085   3.396 -0.2749 -0.0302  0.8877
12329TIP3    H158402   4.531   5.162   3.416  1.2848  0.7483  2.2428
12329TIP3    H258403   4.647   5.081   3.468  2.1698 -0.2795 -1.2020
12330TIP3   OH258404   6.159   5.544  13.054 -0.0152 -0.9039  0.2619
12330TIP3    H158405   6.191   5.580  12.971  1.7225 -0.1066  1.2609
12330TIP3    H258406   6.064   5.553  13.048  0.2260  1.6749 -0.5115
12331TIP3   OH258407   1.751   2.938   6.376 -0.1562 -0.0654  0.5601
12331TIP3    H158408   1.710   3.006   6.323 -1.1826 -0.7880  0.4275
12331TIP3    H258409   1.756   2.975   6.464  0.1562  0.5449  0.2858
12332TIP3   OH258410   4.955   4.830  16.520 -0.0595 -0.4610 -0.3866
12332TIP3    H158411   5.036   4.821  16.570  0.9681 -1.6573 -2.2052
12332TIP3    H258412   4.917   4.742  16.521 -0.7581 -0.1643 -0.5103
12333TIP3   OH258413   3.084   2.592   5.095 -0.2227 -0.3802 -0.4238
12333TIP3    H158414   3.082   2.513   5.040 -1.1073  0.2331 -1.2776
12333TIP3    H258415   3.014   2.647   5.060 -0.3517  0.2968  0.9089
12334TIP3   OH258416   2.720   3.352  13.182 -0.3024  0.0296 -0.7785
12334TIP3    H158417   2.751   3.265  13.157 -0.9073  0.0195 -1.5061
12334TIP3    H258418   2.626   3.352  13.162 -0.2899  0.8873 -0.8985
12335TIP3   OH258419   5.405   6.133  17.070 -0.2957 -0.1288  0.2091
12335TIP3    H158420   5.470   6.117  17.138  1.1387  0.0668 -1.1061
12335TIP3    H258421   5.331   6.172  17.117  0.8828  0.4904  1.5942
12336TIP3   OH258422   3.754   6.358   4.809  0.1630 -0.3322  0.3611
12336TIP3    H158423   3.716   6.272   4.795  0.6417 -0.3820 -0.6948
12336TIP3    H258424   3.788   6.384   4.723  4.2222 -1.1087  1.5983
12337TIP3   OH258425   4.124   4.745   5.943 -0.0268  0.3246  0.4309
12337TIP3    H158426   4.114   4.756   5.848  3.0724  0.5547  0.0522
12337TIP3    H258427   4.087   4.658   5.961  0.0479 -0.0470 -1.1272
12338TIP3   OH258428   2.204   6.046   2.521 -0.3799 -0.0899  0.2720
12338TIP3    H158429   2.136   6.103   2.556 -0.9835 -0.8752  0.3906
12338TIP3    H258430   2.243   6.006   2.599  0.9979  1.2224  0.2798
12339TIP3   OH258431   5.695   5.216  16.527 -0.2812 -0.1143 -0.1749
12339TIP3    H158432   5.684   5.238  16.620 -0.6586 -1.0560  0.0196
12339TIP3    H258433   5.744   5.289  16.490  3.6796 -1.6488  1.6899
12340TIP3   OH258434   3.014   0.970   1.531  0.2842 -0.1652  0.5124
12340TIP3    H158435   3.005   0.998   1.440 -0.3942  2.1504  1.2607
12340TIP3    H258436   2.946   0.904   1.544 -1.7540  1.8281  0.2151
12341TIP3   OH258437   1.803   3.181   0.028 -0.5383  0.5543 -0.1859
12341TIP3    H158438   1.720   3.147   0.062 -1.7410  1.7484 -1.8404
12341TIP3    H258439   1.808   3.145  -0.061  0.0569  1.5725 -0.5706
12342TIP3   OH258440   3.833   4.606  13.442  0.5602 -0.3163  0.3173
12342TIP3    H158441   3.893   4.532  13.432  0.9609  0.1453 -0.7972
12342TIP3    H258442   3.759   4.583  13.385 -0.5793 -1.1347  2.0976
12343TIP3   OH258443   3.543   4.827  14.751  0.3780  0.2094 -0.2005
12343TIP3    H158444   3.451   4.800  14.748  0.3340  0.1742  1.3737
12343TIP3    H258445   3.573   4.800  14.837  1.5247  1.3703 -0.2312
12344TIP3   OH258446   3.027   6.553   4.806  0.9434  0.3324 -0.1715
12344TIP3    H158447   2.964   6.617   4.840 -0.6752 -1.1731 -0.2227
12344TIP3    H258448   3.006   6.472   4.853  1.3424 -0.7656 -1.8265
12345TIP3   OH258449   2.214   6.625   3.774  0.3002  0.4058  0.2991
12345TIP3    H158450   2.284   6.560   3.765 -0.2418 -0.2285  0.5868
12345TIP3    H258451   2.188   6.618   3.866  0.6453  1.4507  0.4757
12346TIP3   OH258452   4.257   1.593  13.949 -0.0925  0.4084  0.8625
12346TIP3    H158453   4.227   1.568  13.861 -0.6996  1.5731  0.7270
12346TIP3    H258454   4.207   1.537  14.008  0.5442 -0.6008  0.4555
12347TIP3   OH258455   6.249   6.591   3.762  0.1646  0.7020  0.2121
12347TIP3    H158456   6.285   6.671   3.801 -0.4522  0.5681  1.0561
12347TIP3    H258457   6.163   6.582   3.801 -0.0460 -0.0004 -0.4137
12348TIP3   OH258458   4.874   5.491  14.358 -0.0641 -0.3110  0.0821
12348TIP3    H158459   4.789   5.533  14.372 -1.0007 -1.8433 -0.7579
12348TIP3    H258460   4.887   5.438  14.436  0.4237  0.4104  0.4920
12349TIP3   OH258461   6.372   2.366  12.139  0.4736 -0.3262 -0.2990
12349TIP3    H158462   6.282   2.364  12.172  0.4046 -3.1394 -0.5107
12349TIP3    H258463   6.417   2.428  12.196 -1.6509  1.4242 -0.4294
12350TIP3   OH258464   2.910   4.343  11.664 -0.3498 -0.7579 -0.1736
12350TIP3    H158465   2.836   4.298  11.625 -0.7838  0.5469 -0.8810
12350TIP3    H258466   2.921   4.422  11.611  0.8358 -0.3864  0.6069
12351TIP3   OH258467   2.575   0.974  12.008 -0.9526 -0.4401  0.0267
12351TIP3    H158468   2.645   0.988  11.944  0.2549  0.1336  1.4253
12351TIP3    H258469   2.602   0.895  12.056 -1.7640 -0.7819 -0.0787
12352TIP3   OH258470   0.138   4.105   0.971 -0.5180  0.1651 -0.1074
12352TIP3    H158471   0.099   4.192   0.980 -1.6972 -0.3113 -0.4685
12352TIP3    H258472   0.063   4.047   0.954  0.4193 -0.6842 -1.4001
12353TIP3   OH258473   4.010   2.185  16.108 -0.4482 -0.2598  0.8131
12353TIP3    H158474   3.985   2.161  16.197 -0.8918 -0.1765  0.7123
12353TIP3    H258475   3.943   2.247  16.080  0.1063  0.2868  0.6862
12354TIP3   OH258476   4.471   4.548   4.891 -0.0531 -0.0220  0.1946
12354TIP3    H158477   4.489   4.555   4.797  1.2808 -0.9210  0.3764
12354TIP3    H258478   4.552   4.516   4.929 -0.6905  0.0179  1.6229
12355TIP3   OH258479   0.288   0.762  10.877 -0.1757 -0.3647  0.6123
12355TIP3    H158480   0.343   0.705  10.821 -0.8578 -0.0230 -0.4139
12355TIP3    H258481   0.288   0.718  10.962 -0.3637 -1.7034 -0.0604
12356TIP3   OH258482   0.865   4.636   3.523  0.0028 -0.6917 -0.1195
12356TIP3    H158483   0.812   4.614   3.600 -0.3111 -0.1593 -0.1809
12356TIP3    H258484   0.802   4.643   3.452  0.3393 -1.5680 -0.5115
12357TIP3   OH258485   6.702   6.572   0.612 -0.0765 -0.1727  0.6487
12357TIP3    H158486   6.788   6.594   0.649  0.3217 -1.8046  0.7432
12357TIP3    H258487   6.721   6.501   0.550 -1.4474 -0.9765  1.1377
12358TIP3   OH258488   6.321   1.824  17.127 -0.1192  0.0615  0.2788
12358TIP3    H158489   6.236   1.844  17.166 -1.5032 -1.5392 -1.8045
12358TIP3    H258490   6.303   1.756  17.063  2.6621  0.0902 -0.6236
12359TIP3   OH258491   3.259   3.775  13.805 -0.0918 -0.0053  0.0208
12359TIP3    H158492   3.253   3.804  13.896 -1.1170 -0.5202  0.1321
12359TIP3    H258493   3.265   3.856  13.754 -2.2824  0.4082  0.3674
12360TIP3   OH258494   3.944   0.364   2.136  0.2849 -0.1858  0.3317
12360TIP3    H158495   3.980   0.446   2.101  0.8016  0.1357  1.6045
12360TIP3    H258496   4.015   0.326   2.187  0.3889 -1.9585 -1.0975
12361TIP3   OH258497   2.851   1.950  15.037  0.1267 -0.1082 -0.5366
12361TIP3    H158498   2.883   1.892  15.106 -0.0045  1.0706  0.5240
12361TIP3    H258499   2.853   2.038  15.075 -1.4727  0.3715 -1.4826
12362TIP3   OH258500   5.282   1.169   1.968  0.2872  0.2638 -0.7784
12362TIP3    H158501   5.286   1.256   1.927 -0.1620  0.0013 -1.3930
12362TIP3    H258502   5.192   1.161   1.998  0.6848  0.5610  0.5157
12363TIP3   OH258503   5.843   0.395  13.689  0.2520  0.0048 -0.3189
12363TIP3    H158504   5.750   0.415  13.691  0.0835 -0.9311  1.2339
12363TIP3    H258505   5.849   0.309  13.649  0.4297 -0.1143 -0.0360
12364TIP3   OH258506   6.107   1.356   1.726 -0.4666  0.0179 -0.0648
12364TIP3    H158507   6.111   1.294   1.799 -0.7621 -0.1537 -0.1922
12364TIP3    H258508   6.190   1.344   1.679 -1.2211 -1.4723 -1.0573
12365TIP3   OH258509   3.683   1.399  12.607 -0.3323  0.1453  0.3628
12365TIP3    H158510   3.686   1.493  12.626  1.3490  0.4380 -1.2662
12365TIP3    H258511   3.667   1.358  12.692 -0.0415  1.8416  1.2551
12366TIP3   OH258512   0.310   1.062   0.585 -0.0529  0.1989 -0.3025
12366TIP3    H158513   0.277   0.975   0.562 -0.5227  0.7130 -1.6397
12366TIP3    H258514   0.405   1.054   0.577 -0.1487  0.0729 -1.4130
12367TIP3   OH258515   5.288   6.459  15.267  0.5605 -0.3508  0.6285
12367TIP3    H158516   5.246   6.478  15.183 -0.0888 -0.9793  0.8082
12367TIP3    H258517   5.216   6.436  15.325  1.2264 -2.5278  0.6354
12368TIP3   OH258518   0.323   6.191   1.898  0.0041 -0.0217  0.1185
12368TIP3    H158519   0.400   6.133   1.898 -0.0885 -0.1529 -0.9306
12368TIP3    H258520   0.273   6.164   1.821 -1.1613 -0.0162  0.8596
12369TIP3   OH258521   4.699   4.245   2.622  0.0618 -0.2371  0.1979
12369TIP3    H158522   4.734   4.318   2.674 -0.1025 -0.2613  0.3410
12369TIP3    H258523   4.659   4.287   2.546  0.1272 -0.1899  0.1897
12370TIP3   OH258524   1.071   3.414   2.561 -0.3364 -0.2938  0.9086
12370TIP3    H158525   1.027   3.334   2.590 -1.0340 -0.0914  0.4264
12370TIP3    H258526   1.162   3.403   2.589 -0.8279 -0.4130  2.5435
12371TIP3   OH258527   0.085   2.985   5.704  0.1831  0.2754 -0.2276
12371TIP3    H158528   0.110   2.893   5.704 -1.7674 -0.2719 -0.9841
12371TIP3    H258529   0.051   3.001   5.792  0.2246  0.2085 -0.1989
12372TIP3   OH258530   2.030   2.920   4.551 -0.0174 -0.1393 -0.4147
12372TIP3    H158531   1.958   2.866   4.516 -1.0035 -0.0444  1.4153
12372TIP3    H258532   2.017   3.006   4.511  0.1364 -0.5965 -1.4688
12373TIP3   OH258533   5.931   1.551   3.287 -0.2482 -0.5433  0.5382
12373TIP3    H158534   5.957   1.490   3.218  0.4417  0.4425 -0.0781
12373TIP3    H258535   6.010   1.564   3.339 -0.6856 -1.0337  1.3339
12374TIP3   OH258536   0.025   3.291   3.284  0.5739  0.2199 -0.6889
12374TIP3    H158537  -0.010   3.213   3.327  2.2582 -0.3456 -0.3142
12374TIP3    H258538   0.031   3.357   3.354  0.7761  0.1464 -0.6376
12375TIP3   OH258539   0.620   3.460  17.176 -0.1211  0.4259 -0.2187
12375TIP3    H158540   0.613   3.369  17.205  1.1215  0.2711 -0.4091
12375TIP3    H258541   0.713   3.481  17.183 -0.2002  1.2442 -1.5249
12376TIP3   OH258542   3.011   2.982  13.531  0.3828 -0.6100 -0.3159
12376TIP3    H158543   2.942   2.965  13.594 -0.8948 -0.0325 -1.5288
12376TIP3    H258544   3.078   2.916  13.549 -1.5558 -2.7089 -0.6873
12377TIP3   OH258545   0.733   1.020  13.681 -0.2423 -0.4637 -0.0179
12377TIP3    H158546   0.663   1.085  13.671 -1.2602 -1.4098  0.8781
12377TIP3    H258547   0.770   1.037  13.768 -0.5560 -1.1310  0.2451
12378TIP3   OH258548   6.232   1.370   2.092 -0.3776  0.1535 -0.0771
12378TIP3    H158549   6.305   1.345   2.148  0.1244 -1.0857 -1.2785
12378TIP3    H258550   6.273   1.402   2.012 -1.1431 -0.5687 -0.7640
12379TIP3   OH258551   4.957   0.069  17.098  0.0354  0.0602  0.4288
12379TIP3    H158552   4.972  -0.023  17.121  0.5138  0.1987  0.6676
12379TIP3    H258553   4.965   0.072  17.003  2.3928  0.2906  0.6020
12380TIP3   OH258554   2.732   6.773   0.492  0.0677 -0.1452  0.1392
12380TIP3    H158555   2.765   6.822   0.567 -1.0311 -0.4122  0.8053
12380TIP3    H258556   2.683   6.838   0.441 -1.6941 -0.6025  1.2095
12381TIP3   OH258557   3.925   6.629   3.000  0.2001  0.3744 -0.6037
12381TIP3    H158558   3.933   6.664   2.911  1.1484 -1.7608 -1.3814
12381TIP3    H258559   4.015   6.607   3.025 -0.3188 -1.1155  0.0145
12382TIP3   OH258560   0.927   5.798  15.956 -0.3209 -0.2647  0.4913
12382TIP3    H158561   1.006   5.846  15.978 -1.9589  1.1888  3.5633
12382TIP3    H258562   0.880   5.855  15.895  0.4888 -0.6304 -0.4691
12383TIP3   OH258563   1.168   5.487  13.195 -0.4025  0.3999  0.5713
12383TIP3    H158564   1.190   5.580  13.193 -1.8345  0.7381 -0.8720
12383TIP3    H258565   1.142   5.467  13.105 -1.8985 -0.9454  1.2869
12384TIP3   OH258566   2.171   1.042   4.831  0.3068  0.1872  0.2559
12384TIP3    H158567   2.137   0.963   4.789  0.0108 -0.6213  1.9907
12384TIP3    H258568   2.211   1.011   4.912  0.0248  1.8453  1.0504
12385TIP3   OH258569   4.536   1.366   6.475 -0.4240  0.5328  0.7426
12385TIP3    H158570   4.570   1.288   6.432 -1.8274  0.7686 -0.8765
12385TIP3    H258571   4.583   1.439   6.433  0.8563  0.5844  2.2209
12386TIP3   OH258572   6.318   5.127  17.168 -0.7466 -0.3566 -0.0450
12386TIP3    H158573   6.341   5.209  17.211  1.0357 -0.6049 -0.4659
12386TIP3    H258574   6.401   5.095  17.132 -1.9043 -0.9006 -2.3732
12387TIP3   OH258575   6.008   1.989  12.599 -0.4749  0.4342  0.0939
12387TIP3    H158576   5.990   1.948  12.684 -0.3619  0.3068  0.0549
12387TIP3    H258577   6.085   2.044  12.615 -0.0430 -0.1129 -0.0970
12388TIP3   OH258578   3.772   4.346  15.485  0.3142 -0.3025 -0.3076
12388TIP3    H158579   3.864   4.324  15.469  1.4401  1.2154  3.5591
12388TIP3    H258580   3.753   4.310  15.571 -2.7643 -0.6058 -1.0595
12389TIP3   OH258581   4.633   6.276   3.584  0.2896 -0.1655  0.7968
12389TIP3    H158582   4.598   6.230   3.508 -0.6917  2.6166 -0.5249
12389TIP3    H258583   4.709   6.322   3.551  0.1210  0.7102  1.6036
12390TIP3   OH258584   1.496   6.319   3.870 -0.0699  0.1334  0.4977
12390TIP3    H158585   1.530   6.333   3.958 -1.8574  1.2052  1.0556
12390TIP3    H258586   1.435   6.392   3.856 -1.7996 -1.4582 -0.5611
12391TIP3   OH258587   4.859   0.097   1.286 -0.1634 -0.5105  0.3852
12391TIP3    H158588   4.850   0.185   1.248 -0.9036  0.1801  2.0883
12391TIP3    H258589   4.813   0.040   1.224 -2.0799  0.7089  0.6116
12392TIP3   OH258590   0.608   0.701   5.628  0.3577  0.4778 -0.4287
12392TIP3    H158591   0.696   0.701   5.589  0.3793  1.7224 -0.4175
12392TIP3    H258592   0.612   0.771   5.694 -0.8178  0.9277 -0.8359
12393TIP3   OH258593   5.625   4.585   3.942 -0.6803  0.4058 -0.3458
12393TIP3    H158594   5.543   4.609   3.985 -0.2074  0.8570  0.3158
12393TIP3    H258595   5.675   4.541   4.011 -0.3273  0.2286 -0.7185
12394TIP3   OH258596   5.361   3.603   0.063  0.5250  0.3148 -0.6223
12394TIP3    H158597   5.401   3.683   0.097  0.3750 -0.0824  0.5085
12394TIP3    H258598   5.424   3.534   0.083 -0.3963 -0.2089  0.5424
12395TIP3   OH258599   2.531   5.882   5.265  0.0996  0.1964 -0.1461
12395TIP3    H158600   2.593   5.934   5.315  0.4214  0.0812 -0.4252
12395TIP3    H258601   2.499   5.941   5.197 -0.4662  0.4053  0.2984
12396TIP3   OH258602   2.621   1.819   4.163  0.3394 -0.0883  0.1013
12396TIP3    H158603   2.699   1.808   4.216  0.7880 -0.0765 -0.5475
12396TIP3    H258604   2.575   1.893   4.202  1.4667  0.9327 -0.4798
12397TIP3   OH258605   3.149   4.777   3.564 -0.5965 -0.1492 -0.3702
12397TIP3    H158606   3.167   4.842   3.496 -1.2812  1.3247  0.8266
12397TIP3    H258607   3.054   4.779   3.576 -0.4538 -0.1280  0.8791
12398TIP3   OH258608   2.049   1.777   4.688  0.3314  0.1230  0.3533
12398TIP3    H158609   2.128   1.765   4.741  0.8747  1.1695 -0.2237
12398TIP3    H258610   2.079   1.771   4.598 -0.3336  0.0243  0.1375
12399TIP3   OH258611   4.405   3.803  17.214 -0.2226 -0.0713 -0.5588
12399TIP3    H158612   4.454   3.724  17.192 -1.2983 -0.9076 -0.0419
12399TIP3    H258613   4.384   3.843  17.130  5.4939  3.0027 -0.7432
12400TIP3   OH258614   5.419   6.779  15.575  0.6608 -0.0112 -0.1207
12400TIP3    H158615   5.503   6.816  15.550  0.8794 -0.3659  0.0786
12400TIP3    H258616   5.425   6.769  15.670 -1.0299  3.5173  0.4374
12401TIP3   OH258617   4.122   3.882  11.904 -0.1252 -0.4301 -0.3980
12401TIP3    H158618   4.046   3.831  11.874 -0.7437  0.7995 -0.9396
12401TIP3    H258619   4.111   3.886  11.999 -0.1674 -1.1510 -0.3643
12402TIP3   OH258620   4.113   4.489  14.127 -0.5394  0.3978  0.7516
12402TIP3    H158621   4.034   4.496  14.182  0.0392  1.1601  1.4972
12402TIP3    H258622   4.139   4.580  14.111 -0.7641  0.1884 -0.8917
12403TIP3   OH258623   1.261   1.382  12.401 -0.1134 -0.3667  0.0246
12403TIP3    H158624   1.233   1.473  12.393 -0.4398 -0.5007 -0.3407
12403TIP3    H258625   1.316   1.367  12.324  1.0420 -0.0766  0.7804
12404TIP3   OH258626   1.136   2.698   3.186 -0.3685 -0.6237 -0.1823
12404TIP3    H158627   1.194   2.772   3.203 -1.6015  0.6079 -1.1046
12404TIP3    H258628   1.095   2.680   3.271 -2.1523  1.6487 -0.4820
12405TIP3   OH258629   2.380   1.538  12.366  0.6259 -0.1582  0.3883
12405TIP3    H158630   2.443   1.522  12.295 -1.7996  0.0296 -1.8504
12405TIP3    H258631   2.400   1.628  12.394 -1.0832  1.3291 -2.9157
12406TIP3   OH258632   4.599   2.928   6.370  0.0863 -0.6431  0.8418
12406TIP3    H158633   4.583   2.924   6.464 -0.7782 -0.4537  0.7142
12406TIP3    H258634   4.623   3.019   6.354 -2.1161 -0.0817  0.5473
12407TIP3   OH258635   2.933   5.813   4.072 -0.8339  0.2467  0.2422
12407TIP3    H158636   2.979   5.836   3.991  0.1950 -1.4175  0.3405
12407TIP3    H258637   2.967   5.727   4.096 -4.1981 -1.1876  0.1917
12408TIP3   OH258638   1.946   1.191   4.916  0.0405 -0.5103  0.1637
12408TIP3    H158639   1.875   1.157   4.861 -0.0703 -0.4218  0.2521
12408TIP3    H258640   2.024   1.144   4.885  0.1168  0.0939 -0.5827
12409TIP3   OH258641   4.958   0.184  12.796 -0.2371 -0.3346 -0.2318
12409TIP3    H158642   5.027   0.177  12.862  2.4072  2.2840 -2.5200
12409TIP3    H258643   4.998   0.148  12.716 -1.9126  0.1632 -1.3335
12410TIP3   OH258644   5.614   3.392   2.447 -0.0085 -0.2987 -0.3874
12410TIP3    H158645   5.522   3.392   2.421 -0.2955  0.7746  0.5525
12410TIP3    H258646   5.614   3.351   2.533  0.5283 -1.1951 -0.8166
12411TIP3   OH258647   1.896   2.621  15.128 -0.1579  0.2708  0.2958
12411TIP3    H158648   1.968   2.682  15.110  1.5497 -1.4271  1.1479
12411TIP3    H258649   1.910   2.549  15.067 -1.6723  0.3269 -0.1274
12412TIP3   OH258650   5.237   2.205   3.045  0.3324 -0.0320 -0.1528
12412TIP3    H158651   5.218   2.255   2.966 -4.4103 -1.9504 -0.4093
12412TIP3    H258652   5.271   2.121   3.012 -1.1515 -0.6339 -0.2126
12413TIP3   OH258653   0.114   3.140  16.584  0.2324  0.6897 -0.2176
12413TIP3    H158654   0.132   3.160  16.675  0.7251 -1.6145  0.2281
12413TIP3    H258655   0.024   3.107  16.584  1.1536 -1.9331 -0.0927
12414TIP3   OH258656   6.353   6.686  12.806 -0.1243  0.3469 -0.0152
12414TIP3    H158657   6.284   6.723  12.861 -1.6777 -2.2863 -0.0839
12414TIP3    H258658   6.390   6.761  12.760 -2.5236  1.9298  0.5165
12415TIP3   OH258659   2.426   1.820  14.860  0.1713 -0.3340 -0.2645
12415TIP3    H158660   2.405   1.900  14.909 -0.7063 -0.1090 -0.9944
12415TIP3    H258661   2.471   1.851  14.782 -0.5107 -0.5235 -0.7336
12416TIP3   OH258662   6.085   4.146   0.558  0.2733 -0.1379 -0.3063
12416TIP3    H158663   6.048   4.115   0.641  1.0972 -0.6394 -0.1235
12416TIP3    H258664   6.009   4.175   0.507 -0.0484  2.2366  1.4617
12417TIP3   OH258665   2.833   2.240  16.552  0.9700 -0.9728  0.0396
12417TIP3    H158666   2.751   2.250  16.600  0.4210 -0.9801 -0.8799
12417TIP3    H258667   2.901   2.248  16.619  0.1347 -4.1257  1.3653
12418TIP3   OH258668   4.423   4.966  15.039 -1.0537  0.1459  0.1149
12418TIP3    H158669   4.505   4.920  15.061 -0.6083  1.1394  0.5580
12418TIP3    H258670   4.430   4.981  14.944 -0.5034  0.6413  0.2286
12419TIP3   OH258671   0.103   4.433  16.038  0.5786 -0.0552 -0.5089
12419TIP3    H158672   0.154   4.486  16.099  0.3914 -0.4784  0.0228
12419TIP3    H258673   0.081   4.354  16.087  2.0224 -1.2613 -1.7398
12420TIP3   OH258674   5.799   3.332   0.400  0.0914 -0.4773  0.0659
12420TIP3    H158675   5.869   3.327   0.465 -1.0650  0.7195  1.4366
12420TIP3    H258676   5.792   3.426   0.379 -1.7853 -0.4480  0.7328
12421TIP3   OH258677   2.717   4.993   5.130 -0.3486  0.5508  0.1486
12421TIP3    H158678   2.754   4.932   5.065 -3.2720  0.1939 -1.2522
12421TIP3    H258679   2.704   5.075   5.082 -0.9401  0.8080  0.7307
12422TIP3   OH258680   2.885   6.757   5.345 -0.2941  0.1562 -0.1368
12422TIP3    H158681   2.956   6.745   5.409 -0.0624 -1.6055 -0.6840
12422TIP3    H258682   2.824   6.685   5.364 -1.7385  1.4069  0.0552
12423TIP3   OH258683   2.338   0.136   4.310  0.7652 -0.4141 -0.3163
12423TIP3    H158684   2.337   0.126   4.215 -0.1750  1.5502 -0.5244
12423TIP3    H258685   2.431   0.140   4.332  1.0036 -1.4018 -1.0743
12424TIP3   OH258686   2.253   4.317  13.416 -0.2259  0.4493  0.5678
12424TIP3    H158687   2.210   4.344  13.496  0.4305  2.0128  0.4048
12424TIP3    H258688   2.347   4.329  13.434  0.0016 -0.3775 -0.0082
12425TIP3   OH258689   2.484   0.711  16.254  0.1329 -0.5189 -0.2950
12425TIP3    H158690   2.470   0.795  16.209  0.6044 -0.7228 -0.8327
12425TIP3    H258691   2.398   0.670  16.256  0.0065 -0.2719 -0.5462
12426TIP3   OH258692   1.977   0.911  11.345  0.4851 -0.4239 -0.2794
12426TIP3    H158693   1.906   0.847  11.356  0.6660 -0.3414  1.4203
12426TIP3    H258694   1.941   0.975  11.284 -1.0266 -0.2249  0.8039
12427TIP3   OH258695   3.085   0.854  13.927 -0.0391 -1.2068  0.4570
12427TIP3    H158696   3.011   0.817  13.881 -0.1455 -2.1747  1.3698
12427TIP3    H258697   3.090   0.945  13.898 -2.3357 -0.7789  1.3128
12428TIP3   OH258698   1.773   2.301   4.896 -0.0105  0.3344 -0.1418
12428TIP3    H158699   1.753   2.370   4.960 -3.2762 -0.1928 -0.5578
12428TIP3    H258700   1.789   2.348   4.814  2.0515  0.8465  0.5036
12429TIP3   OH258701   1.650   0.258   4.047  0.2128  0.5388 -0.6160
12429TIP3    H158702   1.568   0.266   4.096  0.4665  0.0664 -0.1064
12429TIP3    H258703   1.627   0.283   3.957 -0.4522  0.5764 -0.4370
12430TIP3   OH258704   4.941   5.395   2.463 -0.1270  0.0623  0.1118
12430TIP3    H158705   4.977   5.437   2.385 -1.5554 -0.3656 -0.8122
12430TIP3    H258706   4.987   5.311   2.468  2.8040  1.7303  2.0274
12431TIP3   OH258707   5.578   1.198   5.714  0.3554  0.1180  0.2446
12431TIP3    H158708   5.599   1.272   5.657 -0.0798  1.5051  1.8465
12431TIP3    H258709   5.487   1.213   5.740  0.4278 -0.6909  0.9939
12432TIP3   OH258710   0.252   5.394   0.716 -0.1818  0.4477 -0.4196
12432TIP3    H158711   0.327   5.428   0.765 -0.4713 -0.3325  0.5795
12432TIP3    H258712   0.185   5.462   0.726  0.2069  0.9011 -0.8626
12433TIP3   OH258713   4.309   2.074  15.335 -0.1921 -0.3124  0.2076
12433TIP3    H158714   4.346   2.124  15.262 -1.8638 -2.2711 -2.0598
12433TIP3    H258715   4.216   2.099  15.336 -0.9767 -2.9861 -0.7248
12434TIP3   OH258716   3.613   0.354   3.113  0.1594  0.7879  0.1186
12434TIP3    H158717   3.689   0.305   3.144 -0.8983 -0.3928  0.9041
12434TIP3    H258718   3.625   0.442   3.150  1.5805  0.8695 -0.4955
12435TIP3   OH258719   2.189   4.005   5.030  0.0957  0.4699 -0.0467
12435TIP3    H158720   2.161   3.932   5.086  0.3994  0.7399  0.4685
12435TIP3    H258721   2.127   4.005   4.957  0.1933 -0.3965 -0.1243
12436TIP3   OH258722   0.321   0.530  16.010  0.8799 -0.0615 -0.0349
12436TIP3    H158723   0.375   0.451  16.010 -2.1889 -2.2282  1.6758
12436TIP3    H258724   0.270   0.525  15.929  1.2699  0.6017 -0.3264
12437TIP3   OH258725   2.040   4.740  12.970 -0.2571  0.4680  0.1237
12437TIP3    H158726   2.011   4.745  13.061  1.0957  1.7719  0.5142
12437TIP3    H258727   2.089   4.658  12.966  2.0903  1.7506  1.3496
12438TIP3   OH258728   4.116   5.241  12.552 -0.2066  0.3665 -0.2675
12438TIP3    H158729   4.133   5.310  12.488 -1.8587  1.8016  0.8011
12438TIP3    H258730   4.182   5.254  12.620 -0.4447  0.8236 -0.1245
12439TIP3   OH258731   5.661   6.611  14.258 -0.4842 -0.5544 -0.0932
12439TIP3    H158732   5.668   6.702  14.285  0.3416 -0.4965 -0.4544
12439TIP3    H258733   5.583   6.578  14.301 -0.1586  0.0126  0.9447
12440TIP3   OH258734   3.022   1.094   3.973  0.0340  0.3778  0.0367
12440TIP3    H158735   2.936   1.129   3.997 -0.3525 -1.8179  1.9799
12440TIP3    H258736   3.041   1.029   4.040  2.0266 -1.0907 -1.8871
12441TIP3   OH258737   3.497   0.314  12.507  0.2651  0.1905  0.5801
12441TIP3    H158738   3.468   0.390  12.455 -0.6897 -0.4907  0.0921
12441TIP3    H258739   3.526   0.250  12.442  0.3121 -0.1670  0.9532
12442TIP3   OH258740   4.975   6.590  17.187  0.2037 -0.0239 -0.1440
12442TIP3    H158741   4.966   6.582  17.282  0.2505  0.6552 -0.0823
12442TIP3    H258742   4.896   6.548  17.153  0.8323 -1.4423  0.1511
12443TIP3   OH258743   1.621   2.617  15.192 -0.2595 -0.3174 -0.0008
12443TIP3    H158744   1.711   2.592  15.170  0.6212  1.1407  1.8598
12443TIP3    H258745   1.568   2.582  15.119  2.0612  0.7028 -2.2469
12444TIP3   OH258746   1.380   4.177   5.927  0.5481 -0.9313 -0.0088
12444TIP3    H158747   1.450   4.149   5.986 -1.3552 -1.9876  1.7710
12444TIP3    H258748   1.386   4.273   5.927  1.7920 -1.0039  0.3478
12445TIP3   OH258749   5.418   0.669   0.966 -0.1796 -0.1262  0.1678
12445TIP3    H158750   5.341   0.703   1.012 -0.3438 -0.4543  0.1414
12445TIP3    H258751   5.439   0.588   1.013 -0.0602 -0.2159 -0.0424
12446TIP3   OH258752   3.735   3.094  14.288 -0.3368  0.3390 -0.2831
12446TIP3    H158753   3.734   3.003  14.259 -1.1964  0.2903 -0.1114
12446TIP3    H258754   3.642   3.116  14.303 -0.1159  1.1545 -0.0690
12447TIP3   OH258755   4.611   2.131   5.928  0.2346 -0.1835 -0.2947
12447TIP3    H158756   4.630   2.063   5.993 -2.2186  0.2887  0.9822
12447TIP3    H258757   4.520   2.154   5.944  0.5905  2.3427 -1.7275
12448TIP3   OH258758   3.887   3.519   4.271 -0.2399  0.0851  0.0683
12448TIP3    H158759   3.933   3.476   4.344 -0.4310  0.4017  0.3775
12448TIP3    H258760   3.926   3.481   4.192  0.0216 -0.2057  0.3354
12449TIP3   OH258761   6.434   6.414  11.233 -0.8476  0.1852 -0.1924
12449TIP3    H158762   6.494   6.485  11.212  1.0511 -1.2886  0.1223
12449TIP3    H258763   6.348   6.456  11.239  0.2997  2.5307  0.4610
12450TIP3   OH258764   6.163   2.729   6.313 -0.6002 -0.3141  0.1266
12450TIP3    H158765   6.099   2.697   6.376 -0.7656 -1.2820 -0.5300
12450TIP3    H258766   6.210   2.798   6.360 -1.4397 -0.2934  0.9468
12451TIP3   OH258767   6.752   4.173   0.392 -0.6918  0.0536  0.3142
12451TIP3    H158768   6.678   4.187   0.333 -0.8976  0.4106  0.6514
12451TIP3    H258769   6.769   4.079   0.388 -1.2979 -0.0641  0.3889
12452TIP3   OH258770   5.261   3.934  15.996 -0.2679 -0.2766 -0.4666
12452TIP3    H158771   5.212   3.860  16.030  0.4864 -1.0780 -1.0967
12452TIP3    H258772   5.220   4.011  16.036 -2.4183 -0.8734 -1.4633
12453TIP3   OH258773   3.615   1.907  11.850  0.2650 -0.1556 -0.4130
12453TIP3    H158774   3.632   1.891  11.758 -1.0048 -0.4242 -0.6062
12453TIP3    H258775   3.525   1.877  11.864 -0.8359  3.1265  0.0916
12454TIP3   OH258776   2.776   4.781  12.407  0.2927  0.4629  0.1980
12454TIP3    H158777   2.809   4.691  12.399  0.6848  0.5049  1.3523
12454TIP3    H258778   2.705   4.774  12.470 -0.2518  0.8223 -0.3702
12455TIP3   OH258779   3.234   3.037   5.147  0.1556 -0.0452  0.4376
12455TIP3    H158780   3.272   2.962   5.101  0.9696 -0.2959  1.4999
12455TIP3    H258781   3.169   3.071   5.087 -0.6781 -1.9935  0.1983
12456TIP3   OH258782   2.573   6.000  15.288  0.2990  0.0300  0.2846
12456TIP3    H158783   2.564   6.035  15.200 -1.0519 -0.7816  0.0817
12456TIP3    H258784   2.644   5.937  15.282 -0.1752 -0.4468 -0.3665
12457TIP3   OH258785   3.633   3.208   1.400 -0.6735  0.1086  0.5961
12457TIP3    H158786   3.645   3.295   1.439 -1.0677  0.2585  0.3887
12457TIP3    H258787   3.569   3.165   1.456 -3.2085  1.2621 -1.3212
12458TIP3   OH258788   3.580   4.218   5.609 -0.1095  0.7006  0.3199
12458TIP3    H158789   3.623   4.260   5.534 -0.2582 -0.3495 -0.3617
12458TIP3    H258790   3.547   4.135   5.575 -0.2633  0.2502  1.5294
12459TIP3   OH258791   3.745   2.917   1.510 -0.4967 -0.4017  0.2833
12459TIP3    H158792   3.675   2.917   1.575 -1.0697  1.5392 -0.3000
12459TIP3    H258793   3.761   3.009   1.491 -0.3711 -0.9116 -2.3668
12460TIP3   OH258794   5.118   6.440  13.243 -0.0174 -0.1945  0.0118
12460TIP3    H158795   5.064   6.494  13.301  0.2615  0.7688 -0.6142
12460TIP3    H258796   5.191   6.413  13.299 -0.2070 -0.0026  0.3586
12461TIP3   OH258797   4.819   5.462   6.052 -0.5191 -0.1321 -0.5963
12461TIP3    H158798   4.858   5.431   5.970  0.4398  0.2426 -0.2901
12461TIP3    H258799   4.887   5.450   6.117 -0.8302  0.7641 -0.0939
12462TIP3   OH258800   2.225   6.638  10.792  0.1343 -0.1483  0.0496
12462TIP3    H158801   2.245   6.704  10.725 -1.2790  1.0320  0.7641
12462TIP3    H258802   2.147   6.671  10.836  0.4306 -1.4355  1.5995
12463TIP3   OH258803   6.551   5.280   0.941 -0.6199 -0.1562  0.3675
12463TIP3    H158804   6.562   5.225   1.019 -2.2126 -0.3614  0.4642
12463TIP3    H258805   6.506   5.358   0.973  0.3202  0.5613 -0.0374
12464TIP3   OH258806   1.980   1.485  14.411 -0.2439  0.3108 -0.1868
12464TIP3    H158807   1.933   1.542  14.473  1.7119  0.7839  0.9051
12464TIP3    H258808   2.048   1.541  14.375 -0.5999 -0.3301 -1.8908
12465TIP3   OH258809   5.652   5.776   1.088  0.1024 -0.0640 -0.0012
12465TIP3    H158810   5.631   5.694   1.133 -3.1502  0.5495 -0.2533
12465TIP3    H258811   5.725   5.754   1.031  3.6793 -1.1444  4.6854
12466TIP3   OH258812   1.839   1.811   1.435  0.3725 -0.3503  0.0840
12466TIP3    H158813   1.871   1.900   1.450 -0.5058 -0.1578  0.7978
12466TIP3    H258814   1.824   1.776   1.522  1.0877 -1.3441 -0.1828
12467TIP3   OH258815   3.805   6.725   4.376  0.5092 -0.0432  0.3840
12467TIP3    H158816   3.857   6.803   4.393 -0.0332  0.1766  1.0807
12467TIP3    H258817   3.854   6.676   4.310  0.4496  1.2788 -0.6501
12468TIP3   OH258818   2.098   1.734   3.789 -0.6018  0.6004 -0.4652
12468TIP3    H158819   2.111   1.661   3.730 -0.0164  0.5520 -0.2780
12468TIP3    H258820   2.004   1.753   3.784 -0.7473 -0.1401 -0.5335
12469TIP3   OH258821   0.120   6.050  11.356  0.5015 -0.1807  0.3201
12469TIP3    H158822   0.076   5.969  11.383  2.8476 -1.1897  1.2703
12469TIP3    H258823   0.146   6.092  11.439  1.9115  0.0519 -0.2253
12470TIP3   OH258824   5.994   5.219   4.582 -0.7504  0.0026  0.1810
12470TIP3    H158825   6.055   5.291   4.599 -1.6600  0.4470  1.7049
12470TIP3    H258826   6.038   5.142   4.617  0.6293 -0.3765 -2.2810
12471TIP3   OH258827   1.811   1.839  13.894 -0.0135  0.3954  0.0568
12471TIP3    H158828   1.827   1.894  13.817  0.1969 -0.3546 -0.4446
12471TIP3    H258829   1.876   1.868  13.958 -0.8022  1.6683  0.2989
12472TIP3   OH258830   1.565   5.936  16.568 -0.0148  0.0451  0.0577
12472TIP3    H158831   1.532   6.022  16.543 -0.5920 -0.5805 -1.4375
12472TIP3    H258832   1.505   5.906  16.636 -0.1424  0.5874  0.1859
12473TIP3   OH258833   3.892   1.941  16.998  0.1359 -0.1158 -0.3949
12473TIP3    H158834   3.841   1.879  17.050  0.9886  0.0216  0.6204
12473TIP3    H258835   3.979   1.900  16.991  0.5767  0.7644 -0.0963
12474TIP3   OH258836   4.557   4.896   2.250 -0.2888  0.1419  0.3222
12474TIP3    H158837   4.527   4.986   2.261  2.1595  0.9463  0.6238
12474TIP3    H258838   4.633   4.903   2.192  0.6035 -1.6018  1.2686
12475TIP3   OH258839   2.486   1.994   4.782  0.3644 -0.2349 -0.0456
12475TIP3    H158840   2.568   2.032   4.813  0.2744 -0.6513  0.7180
12475TIP3    H258841   2.512   1.934   4.713  0.7498 -0.6884  0.4868
12476TIP3   OH258842   0.447   0.244  13.272 -1.1804  0.3071 -0.2100
12476TIP3    H158843   0.443   0.189  13.351 -3.1513 -0.7685 -1.0351
12476TIP3    H258844   0.507   0.196  13.213 -1.0905  0.2147 -0.0454
12477TIP3   OH258845   3.934   5.885  10.525  0.5884  0.2124 -0.1809
12477TIP3    H158846   3.994   5.811  10.512  0.4148 -0.1946  1.2774
12477TIP3    H258847   3.870   5.853  10.588 -0.2126  1.2100 -0.4797
12478TIP3   OH258848   1.513   0.621   5.480 -0.3154 -0.4979 -0.5057
12478TIP3    H158849   1.575   0.677   5.432 -0.2455  1.0451  1.3395
12478TIP3    H258850   1.427   0.658   5.460 -0.3247 -0.1521  0.1977
12479TIP3   OH258851   1.096   3.150   2.337  0.2545 -0.6248  0.2489
12479TIP3    H158852   1.003   3.172   2.340 -0.5374 -3.7610 -0.0629
12479TIP3    H258853   1.117   3.121   2.426  1.1091  0.5497  0.4565
12480TIP3   OH258854   4.035   3.104  16.034  0.1976  0.4798 -0.7042
12480TIP3    H158855   4.090   3.148  15.970  0.0292  1.6391 -0.0525
12480TIP3    H258856   4.096   3.065  16.096  0.3680 -0.8220 -1.6693
12481TIP3   OH258857   4.479   4.238  14.434 -0.5463  0.1485 -0.8493
12481TIP3    H158858   4.494   4.167  14.371 -1.6246 -0.6443 -0.2398
12481TIP3    H258859   4.431   4.304  14.385 -0.0690  0.1863 -1.2656
12482TIP3   OH258860   1.714   5.471   2.419  0.2630  0.8026 -0.1094
12482TIP3    H158861   1.748   5.526   2.348  0.4715  1.8748  0.7967
12482TIP3    H258862   1.791   5.451   2.473  0.0874  0.1071 -0.1231
12483TIP3   OH258863   1.556   5.972  11.450 -0.6094  0.6914 -0.2382
12483TIP3    H158864   1.530   5.944  11.362  0.6399 -0.1506 -0.3432
12483TIP3    H258865   1.494   5.929  11.508 -0.6082  0.1779 -0.6182
12484TIP3   OH258866   2.008   6.242   1.604 -0.5835 -0.2055  0.5567
12484TIP3    H158867   2.091   6.256   1.649 -1.0094  0.8167  1.0520
12484TIP3    H258868   1.944   6.289   1.657 -1.2808  0.0305 -0.4764
12485TIP3   OH258869   1.258   5.523   0.529 -0.6116  0.5450  0.2319
12485TIP3    H158870   1.177   5.473   0.544 -0.3039 -0.0013  0.0852
12485TIP3    H258871   1.229   5.613   0.518 -1.3412  0.1083 -1.4399
12486TIP3   OH258872   4.141   0.754  11.296 -0.2577  0.4944  0.2351
12486TIP3    H158873   4.221   0.724  11.253  0.0854  0.3729  0.9512
12486TIP3    H258874   4.070   0.732  11.235  0.0479 -1.2629  0.5098
12487TIP3   OH258875   6.234   5.817  15.720  0.2791  0.0949 -0.0159
12487TIP3    H158876   6.273   5.890  15.769 -0.3691  0.3372  0.1449
12487TIP3    H258877   6.284   5.740  15.747  1.8293  0.6759 -1.1582
12488TIP3   OH258878   0.453   5.734  13.416  0.4304 -0.3608 -0.3926
12488TIP3    H158879   0.393   5.665  13.387  0.3963 -0.3370 -0.3796
12488TIP3    H258880   0.397   5.799  13.456  0.5763 -0.8664  0.6455
12489TIP3   OH258881   5.490   1.868  15.887 -0.9495 -0.0470  0.2583
12489TIP3    H158882   5.544   1.815  15.828 -0.9222  0.3322 -0.0603
12489TIP3    H258883   5.403   1.866  15.848 -0.6348  1.3562 -0.5763
12490TIP3   OH258884   1.836   6.503   2.259 -0.1809 -0.1947  0.0638
12490TIP3    H158885   1.857   6.561   2.186  0.5221  0.5679  0.8526
12490TIP3    H258886   1.921   6.481   2.297 -0.5881  0.2621  1.2689
12491TIP3   OH258887   1.871   5.526   3.225 -0.3149  0.1911  0.1947
12491TIP3    H158888   1.886   5.542   3.132 -0.7488  0.4749  0.1704
12491TIP3    H258889   1.820   5.602   3.254  0.1177  0.2765  0.7407
12492TIP3   OH258890   2.812   0.939   3.774 -0.1811 -0.1950  0.3138
12492TIP3    H158891   2.871   0.880   3.728 -0.9770 -0.2693 -0.6279
12492TIP3    H258892   2.815   0.910   3.865  0.1712 -1.0663  0.0285
12493TIP3   OH258893   6.337   0.243  11.904  0.0760  0.4251  0.4164
12493TIP3    H158894   6.318   0.304  11.833  0.9478  0.1942 -0.0267
12493TIP3    H258895   6.399   0.289  11.960  1.5077 -0.4146 -0.4556
12494TIP3   OH258896   4.717   3.827  16.905 -0.5648  0.3764 -0.2347
12494TIP3    H158897   4.721   3.919  16.877 -0.3046  0.2757 -0.5431
12494TIP3    H258898   4.668   3.784  16.835 -1.8142  0.5116  0.5537
12495TIP3   OH258899   0.526   3.253   1.853  0.1924  0.2916 -0.2665
12495TIP3    H158900   0.581   3.186   1.893 -1.0165 -0.6675 -0.1800
12495TIP3    H258901   0.437   3.231   1.880 -0.3930  0.9967 -1.5504
12496TIP3   OH258902   1.513   6.291  15.713  0.0924  0.3047  0.4298
12496TIP3    H158903   1.602   6.289  15.677  0.0950 -1.0107  0.4653
12496TIP3    H258904   1.525   6.279  15.807 -0.1277  0.0834  0.4293
12497TIP3   OH258905   4.805   6.117  15.396 -0.0716 -0.4647  0.5523
12497TIP3    H158906   4.855   6.062  15.335 -1.0331 -0.4441 -0.2680
12497TIP3    H258907   4.833   6.087  15.483  1.9497  0.0907  0.1233
12498TIP3   OH258908   4.236   2.834   5.812  1.0491 -0.3157  0.0750
12498TIP3    H158909   4.148   2.870   5.818  1.1028  0.0035 -0.9975
12498TIP3    H258910   4.271   2.841   5.900  0.0480 -0.3263  0.4781
12499TIP3   OH258911   6.362   1.081  14.682 -0.0507 -0.2867  0.0496
12499TIP3    H158912   6.447   1.043  14.661 -1.3901 -2.8687 -1.0140
12499TIP3    H258913   6.378   1.140  14.755  2.7049 -0.3602 -0.4600
12500TIP3   OH258914   6.493   2.918   2.710  1.1523 -0.6448  0.0403
12500TIP3    H158915   6.476   2.998   2.758  0.7223  0.7759 -2.3781
12500TIP3    H258916   6.584   2.895   2.731  2.1614  1.9659 -1.3222
12501TIP3   OH258917   1.305   4.098  13.862 -0.5614 -0.4852  0.4832
12501TIP3    H158918   1.258   4.041  13.803  0.5727  0.6307 -1.5525
12501TIP3    H258919   1.238   4.134  13.920 -1.8516 -0.7308 -0.8517
12502TIP3   OH258920   6.261   1.371  12.169 -0.4071 -0.1302  0.2648
12502TIP3    H158921   6.273   1.277  12.161 -0.1392 -0.0672 -0.1191
12502TIP3    H258922   6.237   1.385  12.261  1.8286 -0.3497  0.9069
12503TIP3   OH258923   5.068   3.428   5.805  0.4545 -0.1986 -0.1756
12503TIP3    H158924   5.084   3.410   5.712  1.7508  1.1349 -0.2318
12503TIP3    H258925   5.064   3.524   5.811  0.9376 -0.2458  1.2204
12504TIP3   OH258926   2.638   5.454   4.201  0.2516 -0.4512  1.0392
12504TIP3    H158927   2.675   5.478   4.286 -1.5491  0.7167  1.5232
12504TIP3    H258928   2.710   5.467   4.139  1.3059 -0.3952  2.2518
12505TIP3   OH258929   1.037   2.717  13.617  0.5974 -0.4682  0.0272
12505TIP3    H158930   1.044   2.631  13.575  0.7282 -0.6257  0.3765
12505TIP3    H258931   0.971   2.763  13.566 -0.7160 -1.3792  0.8917
12506TIP3   OH258932   1.780   0.325  13.339 -0.3175 -1.0010  0.2776
12506TIP3    H158933   1.760   0.303  13.248  0.0011  0.3532 -0.1291
12506TIP3    H258934   1.697   0.314  13.385 -0.5178 -1.5503 -0.2093
12507TIP3   OH258935   5.617   2.238  15.084 -0.4868 -0.2662  0.0426
12507TIP3    H158936   5.673   2.226  15.161 -0.7843  0.9666  0.4744
12507TIP3    H258937   5.676   2.268  15.016 -0.6938  1.7578  0.7056
12508TIP3   OH258938   5.942   5.324  11.632  0.1043 -0.3125  0.5567
12508TIP3    H158939   5.860   5.368  11.612 -0.0775 -0.4058  1.0811
12508TIP3    H258940   5.925   5.232  11.610 -0.5571 -0.6558  2.4357
12509TIP3   OH258941   6.411   1.932  12.019 -0.2053  0.6104 -0.1405
12509TIP3    H158942   6.321   1.920  11.987 -1.5110  3.0713  2.3106
12509TIP3    H258943   6.416   2.026  12.039  1.9743 -0.0157  2.4869
12510TIP3   OH258944   6.306   6.009  13.108 -0.0656  0.1844  0.2176
12510TIP3    H158945   6.333   5.930  13.061 -3.1985 -1.7794  1.5606
12510TIP3    H258946   6.378   6.025  13.170  1.7556 -0.1241 -1.7607
12511TIP3   OH258947   3.938   6.238   1.145  0.2807 -0.6048  0.1094
12511TIP3    H158948   3.915   6.258   1.235 -1.2129  0.1534 -0.4188
12511TIP3    H258949   3.863   6.269   1.093  1.1042 -1.0294 -1.3825
12512TIP3   OH258950   4.509   0.403  11.022  0.5518  0.4926  0.3986
12512TIP3    H158951   4.546   0.475  10.970  0.0416  0.6619  0.2681
12512TIP3    H258952   4.585   0.364  11.065  0.6033  2.7580  2.5272
12513TIP3   OH258953   0.068   4.650   0.388  0.1181  0.5379  0.7409
12513TIP3    H158954  -0.014   4.697   0.376  0.5751  1.4017  0.9906
12513TIP3    H258955   0.114   4.699   0.456  0.6613 -0.1812  0.8961
12514TIP3   OH258956   1.826   1.470  12.483  0.5152  0.2523 -0.4624
12514TIP3    H158957   1.803   1.559  12.510  1.6670 -0.2150  2.1304
12514TIP3    H258958   1.792   1.463  12.393 -2.2419  2.2944  0.3436
12515TIP3   OH258959   3.697   3.319  12.254 -0.1885 -0.3648  0.0980
12515TIP3    H158960   3.689   3.410  12.225 -0.0132 -0.7430 -1.1677
12515TIP3    H258961   3.790   3.306  12.268 -0.3555  0.0714  1.7088
12516TIP3   OH258962   2.499   4.101  14.146  0.0357 -0.6517  0.0884
12516TIP3    H158963   2.442   4.107  14.069  0.8790 -1.7136 -0.6389
12516TIP3    H258964   2.440   4.076  14.217 -0.5850 -0.6705 -0.4257
12517TIP3   OH258965   5.279   4.117   1.722 -0.1152 -0.4294 -0.5321
12517TIP3    H158966   5.238   4.066   1.792 -0.4735 -1.4578 -1.4827
12517TIP3    H258967   5.361   4.148   1.761 -0.9063  0.1032  0.7639
12518TIP3   OH258968   6.327   6.540  13.210 -0.0898  0.2474  0.2006
12518TIP3    H158969   6.409   6.512  13.250  1.3596  3.3126 -0.5160
12518TIP3    H258970   6.339   6.523  13.116 -0.5161  0.1486  0.1640
12519TIP3   OH258971   1.622   5.122   4.520  0.0531  0.0580  0.3435
12519TIP3    H158972   1.619   5.139   4.426 -1.8424 -2.0876 -0.0434
12519TIP3    H258973   1.705   5.075   4.533  0.9724  1.5374  0.0064
12520TIP3   OH258974   1.323   1.767  11.963  0.5045 -0.1132  0.2506
12520TIP3    H158975   1.323   1.862  11.949 -0.0555 -0.1434  0.0426
12520TIP3    H258976   1.414   1.740  11.947  0.2823  0.1156 -1.5127
12521TIP3   OH258977   4.289   1.915  14.395  0.3118  0.1295 -0.2076
12521TIP3    H158978   4.345   1.858  14.448  0.5372  0.0893 -0.4838
12521TIP3    H258979   4.235   1.962  14.459 -1.3119 -1.8703 -0.0662
12522TIP3   OH258980   3.655   0.247  13.024  0.0891 -0.2755  0.0382
12522TIP3    H158981   3.590   0.297  13.073  0.5104 -0.1931  0.5182
12522TIP3    H258982   3.661   0.291  12.939 -0.1608 -0.0214  0.1544
12523TIP3   OH258983   0.387   0.949  14.002 -0.2487 -0.3279 -0.2945
12523TIP3    H158984   0.345   0.869  14.034 -0.2616  0.2883  1.3131
12523TIP3    H258985   0.325   1.019  14.024 -0.0485  0.1704 -1.3006
12524TIP3   OH258986   0.156   3.468  12.996  0.4645 -0.1338 -0.2697
12524TIP3    H158987   0.245   3.497  12.977  0.3900  0.2818  0.0000
12524TIP3    H258988   0.125   3.530  13.062  0.1059 -0.4984 -0.0978
12525TIP3   OH258989   6.676   1.891   5.347  0.4821 -0.0321  0.1877
12525TIP3    H158990   6.757   1.839   5.353  0.2062 -0.3947  0.8446
12525TIP3    H258991   6.608   1.826   5.333  0.3310  0.2983 -0.6587
12526TIP3   OH258992   4.521   5.811   2.115  0.2777 -0.0515  0.5050
12526TIP3    H158993   4.451   5.756   2.153  0.0267 -0.9105 -1.1597
12526TIP3    H258994   4.475   5.869   2.054  0.2810  3.3389  3.5254
12527TIP3   OH258995   0.017   3.855  15.450  0.2335  0.2458  0.7258
12527TIP3    H158996   0.054   3.932  15.408  0.4937 -0.0744  0.3698
12527TIP3    H258997  -0.050   3.824  15.389  1.0477 -0.5879  0.2463
12528TIP3   OH258998   4.804   1.980  12.924  0.3331 -0.0362  0.4895
12528TIP3    H158999   4.753   2.056  12.950 -0.3936 -0.4209  0.2038
12528TIP3    H259000   4.779   1.911  12.985  1.9904  0.3182  1.5936
12529TIP3   OH259001   2.432   4.642   2.081 -0.1100  0.4940 -0.3615
12529TIP3    H159002   2.405   4.608   1.996 -0.6840 -0.4600  0.1902
12529TIP3    H259003   2.527   4.634   2.081 -0.0688  0.9207 -1.0809
12530TIP3   OH259004   0.814   1.608   3.808 -0.1336  0.3149  0.4400
12530TIP3    H159005   0.873   1.637   3.877  0.1071 -0.5260  0.5944
12530TIP3    H259006   0.803   1.684   3.751 -0.1496  0.9366  1.2802
12531TIP3   OH259007   5.364   6.495   0.027  0.0664 -0.2130  0.0487
12531TIP3    H159008   5.436   6.470  -0.031 -0.7518  1.6686 -1.8617
12531TIP3    H259009   5.286   6.455  -0.011 -0.7049  2.2082 -1.0689
12532TIP3   OH259010   1.983   0.469   5.023 -0.1109 -0.1312  0.1021
12532TIP3    H159011   2.033   0.507   5.095 -0.6300  0.3291  0.2267
12532TIP3    H259012   1.892   0.472   5.053 -0.2838 -0.3660 -0.3859
12533TIP3   OH259013   5.751   0.707   1.695 -0.0281  0.2480  0.2967
12533TIP3    H159014   5.735   0.659   1.614 -0.7172  2.2119 -0.7652
12533TIP3    H259015   5.720   0.648   1.764 -0.0062 -1.1927 -0.8950
12534TIP3   OH259016   1.205   3.022   0.017 -0.6999  0.5107 -0.5408
12534TIP3    H159017   1.170   2.984  -0.064 -0.2678  1.2877 -1.1049
12534TIP3    H259018   1.276   3.079  -0.013  0.2400 -0.1122  0.4915
12535TIP3   OH259019   0.544   0.486  13.079 -0.0953  0.0464 -0.2324
12535TIP3    H159020   0.576   0.444  12.999  1.1553  0.5086  0.0165
12535TIP3    H259021   0.557   0.580  13.065 -2.5089  0.3675 -0.6231
12536TIP3   OH259022   6.775   5.246  17.156 -0.1008 -0.8517 -0.3225
12536TIP3    H159023   6.868   5.248  17.137 -0.0261 -1.7493 -0.0736
12536TIP3    H259024   6.742   5.168  17.110 -0.5718 -0.9988  0.2518
12537TIP3   OH259025   6.239   2.847  16.104  0.2055  0.0504  0.6058
12537TIP3    H159026   6.149   2.818  16.118  0.9409 -1.7453  1.7079
12537TIP3    H259027   6.244   2.931  16.149 -0.7239 -0.1665  1.1258
12538TIP3   OH259028   1.608   6.223   5.005 -0.0532 -0.4557 -0.3049
12538TIP3    H159029   1.642   6.175   5.080 -0.1869 -1.1918 -0.7017
12538TIP3    H259030   1.669   6.296   4.993 -1.3938  1.0865  2.0024
12539TIP3   OH259031   1.839   5.876   0.224 -0.0789  0.2313 -0.2144
12539TIP3    H159032   1.781   5.862   0.299 -0.9209 -1.4013 -1.1374
12539TIP3    H259033   1.796   5.943   0.172 -0.2551  0.2859  0.0029
12540TIP3   OH259034   0.752   2.433   4.346 -0.2695 -0.4296  0.2055
12540TIP3    H159035   0.770   2.406   4.436  1.2314 -0.6622 -0.1596
12540TIP3    H259036   0.831   2.478   4.318 -0.8558 -0.0663 -0.8923
12541TIP3   OH259037   1.735   3.621  14.716 -0.2448 -0.4969  0.2185
12541TIP3    H159038   1.659   3.642  14.770 -0.5488 -0.1744 -0.3290
12541TIP3    H259039   1.699   3.608  14.628  0.1809 -1.5254  0.1986
12542TIP3   OH259040   0.243   5.051   5.231  0.3490  0.0313  0.6139
12542TIP3    H159041   0.296   4.987   5.278 -0.0897  1.2121  2.7527
12542TIP3    H259042   0.271   5.136   5.266 -3.0899  0.6821  1.9660
12543TIP3   OH259043   1.050   6.350   0.835 -0.1063  0.0131  0.0391
12543TIP3    H159044   1.010   6.315   0.915 -2.2293  1.3661 -0.3897
12543TIP3    H259045   1.000   6.310   0.764  2.3462 -1.8901 -0.7050
12544TIP3   OH259046   3.969   4.755  15.970 -0.2494 -0.3736  0.1257
12544TIP3    H159047   4.043   4.740  15.912  0.9295  1.7075  1.0448
12544TIP3    H259048   3.892   4.735  15.917  0.6814  3.4073 -2.8169
12545TIP3   OH259049   3.997   1.106   5.875  0.2320 -0.8442 -0.1437
12545TIP3    H159050   4.037   1.067   5.952  0.3280  0.8266  0.6597
12545TIP3    H259051   3.974   1.195   5.901 -0.8167 -0.6385 -1.6696
12546TIP3   OH259052   4.051   0.454   4.132 -0.4609 -0.1954 -0.3337
12546TIP3    H159053   3.967   0.419   4.102 -0.2542 -0.3356 -0.7535
12546TIP3    H259054   4.027   0.529   4.187 -0.8410  0.1205 -0.9181
12547TIP3   OH259055   2.629   2.142  12.926  0.0433 -0.3737 -0.2449
12547TIP3    H159056   2.689   2.216  12.913 -1.7846  0.9718 -1.1141
12547TIP3    H259057   2.667   2.071  12.874  1.5653  0.0659  0.2399
12548TIP3   OH259058   1.502   1.584  12.807 -0.1722 -0.0614  0.4542
12548TIP3    H159059   1.472   1.534  12.732  0.4536 -1.1897  0.9364
12548TIP3    H259060   1.440   1.564  12.877  1.1170 -1.6411  1.1752
12549TIP3   OH259061   1.749   2.537  16.464  0.7196 -0.3378  0.4127
12549TIP3    H159062   1.802   2.545  16.385  0.1748  1.5914  0.2168
12549TIP3    H259063   1.672   2.487  16.436  1.3452 -1.1584  0.1463
12550TIP3   OH259064   2.323   5.430   4.785  0.1161 -0.0902 -0.0789
12550TIP3    H159065   2.359   5.368   4.849  0.5075  0.4073  0.1864
12550TIP3    H259066   2.365   5.405   4.702  0.2566 -0.1862  0.0214
12551TIP3   OH259067   4.770   2.507  13.528  0.5117 -0.1803 -0.1878
12551TIP3    H159068   4.761   2.602  13.540 -2.3163 -0.5522  1.2604
12551TIP3    H259069   4.849   2.496  13.475  1.6955  2.9004  0.8313
12552TIP3   OH259070   0.075   2.731   6.179 -0.3499  0.1491 -0.7929
12552TIP3    H159071   0.144   2.772   6.231 -0.5951  1.7204 -1.6789
12552TIP3    H259072   0.035   2.667   6.238 -1.0339  2.3219  1.1435
12553TIP3   OH259073   3.362   2.833   1.978  0.2249 -0.2086  0.5199
12553TIP3    H159074   3.367   2.929   1.975 -0.2112 -0.2135 -0.4015
12553TIP3    H259075   3.322   2.808   1.895 -2.4449 -1.0032  2.0034
12554TIP3   OH259076   3.422   6.718   5.475  0.6453 -0.9094  0.5964
12554TIP3    H159077   3.512   6.686   5.461  0.5408 -1.3337  0.8814
12554TIP3    H259078   3.433   6.807   5.508  0.9441 -0.6779 -0.1296
12555TIP3   OH259079   6.389   1.859  13.225 -0.2357  0.4491  0.4658
12555TIP3    H159080   6.375   1.802  13.149  0.4692  0.4351  0.3421
12555TIP3    H259081   6.331   1.824  13.292 -0.1284 -0.1519  0.2476
12556TIP3   OH259082   3.685   5.208  16.348  0.4757  0.3076 -0.7213
12556TIP3    H159083   3.731   5.260  16.414  0.9212 -0.8869 -0.0811
12556TIP3    H259084   3.754   5.164  16.299  0.1161  0.6614 -1.5598
12557TIP3   OH259085   0.614   1.336  16.953 -0.0819  0.0128  0.0017
12557TIP3    H159086   0.612   1.246  16.920 -0.6060 -0.0901  0.3088
12557TIP3    H259087   0.562   1.386  16.890 -0.8930 -0.1430  0.5397
12558TIP3   OH259088   5.580   2.289  15.860  0.0384 -0.3042 -0.0120
12558TIP3    H159089   5.504   2.231  15.851  1.7779 -2.6238 -0.4107
12558TIP3    H259090   5.646   2.234  15.902  1.6160  1.5486 -0.0392
12559TIP3   OH259091   3.415   0.643  14.857 -0.0694 -0.8608 -0.2766
12559TIP3    H159092   3.427   0.549  14.869 -0.1626 -1.0233 -1.3993
12559TIP3    H259093   3.416   0.655  14.762 -0.2651  0.2441 -0.1410
12560TIP3   OH259094   1.124   3.916   1.150  0.1689 -0.1834 -0.3809
12560TIP3    H159095   1.136   3.966   1.069  0.6024 -0.3406 -0.4155
12560TIP3    H259096   1.046   3.863   1.134 -0.5933  0.8552 -0.1541
12561TIP3   OH259097   2.160   2.842   5.732 -0.0271  0.1725 -0.2308
12561TIP3    H159098   2.141   2.874   5.821  0.4024  2.6910 -1.0268
12561TIP3    H259099   2.182   2.750   5.745 -0.6779  0.3114  2.1956
12562TIP3   OH259100   0.555   5.880  16.107  0.2254  0.4042  0.4050
12562TIP3    H159101   0.648   5.882  16.132  0.4908  3.8810 -0.6012
12562TIP3    H259102   0.509   5.908  16.186  0.0268 -1.1271  0.8411
12563TIP3   OH259103   0.539   4.459   5.157 -0.2212 -0.5087 -1.3024
12563TIP3    H159104   0.552   4.500   5.072 -1.8937 -0.2364 -1.4334
12563TIP3    H259105   0.446   4.469   5.175 -0.4929 -3.3538 -0.8810
12564TIP3   OH259106   5.334   4.386   6.090 -0.1312  0.1509 -0.6494
12564TIP3    H159107   5.241   4.411   6.090 -0.0287  0.5536 -1.3237
12564TIP3    H259108   5.360   4.391   6.182 -0.5704  0.8199 -0.5595
12565TIP3   OH259109   5.832   5.288   2.695 -0.7908  0.2881 -0.2016
12565TIP3    H159110   5.839   5.207   2.644  0.8422  0.4715 -0.2952
12565TIP3    H259111   5.890   5.274   2.770 -3.1081  0.0581  1.5964
12566TIP3   OH259112   6.144   0.840   4.799  0.4314 -0.4452 -0.1905
12566TIP3    H159113   6.122   0.811   4.887 -1.9908 -1.2082 -1.0130
12566TIP3    H259114   6.222   0.789   4.775  1.7968  0.5954  1.8995
12567TIP3   OH259115   1.384   1.782   0.943 -0.3993  0.4210  1.2190
12567TIP3    H159116   1.344   1.854   0.991 -2.3069  0.1635  0.0437
12567TIP3    H259117   1.312   1.722   0.924  0.6818 -0.4778 -0.1569
12568TIP3   OH259118   5.840   6.725   6.392  0.3183  0.2737 -0.3642
12568TIP3    H159119   5.922   6.748   6.435  0.0849  0.7362 -0.1683
12568TIP3    H259120   5.787   6.804   6.396 -0.4476 -0.2622  0.2090
12569TIP3   OH259121   3.169   3.448  10.678 -0.3613  0.3817 -0.5740
12569TIP3    H159122   3.170   3.541  10.654 -1.7423  1.0107  1.6390
12569TIP3    H259123   3.101   3.442  10.745  0.7785 -1.9755  0.4091
12570TIP3   OH259124   4.495   5.363  10.565 -0.7183  0.7110  0.0020
12570TIP3    H159125   4.483   5.456  10.546 -0.5021  0.4014 -1.7222
12570TIP3    H259126   4.446   5.318  10.496 -2.0101 -0.4645  1.6282
12571TIP3   OH259127   4.081   0.747   5.196 -0.0924  0.3927  0.0293
12571TIP3    H159128   4.104   0.839   5.204 -1.9109  0.8501  0.1314
12571TIP3    H259129   4.015   0.733   5.263  1.6814 -1.5190  1.4586
12572TIP3   OH259130   0.062   3.489   5.163  0.4622 -0.1364 -0.0005
12572TIP3    H159131   0.157   3.490   5.177  0.4279  2.6159  0.1874
12572TIP3    H259132   0.049   3.428   5.090  2.7698  2.4033 -2.6209
12573TIP3   OH259133   1.055   6.356  14.985 -0.4302  0.0209  0.1059
12573TIP3    H159134   1.118   6.335  14.917 -0.6219 -1.0240  0.2510
12573TIP3    H259135   1.009   6.434  14.952 -1.0433 -0.9240 -1.2965
12574TIP3   OH259136   1.105   1.698  11.472 -0.1067 -0.0671  0.2344
12574TIP3    H159137   1.173   1.637  11.442 -0.5946 -0.9455  0.8988
12574TIP3    H259138   1.071   1.658  11.552 -0.7375  0.8588  0.4284
12575TIP3   OH259139   3.744   4.084   0.435  0.6848 -0.0338  0.2650
12575TIP3    H159140   3.715   3.993   0.432  0.0400  0.0819  2.2151
12575TIP3    H259141   3.836   4.080   0.460  0.8248 -0.1646 -0.2615
12576TIP3   OH259142   3.212   4.367  11.696  0.1829 -0.3333 -0.0359
12576TIP3    H159143   3.256   4.332  11.618  1.1994 -0.3752  0.5561
12576TIP3    H259144   3.122   4.334  11.689 -0.0120  0.4721 -1.7053
12577TIP3   OH259145   1.271   0.437  13.598  0.0074  0.0691 -0.1645
12577TIP3    H159146   1.349   0.454  13.546  0.7753 -1.2153  0.5429
12577TIP3    H259147   1.226   0.366  13.552  0.8833 -1.3319  1.1044
12578TIP3   OH259148   1.193   6.620  11.501  0.6250 -0.0849 -0.4087
12578TIP3    H159149   1.120   6.599  11.443  1.3154 -1.0199 -0.9665
12578TIP3    H259150   1.158   6.682  11.564 -0.3950  0.1807 -1.2440
12579TIP3   OH259151   0.625   4.970  10.989  0.5901  0.0636  0.5377
12579TIP3    H159152   0.686   4.989  10.918  1.1137 -0.7483  0.7636
12579TIP3    H259153   0.572   5.049  10.997 -1.3375 -0.8597 -2.6364
12580TIP3   OH259154   5.288   2.372   3.892  0.2940  0.2644 -0.1620
12580TIP3    H159155   5.300   2.304   3.959 -1.7096  1.4012  1.3872
12580TIP3    H259156   5.214   2.340   3.839 -0.4279  1.0755  0.3587
12581TIP3   OH259157   4.201   6.661  13.950  0.3420 -0.0352 -0.3524
12581TIP3    H159158   4.210   6.741  14.002 -0.7108  0.3545 -0.7569
12581TIP3    H259159   4.107   6.643  13.949  0.5081 -0.9224 -0.8023
12582TIP3   OH259160   5.695   4.031  13.789 -0.4008  0.2273  0.2578
12582TIP3    H159161   5.617   4.066  13.833 -1.2411 -0.4513 -0.6937
12582TIP3    H259162   5.682   3.936  13.788  0.8777  0.0342  0.9157
12583TIP3   OH259163   4.682   0.891  14.444  0.0328  0.1761  0.2623
12583TIP3    H159164   4.701   0.965  14.501  2.8600  0.5184 -1.0507
12583TIP3    H259165   4.605   0.919  14.394 -0.8845  0.9070  2.0339
12584TIP3   OH259166   6.083   3.227   5.690  0.5651  0.1437 -0.0608
12584TIP3    H159167   6.112   3.136   5.691 -0.7142 -0.2613  2.5093
12584TIP3    H259168   5.991   3.223   5.664 -0.0307  0.5329  1.9588
12585TIP3   OH259169   6.526   2.945  11.844  0.0456 -0.3223  0.9328
12585TIP3    H159170   6.493   3.010  11.782  1.1536  0.2924  0.9702
12585TIP3    H259171   6.448   2.906  11.881 -0.6461 -0.9328 -1.0922
12586TIP3   OH259172   0.245   0.614  16.576 -0.6699  0.4275  0.2923
12586TIP3    H159173   0.307   0.644  16.510 -1.5038 -1.8851 -1.5987
12586TIP3    H259174   0.268   0.664  16.655  0.8207  2.6797 -1.5145
12587TIP3   OH259175   6.348   6.535  14.247 -0.2879  0.3623 -0.1884
12587TIP3    H159176   6.313   6.446  14.246  1.6496 -0.4221 -0.1353
12587TIP3    H259177   6.345   6.564  14.156  0.5056 -0.3484 -0.4467
12588TIP3   OH259178   1.771   6.718   5.980  0.0514 -0.6551  0.0656
12588TIP3    H159179   1.677   6.733   5.973  0.3395  0.8018 -0.8830
12588TIP3    H259180   1.794   6.670   5.900 -0.1244 -2.3801  1.0224
12589TIP3   OH259181   1.929   3.521   5.257  0.5474  0.2791  0.2915
12589TIP3    H159182   2.010   3.485   5.291 -0.7368 -2.2922  0.7786
12589TIP3    H259183   1.891   3.569   5.330  0.3931 -0.6978  0.8597
12590TIP3   OH259184   0.150   2.720   2.135 -0.0804  0.4119 -0.5715
12590TIP3    H159185   0.224   2.742   2.079  1.4148 -0.6038  0.9387
12590TIP3    H259186   0.184   2.728   2.224 -1.6623 -0.5069  0.1474
12591TIP3   OH259187   3.967   4.994   4.616 -0.1642 -0.2402 -0.3112
12591TIP3    H159188   3.891   5.046   4.641  0.4513  0.4228  0.2144
12591TIP3    H259189   3.931   4.908   4.593 -1.1507  0.3100 -0.8599
12592TIP3   OH259190   0.340   1.933   2.447  0.7038  0.1047  0.4250
12592TIP3    H159191   0.270   1.957   2.508  0.2209  0.2722 -0.1897
12592TIP3    H259192   0.402   2.005   2.452  1.0339 -0.2320  1.2714
12593TIP3   OH259193   3.233   5.508   0.810 -0.6489 -0.1044  0.2738
12593TIP3    H159194   3.155   5.546   0.768  1.0922  2.2180 -0.9942
12593TIP3    H259195   3.211   5.504   0.903 -1.9292  1.4716  0.0651
12594TIP3   OH259196   3.072   4.090   3.767  0.6731 -0.0278 -0.6323
12594TIP3    H159197   3.092   4.026   3.835 -0.7914  0.6627  0.4877
12594TIP3    H259198   3.032   4.039   3.696 -2.4310 -0.1374  1.1086
12595TIP3   OH259199   1.998   1.392   0.671 -0.6200  1.0761 -0.0919
12595TIP3    H159200   1.921   1.418   0.620 -1.2221 -0.9479 -0.2509
12595TIP3    H259201   1.962   1.355   0.752 -0.0739 -3.5692 -1.8125
12596TIP3   OH259202   5.963   3.952  17.136 -0.1604  0.1861  0.0463
12596TIP3    H159203   5.996   4.039  17.155  0.8121 -0.0786 -0.4155
12596TIP3    H259204   5.908   3.963  17.059  1.3758  0.1046 -1.0820
12597TIP3   OH259205   5.877   2.110   2.768 -0.1463  0.1971  0.4380
12597TIP3    H159206   5.881   2.065   2.683  1.6163  0.9673  0.0996
12597TIP3    H259207   5.865   2.202   2.745  1.8469  0.6048  0.9770
12598TIP3   OH259208   0.214   4.478   1.185 -0.0326 -0.3080  0.2521
12598TIP3    H159209   0.120   4.470   1.169  0.0904  0.0598 -0.6644
12598TIP3    H259210   0.221   4.546   1.252 -0.2313  2.0202 -2.0412
12599TIP3   OH259211   5.365   1.265   3.054  0.6341  0.1893  0.0493
12599TIP3    H159212   5.306   1.314   2.998 -0.9383 -0.5346  1.0516
12599TIP3    H259213   5.453   1.288   3.023 -0.0940  2.8701 -0.0903
12600TIP3   OH259214   2.599   0.542  17.140  0.2287  0.2501 -0.2529
12600TIP3    H159215   2.572   0.465  17.190  0.4543  1.9112  2.5649
12600TIP3    H259216   2.525   0.602  17.148 -0.1772  0.1590 -2.8981
12601TIP3   OH259217   0.173   6.458  15.157 -0.1884  0.5033 -0.7602
12601TIP3    H159218   0.266   6.437  15.157 -0.3870 -0.3979 -1.1121
12601TIP3    H259219   0.156   6.490  15.246  0.3540  0.2208 -0.5536
12602TIP3   OH259220   6.380   0.555   2.854 -0.6124  0.4045  0.2046
12602TIP3    H159221   6.466   0.574   2.892 -0.6991 -1.5018  1.4137
12602TIP3    H259222   6.399   0.498   2.780 -0.9366 -1.5151  1.5644
12603TIP3   OH259223   3.869   5.840   2.006  0.3210 -0.3562 -0.4618
12603TIP3    H159224   3.868   5.895   1.928  1.2514 -1.6777 -1.4310
12603TIP3    H259225   3.949   5.787   1.998  1.1624  0.4332  2.0563
12604TIP3   OH259226   1.222   2.408  15.440 -0.1407  0.4574 -0.2246
12604TIP3    H159227   1.263   2.475  15.495 -1.2540 -0.8303  2.2602
12604TIP3    H259228   1.275   2.329  15.455 -1.2505 -0.2465  0.0489
12605TIP3   OH259229   1.670   6.307   5.908 -0.0951  0.1179  0.4358
12605TIP3    H159230   1.663   6.212   5.920  3.7612 -0.3199 -0.1892
12605TIP3    H259231   1.658   6.343   5.996  0.2164 -1.0963  0.9936
12606TIP3   OH259232   6.644   3.670   2.554 -0.0604  0.0925 -0.4191
12606TIP3    H159233   6.586   3.676   2.478  0.8142 -1.5985 -1.2562
12606TIP3    H259234   6.719   3.723   2.531 -1.4485  2.7076  0.8785
12607TIP3   OH259235   4.953   6.530  14.955  0.6418  0.2322  0.1056
12607TIP3    H159236   4.888   6.598  14.970 -0.3015 -0.5477 -0.3587
12607TIP3    H259237   4.939   6.467  15.027  1.3085  0.3715  0.3659
12608TIP3   OH259238   0.827   1.385   1.276  0.1110 -0.0462  0.0798
12608TIP3    H159239   0.770   1.309   1.267  0.5040 -0.3545  0.1414
12608TIP3    H259240   0.806   1.422   1.361  0.1426 -0.2783  0.1898
12609TIP3   OH259241   6.623   5.743  12.332  0.2795  0.4263  0.6269
12609TIP3    H159242   6.528   5.738  12.318  0.3336  0.2006  0.3442
12609TIP3    H259243   6.653   5.809  12.270  0.0888  1.6276  1.7967
12610TIP3   OH259244   4.725   1.540   6.365 -0.0901  0.8845  0.2897
12610TIP3    H159245   4.748   1.541   6.272  1.1687 -0.2466  0.5764
12610TIP3    H259246   4.765   1.460   6.399  0.8434  2.1270  2.1694
12611TIP3   OH259247   3.423   1.357   1.750  0.1438  0.0382  0.3873
12611TIP3    H159248   3.395   1.442   1.715 -0.0067  1.0534  2.8981
12611TIP3    H259249   3.513   1.372   1.779  1.0501 -1.4143 -1.5790
12612TIP3   OH259250   1.770   3.588  15.961  0.0404  0.7409  0.1640
12612TIP3    H159251   1.831   3.613  15.891  0.4420  0.0563  0.2738
12612TIP3    H259252   1.788   3.650  16.031 -0.8515  1.8872 -0.6010
12613TIP3   OH259253   3.298   6.119  14.868  0.2712 -0.0264  0.1039
12613TIP3    H159254   3.303   6.202  14.821 -0.4799 -0.9352 -1.6401
12613TIP3    H259255   3.228   6.132  14.933  0.5967  0.8934  0.2837
12614TIP3   OH259256   1.760   5.028  16.369 -0.0076  0.2236  0.0324
12614TIP3    H159257   1.683   5.073  16.404 -0.7282 -0.4522 -0.6555
12614TIP3    H259258   1.736   5.006  16.279  1.9479  2.2143 -1.0229
12615TIP3   OH259259   5.916   6.262   3.698  0.3135 -0.3914  0.1926
12615TIP3    H159260   5.993   6.272   3.642  0.0809 -0.1811 -0.0889
12615TIP3    H259261   5.919   6.337   3.757 -1.2754  1.2285 -1.7372
12616TIP3   OH259262   0.352   6.398   4.510  0.5837  0.1347  0.8291
12616TIP3    H159263   0.416   6.366   4.446 -0.0650  0.5535 -0.0422
12616TIP3    H259264   0.282   6.332   4.509  0.2545  0.4869  0.6071
12617TIP3   OH259265   1.360   2.405  15.113  0.3775  0.1443  0.2152
12617TIP3    H159266   1.400   2.334  15.162 -1.6216 -1.3165 -0.2072
12617TIP3    H259267   1.400   2.400  15.026 -1.2657 -1.8672 -0.4773
12618TIP3   OH259268   5.447   5.353  12.667 -0.5374  0.6915  0.7792
12618TIP3    H159269   5.504   5.381  12.738 -1.7198 -1.2783  2.5424
12618TIP3    H259270   5.410   5.434  12.632  1.2707  1.7871  1.3286
12619TIP3   OH259271   2.285   5.092   5.646 -0.0525 -0.1646 -0.2808
12619TIP3    H159272   2.371   5.049   5.652 -0.2659 -0.6738 -0.8695
12619TIP3    H259273   2.223   5.020   5.634 -0.3726  0.3319 -1.6835
12620TIP3   OH259274   4.161   6.473   4.240  0.4024  0.0511  0.6436
12620TIP3    H159275   4.065   6.480   4.242  0.2888 -1.2858  0.3857
12620TIP3    H259276   4.190   6.555   4.201 -0.7473 -0.2513 -0.9307
12621TIP3   OH259277   0.508   1.982  11.014 -0.8099  0.0204  0.6690
12621TIP3    H159278   0.508   1.918  11.084  2.2185 -0.1784  0.5508
12621TIP3    H259279   0.526   1.932  10.935  1.9760  0.9778  0.6249
12622TIP3   OH259280   4.826   6.535  15.742 -0.1065  0.3429 -0.9124
12622TIP3    H159281   4.855   6.598  15.676  1.8608  0.3224 -0.1199
12622TIP3    H259282   4.872   6.454  15.719 -0.2638  0.0378 -0.1734
12623TIP3   OH259283   2.906   5.578  17.117 -0.3439  0.1235  0.1537
12623TIP3    H159284   2.949   5.647  17.065 -1.9669 -0.2310 -1.7347
12623TIP3    H259285   2.813   5.602  17.116 -0.7598 -1.4154  0.5317
12624TIP3   OH259286   4.355   5.873   5.608  0.2459 -0.8208  0.2873
12624TIP3    H159287   4.445   5.866   5.578  0.3424  0.8004  0.1678
12624TIP3    H259288   4.359   5.855   5.702  0.4764 -2.1968  0.0150
12625TIP3   OH259289   4.672   5.798   1.286  0.4287 -0.9275 -0.8496
12625TIP3    H159290   4.708   5.885   1.306  0.6901 -1.0905 -0.5968
12625TIP3    H259291   4.578   5.812   1.278  0.2926 -0.8645  0.6392
12626TIP3   OH259292   4.752   6.784  16.110  0.6159  0.0121 -0.7106
12626TIP3    H159293   4.688   6.747  16.050 -1.3855  0.6911  0.9487
12626TIP3    H259294   4.716   6.768  16.197  2.7736  0.2868  0.2705
12627TIP3   OH259295   0.436   0.056  11.979 -0.2210 -0.3099 -0.3796
12627TIP3    H159296   0.405   0.043  12.069  2.4005  0.2453  0.6392
12627TIP3    H259297   0.426   0.150  11.964 -0.7046 -0.4101 -0.7144
12628TIP3   OH259298   3.731   6.315  15.717  0.0740 -0.8706  0.2401
12628TIP3    H159299   3.790   6.368  15.770  0.1856  0.7925 -1.4796
12628TIP3    H259300   3.643   6.345  15.741  0.1158 -0.2706 -0.3403
12629TIP3   OH259301   5.463   2.159  10.537 -0.6840 -0.0452 -0.7861
12629TIP3    H159302   5.540   2.117  10.577 -0.6364 -1.0837 -1.9412
12629TIP3    H259303   5.442   2.232  10.596 -0.7505 -1.6675  1.2651
12630TIP3   OH259304   0.461   6.453   1.985  0.7226 -0.5156 -0.4589
12630TIP3    H159305   0.557   6.448   1.979  0.6790 -1.2437 -0.5715
12630TIP3    H259306   0.431   6.364   1.969  0.0116 -0.2566 -0.5942
12631TIP3   OH259307   5.726   2.423   0.579 -0.1819 -0.3615  0.4839
12631TIP3    H159308   5.778   2.356   0.536 -0.4396 -0.6520  0.6250
12631TIP3    H259309   5.788   2.493   0.598  0.5274 -1.4317  2.2360
12632TIP3   OH259310   2.661   3.511  12.788 -0.2041  0.0065 -0.0222
12632TIP3    H159311   2.685   3.418  12.792 -0.9028 -0.1421  1.0319
12632TIP3    H259312   2.566   3.512  12.801 -0.4428  0.7579 -1.6703
12633TIP3   OH259313   4.878   2.036   4.038 -0.3922 -0.2190 -0.8014
12633TIP3    H159314   4.850   1.966   3.978 -0.4089  1.1709 -2.4719
12633TIP3    H259315   4.971   2.021   4.051 -0.7742 -1.6473  0.3610
12634TIP3   OH259316   2.476   4.696  13.368 -0.1068 -0.2967  0.2310
12634TIP3    H159317   2.475   4.661  13.278  0.2783 -0.0360  0.1244
12634TIP3    H259318   2.534   4.637  13.416 -1.2079 -1.1066  0.5863
12635TIP3   OH259319   5.265   0.430  15.164 -0.2330 -0.2365 -0.0594
12635TIP3    H159320   5.227   0.475  15.239 -1.3009 -0.9391 -0.1730
12635TIP3    H259321   5.329   0.370  15.203  0.8609  1.0207  0.1209
12636TIP3   OH259322   4.673   1.583  14.500  0.0112 -0.6039 -0.0441
12636TIP3    H159323   4.697   1.546  14.416 -0.2831 -2.7887  0.8086
12636TIP3    H259324   4.587   1.547  14.519 -0.0762  0.1381  1.0469
12637TIP3   OH259325   6.432   3.296   3.625  0.0549 -0.2882  0.1515
12637TIP3    H159326   6.451   3.314   3.717  1.0087  3.1448 -0.6462
12637TIP3    H259327   6.434   3.382   3.583 -1.3323 -1.6829 -2.9216
12638TIP3   OH259328   3.843   0.622  11.513 -0.0464  0.2064 -0.4522
12638TIP3    H159329   3.867   0.557  11.447 -0.4003 -0.1191 -0.2596
12638TIP3    H259330   3.906   0.608  11.584 -0.0334  0.1667 -0.4715
12639TIP3   OH259331   3.278   5.219   5.624  0.3811  0.2348 -0.0783
12639TIP3    H159332   3.360   5.176   5.649 -0.5429 -1.6670 -0.2385
12639TIP3    H259333   3.291   5.244   5.533  0.1433 -1.7329 -0.6863
12640TIP3   OH259334   1.391   3.711  11.784  0.1083  0.2393 -0.5416
12640TIP3    H159335   1.317   3.659  11.750  0.6105  0.7211 -2.4533
12640TIP3    H259336   1.402   3.781  11.719  1.6635  0.7088  0.2160
12641TIP3   OH259337   4.358   3.739   4.552 -0.5333  0.2204  0.0102
12641TIP3    H159338   4.411   3.698   4.484  0.3529 -3.0773  2.5230
12641TIP3    H259339   4.275   3.761   4.509  0.6566 -0.1336 -2.5245
12642TIP3   OH259340   1.312   5.305   0.135  0.3148  0.1304  0.6079
12642TIP3    H159341   1.256   5.259   0.197 -1.0144  0.6639 -0.1732
12642TIP3    H259342   1.263   5.385   0.113  1.1548  0.3577 -0.4716
12643TIP3   OH259343   3.644   1.861  11.593 -0.7585 -0.3955  0.4430
12643TIP3    H159344   3.655   1.879  11.499 -2.0255 -0.6110  0.2425
12643TIP3    H259345   3.700   1.785  11.609 -0.2608 -0.1410 -0.0642
12644TIP3   OH259346   4.642   4.525  12.066  0.4217  0.3466  0.1329
12644TIP3    H159347   4.553   4.537  12.101 -0.2672 -0.0680 -1.4633
12644TIP3    H259348   4.687   4.473  12.133 -0.7445 -0.0443  0.6239
12645TIP3   OH259349   2.087   0.280  13.389  0.1000 -0.3476 -0.0407
12645TIP3    H159350   2.140   0.359  13.390 -0.5481  0.1284 -1.5203
12645TIP3    H259351   1.997   0.311  13.376 -0.0971 -1.3346 -1.1439
12646TIP3   OH259352   3.238   5.323  17.151  0.6722 -0.2211 -0.7559
12646TIP3    H159353   3.206   5.413  17.160 -1.3693 -1.0277  0.4252
12646TIP3    H259354   3.271   5.301  17.238  0.1211 -0.9759 -0.7282
12647TIP3   OH259355   0.558   3.593  14.635 -0.2155  0.5859 -0.3021
12647TIP3    H159356   0.508   3.672  14.617 -1.9066 -0.7273 -1.5376
12647TIP3    H259357   0.507   3.522  14.596  2.6178 -0.8175 -1.6263
12648TIP3   OH259358   1.733   6.512   4.855  0.1066 -0.1360  0.2201
12648TIP3    H159359   1.648   6.539   4.821  0.7929  2.1077  0.2383
12648TIP3    H259360   1.788   6.500   4.777 -0.0482 -1.0196  0.2400
12649TIP3   OH259361   5.364   5.684   5.237 -0.3401 -0.5606  0.1802
12649TIP3    H159362   5.379   5.605   5.185 -2.0965 -0.2205 -0.8932
12649TIP3    H259363   5.296   5.659   5.301 -2.0924  0.4751 -1.2099
12650TIP3   OH259364   4.153   5.631   5.417 -0.0460  0.0282 -0.2110
12650TIP3    H159365   4.194   5.545   5.422  0.2777  0.2403  1.2114
12650TIP3    H259366   4.065   5.615   5.384  0.2114 -0.7795 -0.4946
12651TIP3   OH259367   5.074   6.081  10.809  0.1600 -0.1300  0.3254
12651TIP3    H159368   5.096   6.115  10.723 -1.6157 -1.5159 -0.7049
12651TIP3    H259369   5.118   5.996  10.813 -1.1809 -0.8441  0.0825
12652TIP3   OH259370   1.267   2.530   3.606  0.6219  0.2475 -0.3291
12652TIP3    H159371   1.200   2.490   3.662  0.9651 -1.9174 -1.4110
12652TIP3    H259372   1.332   2.566   3.667 -0.8434  1.1984  0.6972
12653TIP3   OH259373   0.393   6.554  16.809  0.3944 -0.2070  0.1103
12653TIP3    H159374   0.348   6.638  16.811  0.4972 -0.1612  4.3869
12653TIP3    H259375   0.326   6.490  16.831  1.0592 -0.8268  0.3494
12654TIP3   OH259376   6.123   0.169   4.104 -0.5267 -0.1692 -0.0516
12654TIP3    H159377   6.114   0.090   4.158 -1.0676 -1.2252 -1.6475
12654TIP3    H259378   6.215   0.171   4.080 -0.2155  0.4772  1.1386
12655TIP3   OH259379   6.182   6.294   0.275  0.4728  0.5121 -0.6073
12655TIP3    H159380   6.244   6.319   0.207 -0.0573  0.2128 -1.2137
12655TIP3    H259381   6.228   6.226   0.325  0.6714  0.3583 -0.9936
12656TIP3   OH259382   2.964   0.221   0.477 -0.0493  0.2349  0.1581
12656TIP3    H159383   3.017   0.298   0.458 -0.3713  0.4046 -0.0632
12656TIP3    H259384   2.878   0.257   0.499 -0.1378 -0.0501  0.2812
12657TIP3   OH259385   2.842   3.011  12.106 -0.7066 -0.4932  0.0409
12657TIP3    H159386   2.919   3.068  12.115 -0.6519 -0.6916  0.8046
12657TIP3    H259387   2.879   2.923  12.093 -0.7984 -0.4616 -0.4406
12658TIP3   OH259388   2.953   0.648  11.685  0.0223  0.6390 -0.7695
12658TIP3    H159389   2.984   0.711  11.621 -0.8194  1.5657 -0.2747
12658TIP3    H259390   2.892   0.697  11.740 -0.0115 -0.3884  0.1362
12659TIP3   OH259391   6.544   0.114  13.997  0.3139  0.1348  0.5711
12659TIP3    H159392   6.524   0.181  14.062  2.3743  0.4057  0.9875
12659TIP3    H259393   6.468   0.112  13.939 -0.0309  2.4513  0.8893
12660TIP3   OH259394   5.737   5.280  16.835  0.0403  0.1826 -0.2671
12660TIP3    H159395   5.815   5.298  16.784  0.0456 -0.9239 -0.6610
12660TIP3    H259396   5.764   5.215  16.900 -0.3885  0.2943  0.0326
12661TIP3   OH259397   0.977   2.142  14.757  0.1337 -0.4023  0.1156
12661TIP3    H159398   1.033   2.151  14.835  3.0492  2.4139 -2.1331
12661TIP3    H259399   0.994   2.054  14.726  2.3441 -0.0675  0.2691
12662TIP3   OH259400   3.486   5.031   5.374  0.3881 -0.2555 -0.0061
12662TIP3    H159401   3.518   5.046   5.463  0.6531  2.1520 -0.4924
12662TIP3    H259402   3.397   4.996   5.386  1.1390 -1.7935  1.2167
12663TIP3   OH259403   0.956   1.124   3.512  0.6970  0.4018 -0.5240
12663TIP3    H159404   0.997   1.038   3.501  2.6333  1.3629 -0.8655
12663TIP3    H259405   0.978   1.151   3.601 -0.2056  0.4108 -0.2926
12664TIP3   OH259406   3.107   3.248   2.736  0.0070  0.0869  0.4196
12664TIP3    H159407   3.194   3.270   2.768  0.1164  1.6316 -0.8881
12664TIP3    H259408   3.059   3.330   2.736 -1.1145 -0.5512  0.1133
12665TIP3   OH259409   1.123   0.453  10.795 -0.1832  0.2041 -1.0178
12665TIP3    H159410   1.085   0.413  10.717  1.0242  1.5331 -2.3248
12665TIP3    H259411   1.049   0.494  10.839 -0.4697  1.9318 -3.0146
12666TIP3   OH259412   2.474   1.286   0.509 -0.0249 -0.0226 -0.4660
12666TIP3    H159413   2.518   1.205   0.534  1.0290  0.7064  0.1532
12666TIP3    H259414   2.389   1.283   0.553  0.9467  0.2496  1.4747
12667TIP3   OH259415   0.008   4.431   3.635 -0.4086 -0.0783  0.4088
12667TIP3    H159416  -0.047   4.489   3.582  0.7894 -0.4507 -1.2860
12667TIP3    H259417   0.097   4.465   3.624  0.1004 -1.2902  0.6782
12668TIP3   OH259418   0.411   0.052   2.530 -0.4162  0.0622 -0.0627
12668TIP3    H159419   0.504   0.061   2.550 -0.4081 -0.3433  0.0886
12668TIP3    H259420   0.369   0.122   2.579 -0.2559 -0.1252  0.3461
12669TIP3   OH259421   4.917   5.797  12.993 -0.1921  0.3137  0.2535
12669TIP3    H159422   4.841   5.785  12.937  1.0046  0.5380 -1.4774
12669TIP3    H259423   4.885   5.849  13.066 -1.5433  0.9995 -0.8002
12670TIP3   OH259424   3.853   1.458  16.201  0.1312  0.0473 -0.3948
12670TIP3    H159425   3.791   1.385  16.200  0.5445 -0.3194  0.3857
12670TIP3    H259426   3.934   1.420  16.165  0.1067  0.3332 -0.7457
12671TIP3   OH259427   3.761   4.564  11.008  0.5348 -0.1846 -0.5331
12671TIP3    H159428   3.745   4.616  10.929  0.5531  1.3931  0.5003
12671TIP3    H259429   3.738   4.621  11.081  0.5043 -1.6393  0.6269
12672TIP3   OH259430   4.567   5.148  13.463 -0.1942  0.1331  0.2700
12672TIP3    H159431   4.475   5.135  13.487 -0.1211 -2.0941 -0.5057
12672TIP3    H259432   4.597   5.218  13.520 -2.2533  0.5671  0.8663
12673TIP3   OH259433   1.619   6.367   4.111  0.4738 -0.1364  0.1265
12673TIP3    H159434   1.652   6.438   4.056 -0.9229 -0.3269 -0.9658
12673TIP3    H259435   1.645   6.392   4.200  0.6161  1.3781 -0.3260
12674TIP3   OH259436   2.915   6.723  14.806 -0.7548 -0.5483 -0.3951
12674TIP3    H159437   2.827   6.750  14.832 -1.2580 -0.0999 -2.4856
12674TIP3    H259438   2.965   6.805  14.798 -0.3052 -0.7575  0.2256
12675TIP3   OH259439   0.674   3.472   2.160  0.2516 -0.0966  0.3951
12675TIP3    H159440   0.704   3.508   2.077  1.1832 -0.1289  0.7128
12675TIP3    H259441   0.692   3.542   2.224 -1.2930  0.2836  0.4292
12676TIP3   OH259442   3.835   2.739   1.298  0.1136 -0.3212 -0.4015
12676TIP3    H159443   3.803   2.800   1.364  0.0272  0.5245 -1.2225
12676TIP3    H259444   3.868   2.794   1.228 -1.0528 -1.2228 -1.6881
12677TIP3   OH259445   3.978   6.160  14.515  0.0277 -0.4041  0.3482
12677TIP3    H159446   4.070   6.174  14.537 -0.0284 -0.1026  0.3925
12677TIP3    H259447   3.931   6.174  14.598 -0.0437 -0.6901  0.3571
12678TIP3   OH259448   6.316   1.559  15.047 -0.5168 -0.6651 -0.0332
12678TIP3    H159449   6.347   1.529  15.132 -0.5348 -1.1374 -0.1923
12678TIP3    H259450   6.228   1.523  15.039 -0.0845 -1.6030 -0.7433
12679TIP3   OH259451   2.894   3.117   1.451  0.8029  0.1614 -0.2424
12679TIP3    H159452   2.818   3.061   1.466  0.5093  0.5441 -0.2977
12679TIP3    H259453   2.949   3.068   1.391  1.0907 -0.5695  0.6065
12680TIP3   OH259454   2.359   0.416  15.883 -0.2466  0.2632 -0.1787
12680TIP3    H159455   2.384   0.471  15.809  0.6734 -1.1197 -0.9141
12680TIP3    H259456   2.326   0.478  15.949 -0.2146  1.5869 -1.3773
12681TIP3   OH259457   0.236   2.395  17.088 -0.1930 -0.2135 -0.1595
12681TIP3    H159458   0.227   2.442  17.005  0.5006 -2.6794 -1.6971
12681TIP3    H259459   0.153   2.410  17.133 -0.1503  2.0578 -0.7935
12682TIP3   OH259460   6.698   2.146   3.133  0.4674  0.6730  0.1554
12682TIP3    H159461   6.753   2.069   3.122 -1.5236 -0.6859 -0.5521
12682TIP3    H259462   6.752   2.218   3.101  1.2599 -0.8403 -2.0293
12683TIP3   OH259463   5.462   3.059   3.758  0.1195  0.4706  0.4440
12683TIP3    H159464   5.384   3.055   3.702  0.2689  3.5707 -0.0543
12683TIP3    H259465   5.517   2.988   3.727 -2.5844 -1.9563  0.9613
12684TIP3   OH259466   0.954   1.463  14.826  0.1307  0.1207  0.0524
12684TIP3    H159467   0.879   1.442  14.770  1.0911  0.2719 -1.3198
12684TIP3    H259468   0.918   1.463  14.915 -1.4035 -0.2168 -0.5455
12685TIP3   OH259469   4.871   0.050   3.357  0.2893 -0.1891 -0.1557
12685TIP3    H159470   4.807   0.005   3.412 -0.3592  0.6339 -0.2415
12685TIP3    H259471   4.947  -0.009   3.357 -0.3022 -0.9670  0.2846
12686TIP3   OH259472   4.923   2.352   2.514  0.5082  0.0199 -0.2843
12686TIP3    H159473   4.940   2.438   2.552 -1.2201  0.7438 -1.1436
12686TIP3    H259474   5.009   2.309   2.515  1.6679  2.2219 -1.0451
12687TIP3   OH259475   0.670   2.473   5.909 -0.1458  0.5858 -0.0793
12687TIP3    H159476   0.660   2.562   5.874 -0.8073  0.5400 -0.0089
12687TIP3    H259477   0.663   2.417   5.832 -0.8427  0.5303  0.0220
12688TIP3   OH259478   0.995   0.681   1.902 -0.0750 -0.4130 -0.6034
12688TIP3    H159479   0.959   0.624   1.970 -2.2706  0.5631 -0.8933
12688TIP3    H259480   1.037   0.621   1.840  0.5184 -1.4325  0.7594
12689TIP3   OH259481   5.266   6.500   3.053 -0.5008  0.1500 -0.1456
12689TIP3    H159482   5.218   6.559   3.111 -1.6147 -1.1604  0.2965
12689TIP3    H259483   5.220   6.416   3.061  0.7093 -0.6286 -1.1954
12690TIP3   OH259484   6.623   1.119  12.475 -0.0542  0.0334 -0.2203
12690TIP3    H159485   6.652   1.087  12.561  1.7289  0.4357 -0.6639
12690TIP3    H259486   6.616   1.214  12.486  0.1202  0.0790 -0.5045
12691TIP3   OH259487   2.179   4.955   4.497 -0.0581  0.5328 -0.0699
12691TIP3    H159488   2.113   4.909   4.549  2.2391 -1.1179  1.5057
12691TIP3    H259489   2.158   4.932   4.407 -1.1759 -0.6393  0.4660
12692TIP3   OH259490   3.130   2.622   4.690 -0.0188  0.0342 -0.6192
12692TIP3    H159491   3.035   2.628   4.689 -0.0734 -0.7292 -0.1617
12692TIP3    H259492   3.158   2.688   4.753 -0.3947 -1.5341  1.2386
12693TIP3   OH259493   5.786   3.168   0.147 -0.2817 -0.0505  0.3998
12693TIP3    H159494   5.821   3.232   0.209  1.3662 -0.9648  0.4184
12693TIP3    H259495   5.749   3.099   0.201 -0.2220 -0.1095  0.3655
12694TIP3   OH259496   5.874   3.967  11.875 -0.9320  0.1319 -0.3688
12694TIP3    H159497   5.914   3.894  11.827  0.4200  0.0309  0.8871
12694TIP3    H259498   5.794   3.930  11.911  0.0149 -0.9047  0.7231
12695TIP3   OH259499   0.678   1.712   3.395 -0.0180  0.1631  0.1666
12695TIP3    H159500   0.717   1.762   3.324 -0.6948  2.9725  1.6816
12695TIP3    H259501   0.600   1.672   3.356 -1.5637  3.3765 -0.2654
12696TIP3   OH259502   4.942   5.978  15.221  0.4178 -0.7256 -0.1481
12696TIP3    H159503   5.020   5.923  15.227  0.3855 -0.7401  0.1303
12696TIP3    H259504   4.935   5.999  15.128  1.1774 -0.1208 -0.0788
12697TIP3   OH259505   5.288   0.864  11.268  0.2979  0.2076 -0.1369
12697TIP3    H159506   5.229   0.912  11.326 -1.1459 -1.7795  0.0850
12697TIP3    H259507   5.242   0.861  11.184  0.3748 -0.8164 -0.1385
12698TIP3   OH259508   3.626   5.381  14.998  0.0890 -0.0023 -0.1428
12698TIP3    H159509   3.596   5.297  14.966  0.3410 -0.9420  1.9722
12698TIP3    H259510   3.700   5.404  14.941  0.3233 -1.4372 -0.4327
12699TIP3   OH259511   4.066   4.490   5.259  0.3499 -0.2819  0.3327
12699TIP3    H159512   4.004   4.443   5.315  0.1369 -1.6527 -1.0441
12699TIP3    H259513   4.101   4.424   5.201 -0.8454  1.4468 -2.4747
12700TIP3   OH259514   2.002   5.077  13.342  0.1296 -0.2161  0.1012
12700TIP3    H159515   1.963   5.114  13.421  0.2146 -0.5228  0.2839
12700TIP3    H259516   1.928   5.054  13.286  0.0643  3.6521 -1.5884
12701TIP3   OH259517   1.044   3.355  13.773 -0.4454  0.1730 -0.3300
12701TIP3    H159518   0.986   3.398  13.836  0.6098  0.8823  0.1528
12701TIP3    H259519   0.999   3.367  13.689 -1.0403  0.6615  0.0490
12702TIP3   OH259520   4.051   5.656   2.429 -0.8325 -0.2092  0.3890
12702TIP3    H159521   4.036   5.713   2.504 -2.0753 -0.8750  0.6529
12702TIP3    H259522   4.123   5.599   2.455 -0.3117  0.4967  0.5284
12703TIP3   OH259523   1.555   3.693   2.526  0.3000  0.1322  0.1426
12703TIP3    H159524   1.467   3.692   2.489  0.0649  0.5766  0.6809
12703TIP3    H259525   1.562   3.611   2.575 -0.0062  0.3531  0.5502
12704TIP3   OH259526   4.135   6.660  14.341  0.2212 -0.7703  0.0124
12704TIP3    H159527   4.087   6.720  14.398  1.0228 -1.4191  1.4102
12704TIP3    H259528   4.090   6.576  14.351 -0.9644 -0.4005 -2.0156
12705TIP3   OH259529   3.496   3.082   4.141 -0.1155  0.0961  0.9359
12705TIP3    H159530   3.413   3.098   4.187 -1.3019  0.8580 -1.3823
12705TIP3    H259531   3.555   3.149   4.175 -1.6838  2.1849 -0.3507
12706TIP3   OH259532   5.290   2.778  14.089  0.5573 -0.2423  0.4827
12706TIP3    H159533   5.369   2.828  14.108  0.5629  0.2588 -0.7948
12706TIP3    H259534   5.321   2.690  14.068  0.6548 -0.4284  1.3798
12707TIP3   OH259535   4.732   1.087  16.396 -0.1429 -0.0118 -0.0727
12707TIP3    H159536   4.817   1.097  16.354  0.3944  1.5242  1.3311
12707TIP3    H259537   4.687   1.020  16.345  2.1649 -1.3385 -0.4102
12708TIP3   OH259538   0.787   6.615  16.516 -0.3211 -0.4694 -0.2641
12708TIP3    H159539   0.842   6.580  16.586  0.7758  0.6812 -0.5397
12708TIP3    H259540   0.829   6.587  16.435 -0.6681 -0.3815 -0.4751
12709TIP3   OH259541   1.228   1.185   2.928 -0.5172 -0.1791  0.0035
12709TIP3    H159542   1.140   1.222   2.918 -0.4929  0.2318  1.1383
12709TIP3    H259543   1.236   1.170   3.023 -0.0049 -1.8070 -0.2875
12710TIP3   OH259544   4.372   1.624  12.531  0.1187  0.0786  0.1179
12710TIP3    H159545   4.391   1.714  12.502  0.7429 -0.2679 -0.5692
12710TIP3    H259546   4.438   1.607  12.598 -1.8342  1.1742  2.3849
12711TIP3   OH259547   6.748   3.267  15.054  0.2846 -0.0479 -0.1512
12711TIP3    H159548   6.655   3.248  15.051  0.4461 -0.7918 -0.8355
12711TIP3    H259549   6.784   3.200  15.112  0.3017  0.6554  0.6564
12712TIP3   OH259550   3.362   0.033  12.346  0.1593 -0.2491 -0.5966
12712TIP3    H159551   3.377  -0.061  12.334  0.4801 -0.2603 -0.1322
12712TIP3    H259552   3.413   0.075  12.277  1.6454 -0.3294  0.4234
12713TIP3   OH259553   2.501   5.499  13.692 -0.1862  0.9129 -0.1465
12713TIP3    H159554   2.591   5.524  13.712  0.3799 -1.5558  0.5669
12713TIP3    H259555   2.456   5.499  13.776 -0.7434  1.6825 -0.4393
12714TIP3   OH259556   2.926   1.050  13.437  0.0643  0.3221  0.4912
12714TIP3    H159557   2.886   1.039  13.523  0.5690 -1.6315  0.5067
12714TIP3    H259558   2.869   1.001  13.378  0.6584  0.2230 -0.0045
12715TIP3   OH259559   4.669   2.685  16.552  0.0678 -0.2824 -0.0587
12715TIP3    H159560   4.576   2.699  16.570  0.0081  0.0495 -0.5966
12715TIP3    H259561   4.670   2.627  16.476  0.3122 -1.4522  0.8175
12716TIP3   OH259562   4.091   5.991   6.328  0.1256  0.7236  0.2684
12716TIP3    H159563   4.168   5.937   6.310 -1.1455 -0.4667 -1.7313
12716TIP3    H259564   4.107   6.025   6.416  1.6156 -1.7757  1.0318
12717TIP3   OH259565   6.403   5.765   4.726 -0.1352  0.5554  0.3738
12717TIP3    H159566   6.312   5.795   4.727 -0.2268  0.3684 -0.8770
12717TIP3    H259567   6.452   5.839   4.691  0.2132  0.6913  1.1443
12718TIP3   OH259568   0.027   1.569  16.204 -0.3242  0.4348  0.0263
12718TIP3    H159569   0.088   1.504  16.238 -0.1840  1.1422  1.1316
12718TIP3    H259570   0.071   1.603  16.125  0.2610  0.2372  0.2633
12719TIP3   OH259571   3.938   6.611  13.882 -0.1596  0.0646  0.1010
12719TIP3    H159572   3.861   6.586  13.932 -0.1897  1.7307  0.9384
12719TIP3    H259573   3.923   6.703  13.860  0.7212 -0.1234 -1.3689
12720TIP3   OH259574   5.762   0.505  12.987  1.1372 -0.0358  0.2381
12720TIP3    H159575   5.746   0.414  12.959  0.5311  0.0590  0.2839
12720TIP3    H259576   5.843   0.529  12.941  1.0324 -0.4310 -0.1646
12721TIP3   OH259577   1.336   2.269  16.863 -0.4135 -0.2845 -0.3178
12721TIP3    H159578   1.375   2.189  16.828  2.3258  0.9119 -0.1243
12721TIP3    H259579   1.304   2.316  16.786  0.7247 -0.1816 -0.7472
12722TIP3   OH259580   2.158   5.155  16.887 -0.1765 -0.2930  0.6296
12722TIP3    H159581   2.133   5.064  16.901 -2.6386  0.3629  0.7811
12722TIP3    H259582   2.111   5.203  16.955 -1.3739  1.4102 -1.3456
12723TIP3   OH259583   5.755   3.563  15.824 -0.4702  0.2335 -0.1031
12723TIP3    H159584   5.670   3.528  15.798 -0.0127 -1.2147  0.3099
12723TIP3    H259585   5.815   3.488  15.820  0.2131  0.6054  2.2647
12724TIP3   OH259586   3.421   4.997  14.216  0.0589 -0.7313  0.0076
12724TIP3    H159587   3.465   4.912  14.216  0.8847 -0.3359 -1.6494
12724TIP3    H259588   3.345   4.984  14.160 -0.5061 -0.7206  0.7763
12725TIP3   OH259589   3.522   3.229  12.008  0.5677 -0.0925 -1.0299
12725TIP3    H159590   3.492   3.319  11.993  0.3971 -0.0171 -0.2754
12725TIP3    H259591   3.544   3.226  12.101 -0.2789 -1.0694 -0.8428
12726TIP3   OH259592   2.919   3.659  12.641 -0.0934 -0.3834  0.8296
12726TIP3    H159593   2.947   3.624  12.725  1.5619  0.6319  0.7222
12726TIP3    H259594   2.847   3.718  12.662  0.0191 -0.4798  1.4815
12727TIP3   OH259595   5.148   1.184   3.918 -0.3183 -0.2735 -0.4023
12727TIP3    H159596   5.149   1.107   3.861  1.5409 -0.8358  0.3594
12727TIP3    H259597   5.182   1.255   3.863 -0.1977 -0.4356 -0.5375
12728TIP3   OH259598   1.510   6.642   4.480 -0.1165 -0.2484 -0.6706
12728TIP3    H159599   1.475   6.660   4.393 -0.2950 -0.3194 -0.6135
12728TIP3    H259600   1.440   6.596   4.525  0.4661 -1.3982 -0.9329
12729TIP3   OH259601   5.236   4.215  15.540  0.4082  0.1499  0.0717
12729TIP3    H159602   5.229   4.300  15.583  1.6392 -0.1187  0.8270
12729TIP3    H259603   5.193   4.154  15.600  2.4618 -0.2863  1.1203
12730TIP3   OH259604   1.095   2.357  14.602  0.3819 -0.8503 -0.0556
12730TIP3    H159605   1.036   2.288  14.632 -1.2580  1.0290  1.1963
12730TIP3    H259606   1.079   2.363  14.508 -0.6050 -1.1378  0.0883
12731TIP3   OH259607   2.428   5.083  16.576  0.1436 -0.2435  0.1083
12731TIP3    H159608   2.523   5.093  16.567  0.1461  0.6220  0.9450
12731TIP3    H259609   2.401   5.161  16.625 -0.7439 -1.3798  1.4786
12732TIP3   OH259610   2.634   4.839  11.762 -0.1540 -0.4553  0.0618
12732TIP3    H159611   2.589   4.908  11.714  1.3856 -0.1099 -0.9303
12732TIP3    H259612   2.619   4.859  11.854  0.7471  1.5530 -0.1957
12733TIP3   OH259613   1.204   0.407  12.684  0.1594  0.8229  0.2943
12733TIP3    H159614   1.270   0.434  12.620 -0.7230  2.9888  0.2689
12733TIP3    H259615   1.173   0.323  12.651  0.0819  1.6704 -1.8834
12734TIP3   OH259616   2.505   0.372  13.910 -0.5434 -0.1313 -0.6282
12734TIP3    H159617   2.471   0.421  13.985 -0.5923 -0.3289 -0.5223
12734TIP3    H259618   2.472   0.283  13.922 -1.7110  0.1378 -1.5935
12735TIP3   OH259619   5.027   0.955   0.365 -0.0411  0.0281 -0.3278
12735TIP3    H159620   5.088   1.028   0.371 -0.2298  0.1684 -0.1291
12735TIP3    H259621   4.947   0.993   0.328  0.0666 -0.2000 -0.8001
12736TIP3   OH259622   4.022   3.499  16.589 -0.4324 -0.4864  0.1767
12736TIP3    H159623   4.015   3.587  16.554  2.4976  0.0812  0.8900
12736TIP3    H259624   3.975   3.444  16.526 -2.2052  1.5253 -0.3170
12737TIP3   OH259625   6.535   2.264   2.298 -0.2470  0.2311  0.2465
12737TIP3    H159626   6.542   2.341   2.242  0.9473  0.7107  1.0487
12737TIP3    H259627   6.512   2.299   2.384  0.4357 -0.2957  0.6495
12738TIP3   OH259628   1.726   2.021   4.905  0.1083  0.0835  0.0143
12738TIP3    H159629   1.809   2.010   4.951  0.6526  0.0966 -0.9371
12738TIP3    H259630   1.707   2.114   4.909  1.2857  0.4272 -1.6647
12739TIP3   OH259631   6.656   3.667   3.825 -0.1862  0.2890 -0.5221
12739TIP3    H159632   6.683   3.744   3.775  0.3561  0.9395  0.7481
12739TIP3    H259633   6.595   3.701   3.891 -1.3427 -0.6487 -1.1021
12740TIP3   OH259634   5.264   2.380   5.643  0.4339 -0.1608  0.5057
12740TIP3    H159635   5.234   2.429   5.719  1.1731  1.0051  0.0522
12740TIP3    H259636   5.208   2.410   5.571  1.7135  0.9732 -0.0369
12741TIP3   OH259637   6.024   2.360   4.082 -0.3384 -0.2711 -0.3564
12741TIP3    H159638   6.068   2.414   4.016 -0.8249  0.5117 -0.0452
12741TIP3    H259639   5.949   2.323   4.037  0.1094 -0.8532 -0.6266
12742TIP3   OH259640   0.350   3.461   5.171 -0.2190  0.0304 -0.3512
12742TIP3    H159641   0.441   3.436   5.155  0.2252  0.3478  1.5967
12742TIP3    H259642   0.317   3.394   5.230 -1.0901  0.2348 -0.6018
12743TIP3   OH259643   5.801   5.964  13.332  0.2538 -0.0160  0.3725
12743TIP3    H159644   5.788   5.887  13.276 -0.6987 -1.0795  2.0179
12743TIP3    H259645   5.896   5.971  13.341  0.3661 -0.7696 -0.1102
12744TIP3   OH259646   2.238   5.021   0.928  0.0153 -0.1068  0.1102
12744TIP3    H159647   2.163   5.031   0.988 -1.6629  1.2722 -2.1583
12744TIP3    H259648   2.211   5.066   0.848  1.7086 -3.0392 -2.1835
12745TIP3   OH259649   4.402   0.298   5.980  0.1348 -0.2759 -0.3825
12745TIP3    H159650   4.391   0.215   6.027  1.4324  0.1339  0.6630
12745TIP3    H259651   4.401   0.365   6.049 -0.7998  0.5902 -1.2051
12746TIP3   OH259652   1.156   5.619   4.698  0.6608 -0.0183 -0.1376
12746TIP3    H159653   1.080   5.639   4.753  1.0218  1.7430 -0.2384
12746TIP3    H259654   1.123   5.554   4.635 -0.3527 -0.3898  0.7550
12747TIP3   OH259655   0.524   6.327   4.298 -0.3120 -0.6308 -0.7433
12747TIP3    H159656   0.536   6.415   4.262  2.5835 -1.7922 -2.7502
12747TIP3    H259657   0.475   6.280   4.231 -1.8642 -0.5800  0.3304
12748TIP3   OH259658   0.579   5.416   5.328 -0.1184 -0.5835  0.2757
12748TIP3    H159659   0.583   5.481   5.258 -5.4821 -1.0173 -0.6447
12748TIP3    H259660   0.627   5.340   5.295  2.5839  1.3258 -0.3481
12749TIP3   OH259661   6.486   0.395   5.895  0.4885 -0.0566 -0.5019
12749TIP3    H159662   6.470   0.367   5.986  1.1825  1.6091  0.1572
12749TIP3    H259663   6.433   0.335   5.842  0.2283 -1.1878  0.9844
12750TIP3   OH259664   1.234   5.029   3.069 -0.7965  0.4878  0.2765
12750TIP3    H159665   1.243   5.096   3.001 -2.1892  0.6456  0.2390
12750TIP3    H259666   1.187   4.958   3.025 -1.2443  0.3821  0.9328
12751TIP3   OH259667   1.656   3.754   0.175 -0.1833 -0.4159  0.2134
12751TIP3    H159668   1.708   3.812   0.230  0.1731 -0.1877 -0.3552
12751TIP3    H259669   1.676   3.666   0.207 -0.6113 -0.2321  0.9823
12752TIP3   OH259670   6.308   5.838  16.396 -0.7558 -0.2378  0.0086
12752TIP3    H159671   6.260   5.757  16.416 -0.4000 -0.0823  1.5224
12752TIP3    H259672   6.327   5.876  16.482  1.1719  0.2232 -0.6047
12753TIP3   OH259673   0.464   1.784  11.218  0.3055 -0.0286  0.4185
12753TIP3    H159674   0.413   1.704  11.209  0.1851  0.0680  0.2445
12753TIP3    H259675   0.536   1.760  11.276  0.9209 -0.5813 -0.5517
12754TIP3   OH259676   5.821   5.772   3.733 -0.2629 -0.0871 -0.3309
12754TIP3    H159677   5.793   5.756   3.823  0.4087 -0.7872 -0.2376
12754TIP3    H259678   5.878   5.849   3.738 -0.8273  0.3285 -0.2741
12755TIP3   OH259679   0.003   5.750   1.289  0.1263  0.6034 -0.0698
12755TIP3    H159680  -0.083   5.712   1.272 -0.2319  0.7756  1.2904
12755TIP3    H259681   0.051   5.681   1.336  0.2032  1.0664  0.5289
12756TIP3   OH259682   2.147   4.034   4.528 -0.5417 -0.2292 -0.2334
12756TIP3    H159683   2.134   4.001   4.617  0.8874 -1.8149 -0.5930
12756TIP3    H259684   2.241   4.050   4.522 -0.8198  1.2547 -1.0136
12757TIP3   OH259685   3.168   6.019  12.398  0.1267 -0.0797  0.3020
12757TIP3    H159686   3.109   6.051  12.466 -1.2340 -0.6134 -0.6267
12757TIP3    H259687   3.185   6.096  12.343 -0.4499 -0.1396  0.0343
12758TIP3   OH259688   5.366   2.953   5.572  0.0491 -0.1962  0.2399
12758TIP3    H159689   5.402   3.013   5.507  1.3657  0.1831  1.3197
12758TIP3    H259690   5.275   2.980   5.581  0.3610  0.9792 -0.0325
12759TIP3   OH259691   4.457   2.371  12.511  0.0902 -0.8602 -0.4621
12759TIP3    H159692   4.461   2.445  12.450  3.3466  1.1706  2.0397
12759TIP3    H259693   4.432   2.410  12.595 -0.4291 -2.9863  0.4148
12760TIP3   OH259694   5.194   5.296  15.189  0.5062  0.2230  0.0289
12760TIP3    H159695   5.244   5.359  15.138  0.5096  0.4558  0.3172
12760TIP3    H259696   5.114   5.342  15.213 -0.0804 -0.3189 -0.8554
12761TIP3   OH259697   2.094   4.409  16.353  0.0741 -0.2072  0.1306
12761TIP3    H159698   2.010   4.456  16.353 -0.3428 -0.8609 -2.8367
12761TIP3    H259699   2.099   4.369  16.440 -2.7452 -0.2403  0.3292
12762TIP3   OH259700   3.811   4.900  11.863 -0.3965  0.0942  0.3816
12762TIP3    H159701   3.830   4.984  11.822  0.8104 -0.6251 -0.5510
12762TIP3    H259702   3.806   4.919  11.956  0.2712  1.1298  0.2099
12763TIP3   OH259703   2.924   4.566  13.399 -0.4288  0.3279 -0.1902
12763TIP3    H159704   2.915   4.656  13.370  0.7065  0.5076 -0.0125
12763TIP3    H259705   3.007   4.537  13.361 -1.1376 -0.8791 -0.8526
12764TIP3   OH259706   5.032   0.220  11.653  0.3076  0.4927  0.2166
12764TIP3    H159707   5.034   0.275  11.731  1.1016 -0.3285  0.7991
12764TIP3    H259708   5.122   0.222  11.620 -0.1922  1.4309 -1.1120
12765TIP3   OH259709   0.239   4.217   0.298  0.4010 -0.3833  0.1251
12765TIP3    H159710   0.153   4.200   0.335 -0.4273  0.1119 -1.4994
12765TIP3    H259711   0.221   4.268   0.219  2.1456 -0.7221 -0.5172
12766TIP3   OH259712   3.560   6.536  11.202  0.4501  0.0523  0.6241
12766TIP3    H159713   3.555   6.462  11.141  0.1620  1.2707 -0.8567
12766TIP3    H259714   3.472   6.544  11.238 -0.2628  1.3784 -1.3076
12767TIP3   OH259715   0.480   4.744   2.780  0.6011 -0.1117  0.4753
12767TIP3    H159716   0.462   4.650   2.788  1.8223 -0.2643  1.5499
12767TIP3    H259717   0.532   4.765   2.857  1.3858  1.2021 -0.3962
12768TIP3   OH259718   3.846   2.591   5.550 -0.0431 -0.1315 -1.3584
12768TIP3    H159719   3.793   2.662   5.585  2.2009  0.9282 -0.0233
12768TIP3    H259720   3.812   2.513   5.594  0.3932  0.7169  0.5524
12769TIP3   OH259721   2.876   3.189   4.020  0.2996 -0.3887  0.0404
12769TIP3    H159722   2.926   3.130   3.964  0.7086  1.0943 -1.1950
12769TIP3    H259723   2.938   3.259   4.043  0.1501 -0.9555  2.3719
12770TIP3   OH259724   0.821   5.489   6.014 -0.2100  0.5469 -0.1197
12770TIP3    H159725   0.828   5.470   6.108 -1.8349  3.3403  0.6130
12770TIP3    H259726   0.867   5.416   5.972  0.6939 -0.6820  2.8332
12771TIP3   OH259727   5.912   3.385   0.817  0.1163  0.1320 -0.0177
12771TIP3    H159728   5.819   3.376   0.838  0.3640  0.7892  1.3667
12771TIP3    H259729   5.957   3.329   0.881  0.7750  0.9285  0.2184
12772TIP3   OH259730   0.827   1.764  13.237  0.2769  0.8166 -0.2069
12772TIP3    H159731   0.854   1.696  13.298  0.7634  0.6630 -0.5944
12772TIP3    H259732   0.795   1.836  13.292 -0.9467 -0.0175  0.1929
12773TIP3   OH259733   2.011   1.880   3.385  0.3331  0.0476  0.8466
12773TIP3    H159734   2.032   1.833   3.465  3.5671  1.2212  0.7723
12773TIP3    H259735   2.073   1.846   3.320 -2.8367 -1.5651 -1.4584
12774TIP3   OH259736   0.048   2.794   3.453 -0.0911  0.6818  0.3797
12774TIP3    H159737   0.054   2.865   3.517  1.3026 -0.0047  1.0411
12774TIP3    H259738   0.127   2.741   3.469  0.5551  0.7897 -2.2287
12775TIP3   OH259739   1.621   0.422  12.029 -0.2577 -0.1973  0.3345
12775TIP3    H159740   1.611   0.356  11.960  2.6659  0.5919 -0.9223
12775TIP3    H259741   1.612   0.506  11.984 -0.1892  0.3030  1.2462
12776TIP3   OH259742   2.494   4.978   3.341  0.1000  0.2381  0.0750
12776TIP3    H159743   2.399   4.985   3.331  0.1422  0.0357 -0.4988
12776TIP3    H259744   2.521   5.064   3.374 -0.1347  0.7008 -0.9283
12777TIP3   OH259745   2.428   5.232  17.015  0.3540 -0.3931  0.4279
12777TIP3    H159746   2.358   5.168  16.997 -0.0156  0.4182 -1.1620
12777TIP3    H259747   2.387   5.317  16.998  1.4647  0.1392  0.3872
12778TIP3   OH259748   5.024   6.258   2.138 -0.2998 -0.0287  0.5144
12778TIP3    H159749   5.083   6.188   2.112  1.6358  2.5887 -2.5304
12778TIP3    H259750   5.037   6.267   2.232  4.3704  0.5431 -0.0522
12779TIP3   OH259751   1.928   2.746   3.696  0.1140 -0.9059 -0.7738
12779TIP3    H159752   1.987   2.817   3.670 -0.4909 -0.1648 -0.1514
12779TIP3    H259753   1.982   2.667   3.691  0.9109 -0.3511 -1.0593
12780TIP3   OH259754   1.075   4.376   0.934  0.0690 -0.2041  0.0800
12780TIP3    H159755   1.158   4.413   0.964 -0.0289  0.7670 -0.8292
12780TIP3    H259756   1.091   4.281   0.932  0.7846 -0.1107  1.0099
12781TIP3   OH259757   0.700   4.389  11.905 -0.2243 -0.1270  0.0275
12781TIP3    H159758   0.640   4.359  11.972 -0.0409  0.5636  0.5096
12781TIP3    H259759   0.647   4.395  11.825 -0.9687  1.1496  0.6073
12782TIP3   OH259760   0.231   3.921   4.295 -0.4329 -0.1897 -0.1956
12782TIP3    H159761   0.279   3.961   4.367 -1.4937  1.2117 -0.2349
12782TIP3    H259762   0.287   3.936   4.218 -1.4896  2.6357 -0.4808
12783TIP3   OH259763   1.112   1.182  16.343  0.2751  0.6866 -0.0923
12783TIP3    H159764   1.193   1.219  16.380 -0.4156  0.9238  1.2227
12783TIP3    H259765   1.090   1.110  16.402 -0.2918  0.4092 -0.6456
12784TIP3   OH259766   5.246   2.054  11.348  0.7333  0.8175 -0.5671
12784TIP3    H159767   5.267   2.145  11.369 -3.2848  1.5326  0.7169
12784TIP3    H259768   5.262   2.046  11.254  0.3865  3.0695 -0.8441
12785TIP3   OH259769   0.099   2.707  11.419 -0.2753 -0.4972 -0.3135
12785TIP3    H159770   0.152   2.689  11.497  0.4859  0.6482 -0.5458
12785TIP3    H259771   0.126   2.795  11.392 -0.5466 -0.8735 -1.8501
12786TIP3   OH259772   3.159   3.443   0.444  0.1716 -0.0989  0.6375
12786TIP3    H159773   3.134   3.527   0.480  0.1970  0.3012 -0.2668
12786TIP3    H259774   3.089   3.383   0.470  0.0355  0.2549  1.0760
12787TIP3   OH259775   2.565   2.039  11.696  0.9540  0.3792 -0.0458
12787TIP3    H159776   2.600   2.001  11.615  1.4196  0.3486  0.1670
12787TIP3    H259777   2.625   2.110  11.718 -0.1463  1.5150 -0.6593
12788TIP3   OH259778   5.120   2.793   3.113  0.2441  0.2664 -0.3291
12788TIP3    H159779   5.074   2.875   3.132 -0.1193 -0.1294  0.5153
12788TIP3    H259780   5.128   2.749   3.198  2.1792  0.3146 -0.4488
12789TIP3   OH259781   0.386   6.238  14.417 -0.6598  0.1954  0.0955
12789TIP3    H159782   0.382   6.263  14.325 -1.4338  0.2243  0.1283
12789TIP3    H259783   0.337   6.155  14.421 -0.5603  0.1516  0.4660
12790TIP3   OH259784   4.852   3.032   5.143 -0.1979  0.0226  0.8921
12790TIP3    H159785   4.911   3.085   5.091  2.9307 -1.4851  2.7111
12790TIP3    H259786   4.819   3.091   5.210  1.1532  0.3564  1.2854
12791TIP3   OH259787   2.417   0.054   0.622 -0.7893  0.0224  0.3394
12791TIP3    H159788   2.460   0.132   0.586 -3.0821 -0.1792 -3.1452
12791TIP3    H259789   2.349   0.089   0.680  1.5479  0.4258  2.8989
12792TIP3   OH259790   6.538   5.462   0.325 -0.1914 -0.3124 -0.3021
12792TIP3    H159791   6.559   5.460   0.418  0.1659 -0.8101 -0.3896
12792TIP3    H259792   6.448   5.493   0.321 -0.3599 -0.7384  0.2354
12793TIP3   OH259793   2.877   0.344   2.178  0.1187  0.1005  0.0545
12793TIP3    H159794   2.880   0.437   2.157 -0.8863  0.3742  1.0206
12793TIP3    H259795   2.897   0.299   2.096  0.2676  1.1664 -0.4962
12794TIP3   OH259796   3.407   1.465  12.996  0.0161 -0.1055 -0.1818
12794TIP3    H159797   3.477   1.502  13.049  0.1287 -0.8308  0.1774
12794TIP3    H259798   3.328   1.510  13.026  0.1036 -0.4024  0.5045
12795TIP3   OH259799   4.565   5.315  14.938  0.0190  0.2999 -0.0530
12795TIP3    H159800   4.619   5.267  14.875 -1.6771 -1.3308 -0.3198
12795TIP3    H259801   4.592   5.282  15.023  0.1615  0.2508 -0.1171
12796TIP3   OH259802   5.025   0.241   5.890  0.5666 -0.0966  0.2350
12796TIP3    H159803   5.117   0.220   5.877  0.5274 -0.1614  0.0686
12796TIP3    H259804   5.026   0.329   5.930  0.6197  1.0604 -2.2248
12797TIP3   OH259805   0.772   2.566   4.918 -0.3267  0.0260  0.2669
12797TIP3    H159806   0.854   2.561   4.968 -0.2997  0.8456  0.3007
12797TIP3    H259807   0.750   2.659   4.917 -0.6136 -0.0526 -0.7839
12798TIP3   OH259808   1.306   1.594  13.005  0.1797 -0.4127  0.0304
12798TIP3    H159809   1.242   1.664  12.991  2.5711  1.6348 -0.9962
12798TIP3    H259810   1.350   1.618  13.087 -0.3801 -1.8388  0.7628
12799TIP3   OH259811   3.192   4.043   6.526 -0.3980 -0.8330 -0.6843
12799TIP3    H159812   3.164   4.070   6.438 -1.3195 -0.3513 -0.2418
12799TIP3    H259813   3.282   4.013   6.513  0.0661  0.8159 -1.5129
12800TIP3   OH259814   4.819   2.106  14.473  0.5688  0.4613 -0.2750
12800TIP3    H159815   4.840   2.124  14.381 -1.4215 -0.1574 -0.8740
12800TIP3    H259816   4.785   2.017  14.473  1.0055  0.2809  1.1462
12801TIP3   OH259817   0.880   1.163   0.224  0.7371 -0.0739 -0.0356
12801TIP3    H159818   0.923   1.086   0.186  0.2449 -0.6108  0.4813
12801TIP3    H259819   0.939   1.236   0.203  1.6524 -0.7239  0.2093
12802TIP3   OH259820   4.863   3.210   5.349  0.9458 -0.1853 -0.3590
12802TIP3    H159821   4.952   3.180   5.330  0.5309 -0.5581 -1.7738
12802TIP3    H259822   4.869   3.249   5.436  2.4351 -0.4534 -0.3285
12803TIP3   OH259823   3.970   3.055   6.411  0.0107 -0.3274 -0.1161
12803TIP3    H159824   4.009   3.125   6.464 -2.1784  0.1057  0.9932
12803TIP3    H259825   4.021   2.978   6.433  1.1473  0.4972  0.2160
12804TIP3   OH259826   0.900   3.505   0.423 -0.1303 -0.2920  0.3251
12804TIP3    H159827   0.848   3.534   0.347  0.3085 -0.4617 -0.0437
12804TIP3    H259828   0.964   3.574   0.436  0.4988 -0.7777 -0.1483
12805TIP3   OH259829   0.676   5.589  15.615  0.0314  0.7096  0.0683
12805TIP3    H159830   0.614   5.517  15.619 -1.6309  2.1763  1.4749
12805TIP3    H259831   0.667   5.633  15.699  3.4516  0.5954  0.5932
12806TIP3   OH259832   4.974   3.010  15.658 -0.3937  0.0152  0.0162
12806TIP3    H159833   4.994   3.018  15.564  2.4039  0.7225  0.6286
12806TIP3    H259834   4.951   2.917  15.669  0.5240 -0.3728 -1.1535
12807TIP3   OH259835   0.350   6.176   3.455 -0.2303 -0.0777 -0.3760
12807TIP3    H159836   0.390   6.131   3.529 -1.8332 -0.7447  0.1059
12807TIP3    H259837   0.353   6.269   3.478 -2.0460 -0.3859  1.2208
12808TIP3   OH259838   1.455   5.444  12.894  0.2684 -0.3650 -0.3036
12808TIP3    H159839   1.443   5.521  12.950  1.1408 -1.3970  1.3201
12808TIP3    H259840   1.505   5.382  12.947  1.4013 -1.2573 -2.3114
12809TIP3   OH259841   2.315   3.637  16.598 -1.0467  0.3051 -0.8078
12809TIP3    H159842   2.255   3.641  16.672  0.7683  0.2260  0.6728
12809TIP3    H259843   2.354   3.550  16.603  0.0789  0.7918 -1.0635
12810TIP3   OH259844   0.979   0.463   5.394 -0.2542  0.0278 -0.0082
12810TIP3    H159845   1.034   0.504   5.328 -1.3060  1.4743 -0.0259
12810TIP3    H259846   0.895   0.448   5.350 -0.2544 -1.0458  0.3478
12811TIP3   OH259847   5.708   5.839   5.991 -0.0451 -0.5754  0.6688
12811TIP3    H159848   5.642   5.779   6.025  0.9492 -1.6184  0.7869
12811TIP3    H259849   5.785   5.824   6.045  1.4425 -2.0023 -1.7463
12812TIP3   OH259850   2.395   6.393  16.676 -0.4007  0.3756 -0.0103
12812TIP3    H159851   2.442   6.476  16.662  0.1782  0.3069  1.4948
12812TIP3    H259852   2.340   6.384  16.598  1.7576  0.6760 -1.5975
12813TIP3   OH259853   4.298   0.182   5.270  0.2540 -0.2155 -0.2421
12813TIP3    H159854   4.380   0.194   5.319  0.0290  0.7973 -0.1096
12813TIP3    H259855   4.234   0.234   5.318 -0.0463  0.5302 -1.4370
12814TIP3   OH259856   0.803   2.544  10.608 -0.1311  0.6191  0.4065
12814TIP3    H159857   0.780   2.478  10.543  1.1309 -1.4572  2.0381
12814TIP3    H259858   0.777   2.627  10.567 -0.1937 -0.7044 -2.3630
12815TIP3   OH259859   0.553   5.490  13.018  0.2762  0.3362 -0.4935
12815TIP3    H159860   0.517   5.465  13.103  1.3786 -4.0830 -1.1655
12815TIP3    H259861   0.479   5.483  12.958  0.1741  0.3882 -0.3737
12816TIP3   OH259862   6.450   4.597   3.855  0.0790  0.3734 -0.0376
12816TIP3    H159863   6.517   4.655   3.820 -0.6188  0.7961 -0.6986
12816TIP3    H259864   6.444   4.526   3.791  1.0660 -0.5303  0.8660
12817TIP3   OH259865   5.554   5.204   3.656 -0.5195  0.3833 -0.0352
12817TIP3    H159866   5.540   5.272   3.722 -1.9139 -0.3510  0.4720
12817TIP3    H259867   5.642   5.172   3.673 -1.0001 -0.0804  1.7806
12818TIP3   OH259868   4.615   4.823   5.171  0.1241 -0.7565 -0.6806
12818TIP3    H159869   4.530   4.782   5.188 -1.0058  1.5680 -0.4720
12818TIP3    H259870   4.641   4.860   5.256  1.2446 -1.2832 -0.7890
12819TIP3   OH259871   1.585   0.041   3.575  0.2870  0.0011 -0.6277
12819TIP3    H159872   1.576  -0.047   3.612 -1.5592  0.5598  0.3259
12819TIP3    H259873   1.502   0.055   3.529 -0.3206  2.0648  1.0396
12820TIP3   OH259874   2.256   4.556  11.618  0.1250  0.4623  0.2172
12820TIP3    H159875   2.352   4.560  11.608  0.1052 -0.6034 -0.5552
12820TIP3    H259876   2.224   4.541  11.530 -0.8707  2.3376  0.2588
12821TIP3   OH259877   5.057   0.652   5.044 -0.8055  1.1778  0.3160
12821TIP3    H159878   4.994   0.581   5.053 -0.9475  0.9076 -2.4340
12821TIP3    H259879   5.143   0.610   5.052 -0.8199  0.2638 -3.2594
12822TIP3   OH259880   1.675   4.045   0.917 -0.1249  0.1224  0.0072
12822TIP3    H159881   1.642   4.080   0.834 -3.1426  0.6784  1.3624
12822TIP3    H259882   1.698   4.122   0.968 -0.3762 -0.1184  0.4900
12823TIP3   OH259883   3.911   3.313  14.205 -0.2361 -0.0901  0.2819
12823TIP3    H159884   3.965   3.327  14.283  1.8829 -1.9379 -0.7832
12823TIP3    H259885   3.865   3.231  14.222 -0.2947 -0.1446 -0.1300
12824TIP3   OH259886   1.481   2.598  13.041 -0.5584 -0.5442 -0.5445
12824TIP3    H159887   1.432   2.519  13.016  1.5137 -2.4992  1.2839
12824TIP3    H259888   1.565   2.588  12.997  0.0549  0.1700  0.4600
12825TIP3   OH259889   1.332   4.847  11.147  0.1170 -0.4639 -0.6315
12825TIP3    H159890   1.423   4.819  11.140 -0.4115 -1.7541 -2.5042
12825TIP3    H259891   1.310   4.882  11.061 -1.2021 -0.2452 -0.2204
12826TIP3   OH259892   4.073   6.536  16.789  0.3665  0.2938 -0.4092
12826TIP3    H159893   4.154   6.588  16.787  0.7895 -0.3736 -1.2059
12826TIP3    H259894   4.009   6.590  16.742  0.5960  0.4440 -0.5529
12827TIP3   OH259895   5.461   3.641  10.622  0.5474  0.6845 -0.2553
12827TIP3    H159896   5.408   3.716  10.648 -1.9178 -0.5294 -1.6243
12827TIP3    H259897   5.503   3.668  10.541  0.5042  0.9585 -0.1849
12828TIP3   OH259898   0.531   6.297  11.750  0.1088 -0.1710 -0.1156
12828TIP3    H159899   0.491   6.249  11.678  0.0465  1.5480 -1.2501
12828TIP3    H259900   0.466   6.363  11.774  0.5528 -0.0620  0.8262
12829TIP3   OH259901   0.581   4.468  15.636  0.1577 -0.5113  0.1279
12829TIP3    H159902   0.491   4.496  15.655  0.3613  0.0491  0.2952
12829TIP3    H259903   0.583   4.457  15.541 -0.5964 -2.3524  0.2988
12830TIP3   OH259904   4.148   5.044  15.310  0.3231  0.7322 -0.4251
12830TIP3    H159905   4.169   4.965  15.261 -0.1354  0.2683  0.1233
12830TIP3    H259906   4.057   5.063  15.286  0.6951  1.5821 -1.2189
12831TIP3   OH259907   2.864   3.950   1.643 -0.0001  0.5310  0.1640
12831TIP3    H159908   2.940   3.955   1.701  1.5821  0.5507 -1.8209
12831TIP3    H259909   2.873   3.865   1.599 -1.1822  0.4975 -0.0232
12832TIP3   OH259910   2.684   5.947   0.157 -0.1996 -0.0938 -0.1959
12832TIP3    H159911   2.657   5.952   0.066  0.7270 -1.0444 -0.5297
12832TIP3    H259912   2.716   5.858   0.169 -0.5759 -0.0717  1.1332
12833TIP3   OH259913   5.323   0.646  13.467 -0.0104  1.0745 -0.4552
12833TIP3    H159914   5.319   0.706  13.542  2.4600 -0.2405  0.8089
12833TIP3    H259915   5.397   0.677  13.416  0.4446 -0.0789 -0.5065
12834TIP3   OH259916   0.418   1.356   5.803 -0.2084 -0.1672 -0.0006
12834TIP3    H159917   0.412   1.439   5.851 -1.1195  0.4387 -1.1432
12834TIP3    H259918   0.459   1.296   5.865  0.4246  1.1210  0.8590
12835TIP3   OH259919   2.215   6.555   0.789  0.3965  0.1009  0.1662
12835TIP3    H159920   2.121   6.572   0.788  0.5583  1.0013 -0.5228
12835TIP3    H259921   2.234   6.521   0.702  0.8429  0.6995  0.0231
12836TIP3   OH259922   5.809   2.301  12.752  0.7617 -0.3727  0.1812
12836TIP3    H159923   5.735   2.255  12.712 -0.2454  0.5531  0.9106
12836TIP3    H259924   5.826   2.253  12.834 -0.5835  0.7758  1.1656
12837TIP3   OH259925   4.946   6.465   0.496 -0.0019 -0.2831 -0.5418
12837TIP3    H159926   4.984   6.383   0.467 -0.9049 -1.7417  2.2339
12837TIP3    H259927   5.019   6.527   0.493  0.7005 -1.1488 -2.5887
12838TIP3   OH259928   1.037   1.662  13.596  0.2578  0.1927 -0.2324
12838TIP3    H159929   1.106   1.597  13.581  1.3490  0.8594  1.7282
12838TIP3    H259930   1.082   1.746  13.587 -0.0215  0.6329  2.0501
12839TIP3   OH259931   3.186   0.010  16.494  0.7365 -0.0226  0.1203
12839TIP3    H159932   3.162  -0.003  16.403  0.9054 -1.3459  0.2488
12839TIP3    H259933   3.282   0.021  16.493  0.5784  1.4493 -0.0004
12840TIP3   OH259934   3.423   3.043  16.821  0.4244 -0.1638  0.2539
12840TIP3    H159935   3.343   3.011  16.862 -0.2331  0.4132 -0.5424
12840TIP3    H259936   3.449   2.973  16.761  0.6358 -0.4397  0.6637
12841TIP3   OH259937   1.817   4.771   0.174 -0.0211 -0.0053 -0.1741
12841TIP3    H159938   1.806   4.864   0.191  0.7498  0.5240 -2.3386
12841TIP3    H259939   1.909   4.753   0.196  0.4367  0.2540 -1.7968
12842TIP3   OH259940   5.990   4.246   5.767  0.4517 -0.1772  0.1101
12842TIP3    H159941   6.023   4.322   5.814  1.7215 -1.4104  1.2590
12842TIP3    H259942   5.896   4.261   5.760  0.8648  2.1904 -0.9942
12843TIP3   OH259943   5.462   2.991   0.966 -0.0280 -0.6053  0.1612
12843TIP3    H159944   5.378   2.947   0.977 -0.3268 -0.3365 -1.0218
12843TIP3    H259945   5.461   3.061   1.031 -0.2930 -1.2228  0.8305
12844TIP3   OH259946   6.411   3.548   0.134  0.5283  0.2857  0.2271
12844TIP3    H159947   6.345   3.546   0.204  0.2439  1.1749  0.0005
12844TIP3    H259948   6.363   3.520   0.056  0.8812 -0.8387  0.4130
12845TIP3   OH259949   3.087   0.477  16.970 -0.7851 -0.2469  0.2793
12845TIP3    H159950   3.001   0.447  16.997 -1.0500  0.0867 -0.1870
12845TIP3    H259951   3.070   0.547  16.907 -0.1800 -2.5009 -2.4783
12846TIP3   OH259952   3.003   6.256   2.838  0.4295  0.3336  0.6216
12846TIP3    H159953   2.917   6.241   2.799  0.4848 -2.0034  1.3437
12846TIP3    H259954   2.995   6.340   2.883 -0.8475  1.1142 -1.0026
12847TIP3   OH259955   1.303   5.025   1.966  0.2296  0.0418  0.1258
12847TIP3    H159956   1.325   5.011   1.874 -1.4843  2.0773 -0.6130
12847TIP3    H259957   1.221   4.977   1.978 -1.3813  2.6191 -0.3321
12848TIP3   OH259958   5.218   5.346   3.516 -0.2433 -0.5987 -0.5882
12848TIP3    H159959   5.308   5.333   3.487  1.3815  1.5032  3.2022
12848TIP3    H259960   5.181   5.410   3.455  1.5961  0.3237 -0.7454
12849TIP3   OH259961   1.064   2.847  12.024 -0.2899 -0.1025 -0.2471
12849TIP3    H159962   1.095   2.822  12.111  0.3316  1.5386  0.0280
12849TIP3    H259963   1.137   2.898  11.987 -0.6841 -0.5052 -1.5905
12850TIP3   OH259964   0.234   4.633  15.163 -0.1980 -0.5707 -0.5488
12850TIP3    H159965   0.316   4.583  15.164  0.6463  0.8055  0.6920
12850TIP3    H259966   0.173   4.580  15.214  0.9958  0.1233  1.6664
12851TIP3   OH259967   4.859   0.100   6.495  0.4320  0.0656 -0.0648
12851TIP3    H159968   4.871   0.043   6.419  0.1436  1.1121 -0.9079
12851TIP3    H259969   4.771   0.079   6.527  0.0249  0.5693 -0.8359
12852TIP3   OH259970   1.285   5.459   4.489 -0.3773  0.3660 -0.4538
12852TIP3    H159971   1.301   5.395   4.558 -1.6083  1.8752  1.2821
12852TIP3    H259972   1.369   5.469   4.445  0.0318 -1.7941 -0.2093
12853TIP3   OH259973   3.233   3.604  12.398  0.6195  0.3592  0.7371
12853TIP3    H159974   3.234   3.646  12.484  0.4520  0.0276  0.9022
12853TIP3    H259975   3.237   3.676  12.335 -0.8404  0.6901  1.0040
12854TIP3   OH259976   2.987   3.931  13.213  0.6093 -0.7102 -0.4259
12854TIP3    H159977   2.933   3.899  13.285  0.9631 -2.1458 -0.7905
12854TIP3    H259978   2.941   3.905  13.134  0.3244  0.6876 -0.7341
12855TIP3   OH259979   6.700   2.372   5.594  0.3953  0.4474  0.2417
12855TIP3    H159980   6.713   2.278   5.582 -0.0887  0.4292 -0.1805
12855TIP3    H259981   6.767   2.398   5.657  1.3893  0.0640 -0.6312
12856TIP3   OH259982   6.171   5.741   0.467  0.0284 -0.1885  0.2193
12856TIP3    H159983   6.186   5.833   0.487  1.0886  0.1299 -1.9289
12856TIP3    H259984   6.077   5.729   0.477 -0.3393  1.5160 -0.9637
12857TIP3   OH259985   4.622   2.506   5.631  0.2470 -0.0268  0.3365
12857TIP3    H159986   4.629   2.412   5.619 -0.4980  0.0254 -0.6529
12857TIP3    H259987   4.534   2.519   5.668  0.2822  0.2766  0.3204
12858TIP3   OH259988   0.362   4.716   2.298  0.1515 -0.0090 -0.1851
12858TIP3    H159989   0.296   4.770   2.341  1.7705  0.5505  1.7152
12858TIP3    H259990   0.370   4.639   2.354  0.5882 -0.4069 -0.7912
12859TIP3   OH259991   0.229   6.365   0.048 -0.0035  0.5211  0.4263
12859TIP3    H159992   0.222   6.271   0.065 -0.2166  0.5177  0.3154
12859TIP3    H259993   0.323   6.380   0.037 -0.0938  0.0496 -1.1133
12860TIP3   OH259994   1.763   2.430  13.487 -0.5097 -0.8593  0.3272
12860TIP3    H159995   1.693   2.464  13.543  0.7733  0.8437  0.9203
12860TIP3    H259996   1.740   2.460  13.400 -1.3642 -1.6823  0.2565
12861TIP3   OH259997   0.948   4.635   0.229  0.1306 -0.0751 -0.2808
12861TIP3    H159998   0.921   4.629   0.321  0.8855  1.6516  0.0705
12861TIP3    H259999   0.899   4.710   0.195 -0.6685 -1.1346 -1.4882
12862TIP3   OH260000   3.896   0.113   3.714 -0.2343  0.4464  0.3230
12862TIP3    H160001   3.990   0.108   3.696 -0.4163  1.6310 -1.0962
12862TIP3    H260002   3.864   0.181   3.654 -2.3300 -1.3393 -0.6553
12863TIP3   OH260003   6.139   0.483  12.268  0.4906 -0.5323  0.0177
12863TIP3    H160004   6.102   0.397  12.248  0.8469 -0.5673 -0.5273
12863TIP3    H260005   6.218   0.487  12.213  1.5045 -0.6177  1.4527
12864TIP3   OH260006   2.552   1.255  12.267 -0.5961 -0.1565  0.0921
12864TIP3    H160007   2.462   1.247  12.298 -0.6653  0.3723  0.0418
12864TIP3    H260008   2.555   1.342  12.226 -0.0983 -0.2259 -0.0206
12865TIP3   OH260009   1.855   2.643   4.058 -0.0170  0.5262  0.1396
12865TIP3    H160010   1.797   2.628   3.983 -0.9465  0.1815  0.9237
12865TIP3    H260011   1.809   2.605   4.132  0.7696  1.1358  0.9477
12866TIP3   OH260012   1.219   4.958   3.937  0.4360  0.5517  0.2487
12866TIP3    H160013   1.184   4.916   3.858  2.2256 -0.0222 -0.2653
12866TIP3    H260014   1.314   4.944   3.932  0.7635  2.1105  1.5769
12867TIP3   OH260015   2.681   0.170  17.170 -0.0395  0.4271 -0.2057
12867TIP3    H160016   2.716   0.171  17.259  1.2536  1.6970 -0.6988
12867TIP3    H260017   2.626   0.093  17.166  1.7678 -0.9728  0.9899
12868TIP3   OH260018   0.064   6.204  12.023 -0.2447 -0.5473 -0.1807
12868TIP3    H160019   0.137   6.173  12.077 -0.9348 -2.1625 -0.1354
12868TIP3    H260020   0.089   6.183  11.933 -1.3965 -2.7951 -0.0296
12869TIP3   OH260021   4.282   5.010   5.750  0.2704  0.3536 -0.2452
12869TIP3    H160022   4.245   4.945   5.689 -1.1755  1.4124 -0.5085
12869TIP3    H260023   4.212   5.026   5.813  1.2567  0.3609  0.8494
12870TIP3   OH260024   1.880   5.647   3.707 -0.2105  0.3021  0.2922
12870TIP3    H160025   1.924   5.713   3.654 -0.9218  0.0540 -0.6144
12870TIP3    H260026   1.861   5.692   3.789  1.5726  0.4647  0.6457
12871TIP3   OH260027   0.396   0.060  15.979 -0.2298 -0.2534 -0.2626
12871TIP3    H160028   0.426  -0.003  16.044  0.7830  1.0330  0.5586
12871TIP3    H260029   0.331   0.013  15.927 -1.5601 -1.0995  2.1134
12872TIP3   OH260030   0.154   3.527   3.048 -0.0344 -0.7168 -0.4371
12872TIP3    H160031   0.174   3.569   2.964 -1.9199 -0.6828 -0.8983
12872TIP3    H260032   0.207   3.448   3.048  1.0013 -0.0384 -1.0572
12873TIP3   OH260033   4.117   2.807   4.573  0.1023  0.1809  1.0502
12873TIP3    H160034   4.181   2.738   4.590  0.3523 -0.0603 -0.8111
12873TIP3    H260035   4.062   2.772   4.504  1.0607  2.3556 -0.8707
12874TIP3   OH260036   2.072   3.988   2.410  0.5688 -0.0515 -0.4234
12874TIP3    H160037   1.995   3.930   2.411 -0.1480  0.8906  0.3507
12874TIP3    H260038   2.040   4.070   2.447  1.4134  1.0726 -2.1306
12875TIP3   OH260039   6.410   5.476   5.626 -0.2905  0.1588 -0.0496
12875TIP3    H160040   6.457   5.448   5.547 -1.2719 -0.3271 -0.4737
12875TIP3    H260041   6.317   5.473   5.601 -0.7898 -2.4332  1.8922
12876TIP3   OH260042   4.539   2.925   6.646 -0.3009  0.0445  0.2368
12876TIP3    H160043   4.493   3.003   6.678  0.0577  0.5953 -0.5647
12876TIP3    H260044   4.577   2.885   6.724  0.3502  1.2269  0.5320
12877TIP3   OH260045   0.843   2.910   4.073  0.2386  0.1075  0.2213
12877TIP3    H160046   0.842   3.002   4.045  2.0095  0.8252  2.3960
12877TIP3    H260047   0.796   2.911   4.157 -0.4182 -1.1078 -0.1284
12878TIP3   OH260048   0.870   4.864   1.767 -0.4223  0.1009 -0.1885
12878TIP3    H160049   0.936   4.796   1.757 -0.3412  0.3458 -1.4331
12878TIP3    H260050   0.796   4.820   1.809  1.0390  0.1601  2.5362
12879TIP3   OH260051   6.127   3.232  14.317 -0.3994 -0.2228 -0.6179
12879TIP3    H160052   6.166   3.311  14.280  1.3155 -0.3001  0.9828
12879TIP3    H260053   6.104   3.179  14.241  0.2208  0.9595 -1.6478
12880TIP3   OH260054   6.070   2.638  13.001  0.2188 -0.3997  0.3141
12880TIP3    H160055   6.060   2.656  12.907 -0.5967 -2.0102  0.0603
12880TIP3    H260056   5.982   2.653  13.037  0.3092 -0.6862  0.6535
12881TIP3   OH260057   3.463   0.654   0.175 -0.0222  0.5268  0.8247
12881TIP3    H160058   3.501   0.632   0.260  0.5661  0.6618  0.6009
12881TIP3    H260059   3.455   0.570   0.130 -1.4641  0.3109  1.4693
12882TIP3   OH260060   1.216   6.031  11.733 -0.4836  0.1523 -0.2710
12882TIP3    H160061   1.226   5.941  11.765 -1.0487  0.1422 -0.1120
12882TIP3    H260062   1.241   6.086  11.808  0.5643  0.1308 -0.6011
12883TIP3   OH260063   3.507   5.253   3.114  0.4220 -0.1744  0.0241
12883TIP3    H160064   3.576   5.292   3.168  0.3061 -0.6750  0.5279
12883TIP3    H260065   3.508   5.306   3.034  0.6409  0.5220  0.4772
12884TIP3   OH260066   4.077   0.033   1.169  0.5631  0.0312 -0.2565
12884TIP3    H160067   4.049   0.007   1.081 -0.4431  0.7739 -0.1604
12884TIP3    H260068   4.142  -0.032   1.193  3.3470  1.6567 -2.9015
12885TIP3   OH260069   3.376   5.217  13.949  0.7146 -0.5075  0.3538
12885TIP3    H160070   3.346   5.126  13.950  1.1815 -0.7421 -2.6255
12885TIP3    H260071   3.458   5.215  13.998 -0.1922 -1.3049  1.8967
12886TIP3   OH260072   5.282   1.321  15.009  0.0521  0.1813  0.3237
12886TIP3    H160073   5.346   1.392  15.008 -0.4031  0.6237  1.3579
12886TIP3    H260074   5.329   1.246  14.973  0.8746  0.7229  0.2429
12887TIP3   OH260075   0.557   3.430  13.246 -0.0588 -0.1936 -0.5107
12887TIP3    H160076   0.510   3.359  13.203 -0.6153 -0.4849  0.5413
12887TIP3    H260077   0.642   3.392  13.270  0.6860  0.2985 -2.3123
12888TIP3   OH260078   3.156   6.244   3.724 -0.4039  0.4338 -0.2302
12888TIP3    H160079   3.084   6.253   3.786 -1.9102  0.0670 -1.8887
12888TIP3    H260080   3.187   6.154   3.735 -0.2612  0.5598  0.4146
12889TIP3   OH260081   6.118   3.352  13.509  0.2524 -0.6589  0.3917
12889TIP3    H160082   6.191   3.290  13.502 -0.0578 -0.8069 -1.9073
12889TIP3    H260083   6.158   3.434  13.536  1.0826 -1.0769  0.4392
12890TIP3   OH260084   4.470   2.707   1.372  0.2704  0.5560 -0.5860
12890TIP3    H160085   4.459   2.680   1.281  0.2770  1.4537 -0.8562
12890TIP3    H260086   4.424   2.640   1.422 -2.4582  1.7445 -1.4270
12891TIP3   OH260087   0.955   4.586  14.669 -0.1823  0.0599 -0.5171
12891TIP3    H160088   0.914   4.499  14.665  0.3624 -0.1586 -1.6005
12891TIP3    H260089   0.936   4.625  14.584  1.2939  0.2030 -0.8016
12892TIP3   OH260090   2.529   1.344  13.009 -0.8618 -0.0316  0.0222
12892TIP3    H160091   2.601   1.307  12.958 -0.4977  1.1912 -0.3724
12892TIP3    H260092   2.486   1.405  12.949 -1.0196  0.7022  0.8680
12893TIP3   OH260093   2.749   5.245  10.792  0.6012  0.0334 -0.0531
12893TIP3    H160094   2.813   5.202  10.736 -0.0937 -0.5056 -0.4492
12893TIP3    H260095   2.775   5.337  10.793  1.6114 -0.2508  0.1248
12894TIP3   OH260096   4.619   1.196   6.255 -0.7124  0.8814 -0.1864
12894TIP3    H160097   4.635   1.250   6.178 -1.3324  2.5557  0.8332
12894TIP3    H260098   4.569   1.121   6.222  1.3916  0.1659 -1.8502
12895TIP3   OH260099   6.490   2.325   0.621  0.2517  0.0845  0.2585
12895TIP3    H160100   6.440   2.286   0.549  1.1431 -0.0872 -0.2789
12895TIP3    H260101   6.554   2.381   0.578  0.1718  0.7209  0.9647
12896TIP3   OH260102   5.766   4.627  15.771  0.2511  0.3809  0.8312
12896TIP3    H160103   5.726   4.677  15.701 -2.2409 -1.1430  1.1187
12896TIP3    H260104   5.754   4.536  15.746 -1.6430 -0.2275  3.6796
12897TIP3   OH260105   0.360   4.020  14.324  0.5909  0.3500  0.5171
12897TIP3    H160106   0.452   4.014  14.297  0.2540 -0.8707 -0.3877
12897TIP3    H260107   0.321   4.084  14.264  0.5116 -0.2138 -0.0328
12898TIP3   OH260108   6.153   1.285  13.763  0.3446 -0.0322 -0.9804
12898TIP3    H160109   6.071   1.295  13.812 -0.3577 -0.4638 -2.0388
12898TIP3    H260110   6.188   1.373  13.758  1.0237 -0.1285  1.2793
12899TIP3   OH260111   0.254   4.229  15.349 -0.2980  0.4726 -0.3821
12899TIP3    H160112   0.227   4.146  15.311 -2.2576  0.5845  0.6592
12899TIP3    H260113   0.319   4.206  15.415  0.9010  0.0051 -1.7041
12900TIP3   OH260114   2.187   6.349   6.224 -0.2796  0.1467 -0.1472
12900TIP3    H160115   2.187   6.275   6.285 -3.0400  1.0938  1.0779
12900TIP3    H260116   2.276   6.385   6.230  1.4866 -3.7052 -1.6609
12901TIP3   OH260117   0.074   1.858  16.903  0.3817  0.7780  0.4190
12901TIP3    H160118  -0.001   1.884  16.956 -0.4483 -0.3370 -0.1961
12901TIP3    H260119   0.036   1.823  16.823  1.5582 -0.0474  0.2141
12902TIP3   OH260120   3.953   4.874  15.502 -0.6123 -0.0318 -0.4381
12902TIP3    H160121   3.994   4.948  15.547 -1.0894 -0.0018 -0.0541
12902TIP3    H260122   4.015   4.803  15.511 -1.7332 -0.7108  2.3153
12903TIP3   OH260123   1.305   2.718  17.226  0.0403  0.2418  0.5669
12903TIP3    H160124   1.353   2.788  17.271 -0.0814  1.1184 -0.6330
12903TIP3    H260125   1.220   2.717  17.270  0.7926 -0.6544  2.0516
12904TIP3   OH260126   4.364   5.416  13.660  0.5391 -0.4233  0.3296
12904TIP3    H160127   4.341   5.508  13.668  2.1851  0.0662 -0.3846
12904TIP3    H260128   4.343   5.379  13.746  1.7439  1.0632  1.2994
12905TIP3   OH260129   3.172   4.283  14.225  0.3067  0.1236 -0.9152
12905TIP3    H160130   3.267   4.294  14.227  0.7252 -2.7337 -2.4699
12905TIP3    H260131   3.141   4.354  14.168  1.3898  1.6271  0.3424
12906TIP3   OH260132   0.389   2.193  13.204  0.0390  0.1041  0.3407
12906TIP3    H160133   0.415   2.276  13.245  0.0456  0.2661  0.0138
12906TIP3    H260134   0.472   2.152  13.179 -0.0415  1.0820 -1.5984
12907TIP3   OH260135   4.766   5.554  13.282 -0.5560 -0.3181 -0.4432
12907TIP3    H160136   4.678   5.562  13.319 -0.6073  3.3933 -1.1815
12907TIP3    H260137   4.753   5.504  13.201 -1.8935 -0.2305 -0.2988
12908TIP3   OH260138   1.927   1.034  15.570 -0.3278 -0.6065  0.1794
12908TIP3    H160139   1.900   0.953  15.527 -1.5719 -0.4040  0.5587
12908TIP3    H260140   1.861   1.049  15.637 -0.6263  1.2189 -0.4857
12909TIP3   OH260141   1.044   2.018   4.687 -0.5728 -0.5565  0.6051
12909TIP3    H160142   1.031   1.931   4.725  1.6313 -0.5987  1.3575
12909TIP3    H260143   1.082   2.001   4.601  0.6604 -0.3601  1.0911
12910TIP3   OH260144   0.533   4.898  13.854 -0.0587  0.3993  0.0709
12910TIP3    H160145   0.621   4.861  13.844 -0.0750 -0.0886  1.6191
12910TIP3    H260146   0.548   4.989  13.880 -0.0248  1.1638 -2.4720
12911TIP3   OH260147   6.025   3.736  15.455 -0.0799  0.2840  0.3398
12911TIP3    H160148   6.090   3.729  15.524 -0.4338 -1.6065  0.5068
12911TIP3    H260149   5.946   3.770  15.498  0.0720  0.3126  0.5918
12912TIP3   OH260150   2.416   5.701  14.636 -0.0995 -0.5051 -0.2884
12912TIP3    H160151   2.438   5.714  14.729 -1.1291 -0.2107 -0.0776
12912TIP3    H260152   2.320   5.704  14.634 -0.0819 -0.6532 -1.3460
12913TIP3   OH260153   4.701   4.550  14.027 -0.5206  0.0451  0.5858
12913TIP3    H160154   4.713   4.637  14.064 -2.6564 -0.1050  1.7067
12913TIP3    H260155   4.644   4.505  14.089  0.5356 -2.1624  0.0215
12914TIP3   OH260156   2.952   2.632   0.676 -0.0524 -0.3145 -0.2493
12914TIP3    H160157   2.978   2.562   0.735  0.9663  1.9926  2.1207
12914TIP3    H260158   3.025   2.693   0.677 -0.8674  0.7594 -2.3688
12915TIP3   OH260159   3.534   0.026  14.266 -0.2410 -0.5582 -0.1332
12915TIP3    H160160   3.522  -0.056  14.218 -2.1606 -0.4106  0.0840
12915TIP3    H260161   3.446   0.058  14.283  0.4763  1.1826  0.4511
12916TIP3   OH260162   4.367   3.829  15.346 -0.5763 -0.6501 -0.0549
12916TIP3    H160163   4.276   3.842  15.318 -0.7698 -0.5249  0.6351
12916TIP3    H260164   4.408   3.914  15.335 -0.7332 -0.5236  0.3398
12917TIP3   OH260165   1.698   1.413   3.005  0.4468  0.0526  0.2443
12917TIP3    H160166   1.755   1.426   2.929  2.0794 -1.3873  1.1758
12917TIP3    H260167   1.754   1.369   3.069 -1.6368 -1.1141  1.3142
12918TIP3   OH260168   1.495   6.598   1.542  0.3007  0.1533 -0.0464
12918TIP3    H160169   1.453   6.512   1.548 -0.2056  0.4190  0.3012
12918TIP3    H260170   1.422   6.659   1.528  0.4854  0.7068  1.2693
12919TIP3   OH260171   6.578   4.030   5.354  0.1491  0.2371  0.3209
12919TIP3    H160172   6.604   3.967   5.421  0.6359 -1.5216 -1.4622
12919TIP3    H260173   6.659   4.055   5.311 -0.5288 -2.2434 -2.6362
12920TIP3   OH260174   2.473   5.307   4.560 -0.4196  0.1664 -0.0706
12920TIP3    H160175   2.478   5.280   4.468  0.5360  0.9908 -0.2670
12920TIP3    H260176   2.410   5.247   4.599 -0.5834 -0.4037 -1.1928
12921TIP3   OH260177   4.290   0.301   0.848  0.4280 -0.2078 -0.6718
12921TIP3    H160178   4.224   0.364   0.818  0.5656  0.2007 -0.1260
12921TIP3    H260179   4.275   0.295   0.943  2.1988  1.0747 -0.2971
12922TIP3   OH260180   4.640   1.319  16.773  0.3411  0.0441 -0.9533
12922TIP3    H160181   4.556   1.338  16.732 -0.1106  0.5947  0.1842
12922TIP3    H260182   4.665   1.233  16.740 -1.0549 -0.4668 -0.6887
12923TIP3   OH260183   6.353   0.342  15.343  0.2770  0.6059  0.6021
12923TIP3    H160184   6.364   0.247  15.338 -2.2456  0.3345 -0.8294
12923TIP3    H260185   6.366   0.373  15.253  0.8679  1.5753  1.0149
12924TIP3   OH260186   2.565   1.531   2.751  0.4424  0.1443  0.2158
12924TIP3    H160187   2.585   1.618   2.717  2.2169 -0.0351  0.7078
12924TIP3    H260188   2.615   1.472   2.694 -1.3432 -0.6271 -0.5864
12925TIP3   OH260189   5.888   2.410  15.195 -0.3655  0.0492 -0.8113
12925TIP3    H160190   5.873   2.341  15.130 -0.8188 -0.2945 -0.3496
12925TIP3    H260191   5.896   2.490  15.144  0.5445 -0.4011 -1.3844
12926TIP3   OH260192   1.455   1.987  10.708  0.0065 -0.1272 -0.3884
12926TIP3    H160193   1.481   2.058  10.650 -1.0066  1.3805  0.9687
12926TIP3    H260194   1.537   1.947  10.735  0.5364 -0.1729 -1.9986
12927TIP3   OH260195   1.820   3.245  13.559 -0.0823 -0.0534 -0.1694
12927TIP3    H160196   1.728   3.263  13.578 -0.1460 -0.1525 -0.3839
12927TIP3    H260197   1.840   3.167  13.609 -0.6065 -1.0703 -1.5077
12928TIP3   OH260198   4.067   5.335  13.671  0.1277 -0.4882 -0.0805
12928TIP3    H160199   3.985   5.296  13.702 -0.2574 -0.9723 -1.6596
12928TIP3    H260200   4.124   5.336  13.748 -0.3491 -2.8165  0.3278
12929TIP3   OH260201   4.915   5.743  13.405  0.2879 -0.4553  0.1948
12929TIP3    H160202   4.912   5.709  13.494 -0.7632 -1.1358 -0.0949
12929TIP3    H260203   4.878   5.673  13.351  2.8923 -0.9162 -1.0512
12930TIP3   OH260204   3.669   3.933  16.356 -0.3951  0.1732  0.2427
12930TIP3    H160205   3.685   3.854  16.304  1.1012  1.7252 -1.7641
12930TIP3    H260206   3.738   3.931  16.422  0.2152  0.2503 -0.3783
12931TIP3   OH260207   6.409   3.664   1.405  0.2936 -0.8591 -0.3838
12931TIP3    H160208   6.372   3.747   1.376  0.4402 -0.2276  1.1554
12931TIP3    H260209   6.498   3.686   1.433 -0.5416 -0.9500  2.5878
12932TIP3   OH260210   2.599   6.561  11.728 -0.6259  0.4733  0.3885
12932TIP3    H160211   2.515   6.568  11.774 -0.4269  0.9590  0.6812
12932TIP3    H260212   2.617   6.650  11.696  0.6599  0.7874  1.9015
12933TIP3   OH260213   3.739   5.476   4.150  0.4047  0.0028 -0.4990
12933TIP3    H160214   3.833   5.455   4.144  0.2326 -0.8833 -0.1491
12933TIP3    H260215   3.724   5.489   4.244  0.7398  2.8244 -0.7837
12934TIP3   OH260216   4.986   6.780   0.218 -0.0010  0.1744 -0.3473
12934TIP3    H160217   4.898   6.805   0.191 -0.5645 -1.5435 -0.2129
12934TIP3    H260218   4.989   6.799   0.312 -0.2716  0.1539 -0.3336
12935TIP3   OH260219   0.197   3.783  11.511  0.1418 -0.1533  0.2503
12935TIP3    H160220   0.220   3.820  11.596 -2.5535  1.9246  0.1476
12935TIP3    H260221   0.128   3.720  11.530 -0.8140  0.6739 -0.4089
12936TIP3   OH260222   3.055   1.676   4.732 -0.4162  0.3580 -0.2546
12936TIP3    H160223   3.115   1.715   4.795  0.2687  1.8730 -1.7810
12936TIP3    H260224   3.073   1.582   4.736  0.8753  0.6292  0.5096
12937TIP3   OH260225   4.014   2.104  15.320 -0.4873 -0.1994 -0.1895
12937TIP3    H160226   4.017   2.166  15.393 -0.5574 -0.1332 -0.2427
12937TIP3    H260227   4.005   2.018  15.362 -1.7122 -0.0637 -0.1585
12938TIP3   OH260228   3.613   1.058  15.026 -0.1678  0.0585  0.1982
12938TIP3    H160229   3.630   1.152  15.031 -0.5732  0.1016  0.8231
12938TIP3    H260230   3.636   1.034  14.937  0.4331  0.6548  0.1925
12939TIP3   OH260231   1.882   3.763  14.428  0.2818  0.0533  0.3368
12939TIP3    H160232   1.789   3.763  14.406  0.4439 -1.1478 -0.4352
12939TIP3    H260233   1.896   3.845  14.476 -1.4058 -0.2835  1.4735
12940TIP3   OH260234   4.154   6.694   3.516  0.7405  0.2686 -0.0723
12940TIP3    H160235   4.162   6.772   3.571  2.4737 -0.6030  0.9444
12940TIP3    H260236   4.104   6.632   3.569 -1.0320  0.8317 -1.0569
12941TIP3   OH260237   1.991   0.697  13.734 -0.1025  0.3227 -0.3306
12941TIP3    H160238   2.050   0.711  13.660 -0.7306  0.1096 -0.8855
12941TIP3    H260239   1.965   0.785  13.761 -0.3887  0.3861 -0.7964
12942TIP3   OH260240   6.484   6.308  14.490  0.2948 -0.1989 -0.2317
12942TIP3    H160241   6.455   6.226  14.451 -2.1886  0.5620 -0.0836
12942TIP3    H260242   6.519   6.359  14.416 -1.9346  0.1885 -1.0463
12943TIP3   OH260243   0.627   4.308   6.131  0.6083 -0.0152 -0.1654
12943TIP3    H160244   0.559   4.315   6.063  0.5195  0.1283 -0.0622
12943TIP3    H260245   0.675   4.229   6.109  0.4714 -0.0604 -0.2997
12944TIP3   OH260246   2.686   3.504   1.816 -0.1495 -0.6758 -0.3500
12944TIP3    H160247   2.600   3.495   1.857 -0.4673 -0.1549 -0.9074
12944TIP3    H260248   2.720   3.414   1.813 -2.3741 -1.4792 -3.8193
12945TIP3   OH260249   2.169   0.843   1.696 -0.1480 -0.0838  0.5645
12945TIP3    H160250   2.081   0.870   1.722 -0.8379 -1.4726 -0.2512
12945TIP3    H260251   2.215   0.826   1.778 -0.4944  1.1176  1.0056
12946TIP3   OH260252   4.001   4.844   4.183 -0.2557 -0.4603 -0.7213
12946TIP3    H160253   3.957   4.784   4.243  0.3636  0.0762  0.2809
12946TIP3    H260254   3.965   4.931   4.204  2.4901  0.2518  1.3183
12947TIP3   OH260255   4.016   1.758   2.938  0.7519 -0.2483  0.2418
12947TIP3    H160256   4.008   1.727   2.848 -0.1319  1.1534 -0.1769
12947TIP3    H260257   4.106   1.739   2.962  1.5151  0.9686 -1.5456
12948TIP3   OH260258   6.459   6.027   3.521 -0.0005 -0.2674  0.4661
12948TIP3    H160259   6.503   5.947   3.493 -1.0751 -1.5356  2.3302
12948TIP3    H260260   6.366   6.005   3.520 -0.2862  0.8544  1.2897
12949TIP3   OH260261   5.172   0.332   0.237 -0.1246  0.0161 -0.0441
12949TIP3    H160262   5.196   0.241   0.217 -0.9601 -0.2632  0.2114
12949TIP3    H260263   5.177   0.377   0.153 -0.2822 -0.4016 -0.2793
12950TIP3   OH260264   3.043   1.493   0.545 -0.2091 -0.4354  0.2269
12950TIP3    H160265   2.961   1.541   0.556  1.1184  1.5662  1.6720
12950TIP3    H260266   3.090   1.542   0.477  1.0163  0.1284  1.4675
12951TIP3   OH260267   1.022   3.879  12.433 -0.8057  0.1487 -0.4537
12951TIP3    H160268   1.006   3.798  12.385  0.0260  1.5111 -3.1128
12951TIP3    H260269   1.111   3.870  12.467  0.0661  0.7946 -2.5283
12952TIP3   OH260270   2.065   0.383  12.361 -0.3039 -0.0059  0.2559
12952TIP3    H160271   2.025   0.395  12.447  0.1292  2.6490  0.1449
12952TIP3    H260272   1.994   0.397  12.299 -0.7206 -2.4010  0.1809
12953TIP3   OH260273   3.605   5.578   5.423 -0.4034 -0.1592  0.0979
12953TIP3    H160274   3.542   5.585   5.495 -0.4872  0.0401  0.0067
12953TIP3    H260275   3.654   5.498   5.442 -1.1408 -0.6919 -0.1969
12954TIP3   OH260276   3.950   6.721  11.948  0.1547  0.0507  0.6190
12954TIP3    H160277   3.934   6.773  11.868  2.6977 -1.3460 -0.8629
12954TIP3    H260278   3.936   6.631  11.921  0.5426 -0.3994  1.9119
12955TIP3   OH260279   4.192   1.578   3.186  0.6081  0.8476 -0.0508
12955TIP3    H160280   4.157   1.665   3.206  2.1711  1.6242 -0.6126
12955TIP3    H260281   4.198   1.534   3.270 -1.0057  0.9537  0.1434
12956TIP3   OH260282   3.695   2.151  11.206 -0.1838  0.5123  0.3517
12956TIP3    H160283   3.672   2.207  11.280 -2.0613 -1.0988  1.0268
12956TIP3    H260284   3.619   2.156  11.147 -0.3463 -1.2150  0.3833
12957TIP3   OH260285   3.079   3.887  16.623 -0.3608 -0.2375 -0.0559
12957TIP3    H160286   2.990   3.924  16.625 -0.6327 -0.8981  1.6147
12957TIP3    H260287   3.066   3.796  16.596 -0.3610 -0.6806  1.3531
12958TIP3   OH260288   2.518   1.559   3.068 -0.1207  0.3638 -0.3502
12958TIP3    H160289   2.582   1.608   3.120 -1.7222  0.5883  1.4691
12958TIP3    H260290   2.494   1.618   2.996  0.5369  0.8869 -0.1356
12959TIP3   OH260291   1.634   0.748  12.162  0.0409  0.2227  0.4649
12959TIP3    H160292   1.652   0.669  12.113  0.6796  1.1414 -0.8054
12959TIP3    H260293   1.560   0.725  12.219 -1.0297 -0.7137 -1.2642
12960TIP3   OH260294   5.909   3.521  14.587 -0.0037 -0.0801 -0.2881
12960TIP3    H160295   5.828   3.473  14.605  0.9214 -1.9541 -1.0792
12960TIP3    H260296   5.944   3.542  14.674 -0.8920  0.0109  0.0570
12961TIP3   OH260297   0.331   6.453  15.408 -0.5197 -0.0388 -0.2640
12961TIP3    H160298   0.403   6.461  15.345 -2.6096 -0.2573 -2.7715
12961TIP3    H260299   0.355   6.378  15.463  1.3320  0.1509 -0.7877
12962TIP3   OH260300   5.799   2.996   0.467  0.1303  0.0697 -0.1327
12962TIP3    H160301   5.740   2.945   0.410  0.6004  0.5470 -1.0679
12962TIP3    H260302   5.870   3.023   0.409 -0.0273  1.6475  0.3926
12963TIP3   OH260303   4.847   1.072   0.205  0.7246 -0.0751  0.0253
12963TIP3    H160304   4.806   1.115   0.130  1.3039 -2.1338 -1.5210
12963TIP3    H260305   4.789   1.093   0.279 -1.7510 -0.7931 -1.6263
12964TIP3   OH260306   0.321   6.751  12.236 -0.4052  0.8218 -0.4454
12964TIP3    H160307   0.384   6.726  12.303  0.4470  0.0477 -1.5135
12964TIP3    H260308   0.238   6.758  12.283 -0.0040 -0.6461  0.5187
12965TIP3   OH260309   2.719   4.576   5.861 -0.5393  0.1348  0.4112
12965TIP3    H160310   2.686   4.666   5.866  0.9262  0.5483  4.5640
12965TIP3    H260311   2.640   4.522   5.862 -1.3506  1.2858  0.4204
12966TIP3   OH260312   1.699   3.430  13.210  0.4371  0.0887  0.0742
12966TIP3    H160313   1.767   3.378  13.168 -0.1262  0.7204 -1.6620
12966TIP3    H260314   1.661   3.481  13.139 -1.5039  0.1223  1.1074
12967TIP3   OH260315   0.419   6.504   5.309 -0.1384  0.4222 -0.9878
12967TIP3    H160316   0.384   6.564   5.375 -0.9028  1.9006 -2.6913
12967TIP3    H260317   0.409   6.418   5.348 -0.4147  1.2691  0.8951
12968TIP3   OH260318   4.893   1.700  14.174 -0.1640  0.4945  0.5710
12968TIP3    H160319   4.862   1.787  14.199 -1.0036  0.1115  0.8931
12968TIP3    H260320   4.884   1.647  14.253  1.3592  0.3665  0.6773
12969TIP3   OH260321   3.384   4.338   2.489 -0.0693 -0.3496  0.3173
12969TIP3    H160322   3.400   4.260   2.543  1.0688  0.4052  1.0960
12969TIP3    H260323   3.288   4.347   2.487 -0.1621 -1.0449  1.2670
12970TIP3   OH260324   1.477   5.718   5.686  0.0376 -0.0392 -0.1177
12970TIP3    H160325   1.506   5.632   5.656  0.0237  0.3857 -1.3837
12970TIP3    H260326   1.400   5.738   5.631  1.2610  1.6597 -1.2807
12971TIP3   OH260327   4.218   5.727   0.118  0.0769 -0.7581 -0.3908
12971TIP3    H160328   4.245   5.729   0.209 -2.9184 -0.8329  0.5562
12971TIP3    H260329   4.292   5.763   0.070  1.3546  0.0994  2.1563
12972TIP3   OH260330   2.806   0.501   0.469  0.0243  0.3321 -0.1318
12972TIP3    H160331   2.803   0.513   0.374 -2.5682  1.9914  0.0925
12972TIP3    H260332   2.733   0.441   0.487  0.5008  0.0251  0.8041
12973TIP3   OH260333   2.253   3.271   5.715  0.3306 -0.3745  0.7252
12973TIP3    H160334   2.306   3.192   5.721  1.1579  0.0084 -1.1694
12973TIP3    H260335   2.313   3.342   5.737  0.7992  0.1067 -1.9142
12974TIP3   OH260336   5.891   1.085  11.124  0.2144 -0.0266 -0.2474
12974TIP3    H160337   5.920   1.028  11.195  0.2793  0.7149  0.3182
12974TIP3    H260338   5.955   1.071  11.054  0.6800 -0.0395  0.1826
12975TIP3   OH260339   1.211   0.076  11.973 -0.4269  0.3693 -0.1595
12975TIP3    H160340   1.151   0.151  11.973 -0.6416  0.1987  0.1480
12975TIP3    H260341   1.215   0.049  11.882  1.8998  2.5405 -0.7437
12976TIP3   OH260342   2.161   6.740   2.187  0.0584 -0.0092  0.0556
12976TIP3    H160343   2.175   6.646   2.197 -1.1593 -0.0018  2.2329
12976TIP3    H260344   2.249   6.777   2.183  0.5369 -1.2781 -1.2175
12977TIP3   OH260345   3.789   3.810  13.750 -0.5255 -0.2562 -0.0977
12977TIP3    H160346   3.844   3.751  13.699  0.8987  3.0747 -2.6765
12977TIP3    H260347   3.837   3.824  13.832  0.4949 -0.5361 -0.6392
12978TIP3   OH260348   2.189   0.993  13.670 -0.1268 -0.1646 -0.0262
12978TIP3    H160349   2.199   0.982  13.576 -1.7267  1.2057 -0.3924
12978TIP3    H260350   2.271   1.032  13.699  1.4445 -3.1284 -0.3883
12979TIP3   OH260351   1.749   6.001  15.776  0.4194  0.1047  0.7666
12979TIP3    H160352   1.831   6.031  15.815  0.2744  1.3647  0.1288
12979TIP3    H260353   1.759   5.906  15.769  2.0954  0.3139  0.0613
12980TIP3   OH260354   0.446   2.973   1.265  0.2562 -0.7700 -0.2259
12980TIP3    H160355   0.444   2.957   1.359  2.0236  1.8243  0.3016
12980TIP3    H260356   0.396   3.054   1.253  2.0629  0.2392 -1.1858
12981TIP3   OH260357   1.523   5.305   3.996  0.2249 -1.0369  0.2550
12981TIP3    H160358   1.523   5.392   3.958 -1.9641 -0.9546  0.3685
12981TIP3    H260359   1.594   5.259   3.952 -0.7455 -0.2254 -2.2239
12982TIP3   OH260360   2.566   2.870  16.051  0.6396  0.3764  0.3237
12982TIP3    H160361   2.520   2.911  15.977  2.2412  2.5253  0.4606
12982TIP3    H260362   2.496   2.839  16.108 -0.6269 -0.0160 -1.3733
12983TIP3   OH260363   4.415   3.979  15.813  0.2914  0.3912 -0.0868
12983TIP3    H160364   4.444   3.973  15.904 -0.9710  2.0147  0.4423
12983TIP3    H260365   4.492   3.954  15.762  1.2504  0.2325  1.4112
12984TIP3   OH260366   2.853   3.842  14.777 -0.3478  0.5258  0.2323
12984TIP3    H160367   2.810   3.904  14.719 -1.8192 -0.1614  0.5741
12984TIP3    H260368   2.806   3.849  14.860  1.4463  1.1634  1.2194
12985TIP3   OH260369   1.798   3.040  15.118  0.0715 -0.0356  0.1885
12985TIP3    H160370   1.848   2.987  15.056 -0.5185  0.2586 -0.5501
12985TIP3    H260371   1.801   2.990  15.199 -1.2952 -1.6994 -0.7425
12986TIP3   OH260372   1.244   2.593  11.822  0.6297  0.7806  0.1106
12986TIP3    H160373   1.256   2.684  11.795  0.9471  0.4115 -0.9908
12986TIP3    H260374   1.329   2.568  11.858  1.0728  0.3840 -1.1849
12987TIP3   OH260375   2.244   3.508  11.354 -0.4351 -0.7810 -0.3241
12987TIP3    H160376   2.247   3.443  11.285  0.1165 -1.0059 -0.0933
12987TIP3    H260377   2.208   3.587  11.313  1.3476 -0.4300 -1.2656
12988TIP3   OH260378   4.422   0.867   5.227  0.1719  0.5030 -0.1346
12988TIP3    H160379   4.353   0.833   5.284 -0.5332 -1.5615 -2.1344
12988TIP3    H260380   4.498   0.812   5.246  0.1956  0.3917 -0.5590
12989TIP3   OH260381   3.371   5.656  12.293  0.0154  0.0912 -0.3332
12989TIP3    H160382   3.316   5.585  12.260 -0.2500  0.2757 -0.2872
12989TIP3    H260383   3.331   5.680  12.377  0.5992 -0.2744  0.0551
12990TIP3   OH260384   3.765   3.234  16.625 -0.4379 -0.0533 -0.2625
12990TIP3    H160385   3.805   3.246  16.539 -0.1548  0.0776 -0.1156
12990TIP3    H260386   3.837   3.209  16.682 -0.7476 -0.8248 -0.2079
12991TIP3   OH260387   3.092   3.085   3.858 -0.5950 -0.1719  0.4781
12991TIP3    H160388   3.122   3.008   3.907  1.4430 -0.2595 -0.8563
12991TIP3    H260389   3.096   3.059   3.766 -0.2661  1.3846  0.0322
12992TIP3   OH260390   5.514   5.213   4.872  0.0031  0.1635 -0.0620
12992TIP3    H160391   5.507   5.150   4.801 -2.3663  1.2431 -0.8312
12992TIP3    H260392   5.600   5.254   4.858  0.2321 -0.7165 -1.3685
12993TIP3   OH260393   1.958   6.709  15.584 -0.5803 -0.2005 -0.1588
12993TIP3    H160394   2.044   6.706  15.541 -0.8285  0.5022 -0.7196
12993TIP3    H260395   1.974   6.751  15.668  0.0384 -2.2287  0.7785
12994TIP3   OH260396   3.488   5.448  16.995  0.3011  0.1861 -0.2643
12994TIP3    H160397   3.500   5.401  17.077  0.9851  0.7992 -0.0112
12994TIP3    H260398   3.575   5.450  16.956  0.5701  2.4398  0.3725
12995TIP3   OH260399   1.544   1.977   4.132 -0.1661 -0.0845  0.3891
12995TIP3    H160400   1.531   1.942   4.220 -2.2813 -1.9597 -0.6240
12995TIP3    H260401   1.570   2.068   4.147  0.5580 -0.6562  2.9587
12996TIP3   OH260402   2.408   4.194  16.901  0.1642 -0.1298 -0.3157
12996TIP3    H160403   2.501   4.212  16.888  0.6327 -2.9705 -1.2783
12996TIP3    H260404   2.363   4.262  16.851  1.7212  0.9282 -0.3112
12997TIP3   OH260405   6.253   2.132  12.581 -0.0497 -0.4835 -0.5983
12997TIP3    H160406   6.261   2.223  12.554 -1.1794 -0.8630 -2.2917
12997TIP3    H260407   6.233   2.085  12.500 -0.8579 -2.0436  0.4902
12998TIP3   OH260408   4.771   5.659   5.458 -0.2739  0.0303  0.0912
12998TIP3    H160409   4.787   5.641   5.365  0.1630 -1.4362  0.4357
12998TIP3    H260410   4.677   5.647   5.469 -0.4357  0.8717 -0.2884
12999TIP3   OH260411   3.679   3.773   4.019  0.2281  0.4460 -0.0398
12999TIP3    H160412   3.762   3.811   3.989  1.0117 -0.8971  0.4064
12999TIP3    H260413   3.646   3.724   3.943  1.2348 -1.3238  0.6474
13000TIP3   OH260414   3.439   0.185  15.261  0.1624  0.2262 -0.0827
13000TIP3    H160415   3.526   0.165  15.297  0.1652  0.7469  0.2193
13000TIP3    H260416   3.380   0.125  15.306  0.4180 -0.3933 -0.5698
13001TIP3   OH260417   1.328   3.692   1.549 -0.7156 -0.4852  0.0521
13001TIP3    H160418   1.300   3.606   1.520 -1.8693 -0.1761  0.2412
13001TIP3    H260419   1.305   3.751   1.477 -0.7953 -0.1938  0.3112
13002TIP3   OH260420   4.718   0.297   0.486  0.1529 -0.9376  0.2406
13002TIP3    H160421   4.789   0.303   0.422  0.2940  0.8590  0.5614
13002TIP3    H260422   4.730   0.372   0.543 -3.5395  0.9370 -1.2900
13003TIP3   OH260423   1.733   2.884  12.810  0.3714  0.1421 -0.0369
13003TIP3    H160424   1.735   2.788  12.809  0.0063  0.1353 -0.3676
13003TIP3    H260425   1.667   2.905  12.875 -1.1984  0.1344 -1.5921
13004TIP3   OH260426   4.075   0.424   3.800 -0.1203  0.4551 -0.2604
13004TIP3    H160427   4.164   0.448   3.776 -0.1803  1.4301  0.4684
13004TIP3    H260428   4.085   0.351   3.860  0.1299 -0.3072 -1.2137
13005TIP3   OH260429   2.403   4.053   5.605  0.0476  0.0844 -0.0158
13005TIP3    H160430   2.419   3.967   5.565 -0.9660 -0.0471 -0.1605
13005TIP3    H260431   2.429   4.116   5.537 -0.2576 -0.1255 -0.3309
13006TIP3   OH260432   5.810   2.406   5.900  0.2532  0.2862 -0.3006
13006TIP3    H160433   5.837   2.399   5.809 -0.5551 -0.0790 -0.5222
13006TIP3    H260434   5.751   2.481   5.902 -0.0867  0.0188 -0.1734
13007TIP3   OH260435   3.412   2.753  15.176  0.0482 -1.0314 -0.5522
13007TIP3    H160436   3.411   2.843  15.144 -1.5240 -2.0235 -3.4754
13007TIP3    H260437   3.436   2.761  15.268  0.9794  2.2764 -1.0021
13008TIP3   OH260438   0.815   0.670  15.069 -0.0342 -0.4274  0.0124
13008TIP3    H160439   0.827   0.575  15.063  1.5105 -0.4100  2.3355
13008TIP3    H260440   0.895   0.707  15.031  0.0867 -0.0581  0.6346
13009TIP3   OH260441   5.469   1.036   2.778 -0.4535  0.3911 -0.3562
13009TIP3    H160442   5.381   0.999   2.778 -0.4597  0.3972  1.3259
13009TIP3    H260443   5.526   0.961   2.794 -0.2280  0.5826 -0.2645
13010TIP3   OH260444   6.775   2.781   0.542 -0.1807 -0.5408 -0.2423
13010TIP3    H160445   6.870   2.792   0.538  0.0116 -2.3989 -1.6414
13010TIP3    H260446   6.760   2.718   0.613 -0.5779  1.4387  1.4993
13011TIP3   OH260447   4.434   6.507   1.556  0.4486 -0.8159 -0.2439
13011TIP3    H160448   4.414   6.482   1.646 -2.6597 -1.3805 -1.0293
13011TIP3    H260449   4.413   6.600   1.551 -0.3316 -1.0007 -0.6009
13012TIP3   OH260450   6.106   5.299  12.292  0.2999 -0.7534  0.4028
13012TIP3    H160451   6.023   5.253  12.276 -0.0889 -0.4918  1.6380
13012TIP3    H260452   6.088   5.391  12.273  0.0135 -0.5396  1.6574
13013TIP3   OH260453   1.373   5.766   0.164 -0.1499  0.3931 -0.4794
13013TIP3    H160454   1.445   5.710   0.193 -0.3022 -0.0470 -0.9357
13013TIP3    H260455   1.415   5.836   0.114 -0.0054  0.3654 -0.3966
13014TIP3   OH260456   1.644   1.136  13.968  0.1011  0.1403 -0.6576
13014TIP3    H160457   1.642   1.230  13.985  1.5572  0.3330 -1.4759
13014TIP3    H260458   1.728   1.107  14.002 -0.1247 -0.7771 -0.8583
13015TIP3   OH260459   1.698   4.813  15.627 -0.5287  0.0313  0.1970
13015TIP3    H160460   1.724   4.726  15.598 -2.8147 -0.7713  0.4393
13015TIP3    H260461   1.739   4.824  15.712  0.3869 -0.4998 -0.1757
13016TIP3   OH260462   5.143   3.247   0.630 -0.5016  0.4446 -0.1420
13016TIP3    H160463   5.206   3.249   0.702 -0.5113 -0.4383 -0.1120
13016TIP3    H260464   5.159   3.329   0.583  1.6089 -0.3719 -0.9324
13017TIP3   OH260465   0.954   1.074   3.128  0.9345 -0.6153  0.1183
13017TIP3    H160466   0.925   0.987   3.155  0.1711 -1.3338 -2.8378
13017TIP3    H260467   0.874   1.117   3.097  1.8261 -0.1263 -1.5970
13018TIP3   OH260468   2.163   4.850   5.589  0.2769 -0.1825 -0.3634
13018TIP3    H160469   2.117   4.772   5.620  0.2336 -0.1093 -0.2402
13018TIP3    H260470   2.144   4.854   5.496  0.3370 -0.3593 -0.3843
13019TIP3   OH260471   3.365   3.955   3.764 -0.0512  0.1504  0.4112
13019TIP3    H160472   3.425   3.886   3.736 -0.4739 -1.2454  2.7726
13019TIP3    H260473   3.366   4.018   3.692  0.8535 -1.9887 -1.5400
13020TIP3   OH260474   3.865   0.029  11.714  0.2493 -0.4993 -0.2305
13020TIP3    H160475   3.872   0.103  11.654 -2.3278  0.3553  0.4677
13020TIP3    H260476   3.809  -0.033  11.668 -1.0759 -0.1844  0.9361
13021TIP3   OH260477   2.146   4.196   0.992  0.1961  0.3322 -0.2288
13021TIP3    H160478   2.178   4.114   1.031 -2.7850 -1.2863 -1.0960
13021TIP3    H260479   2.088   4.232   1.059 -0.4033  0.4847 -0.8323
13022TIP3   OH260480   2.471   0.508  15.636 -0.0880  0.0440  0.7186
13022TIP3    H160481   2.495   0.417  15.618 -1.0034  0.0145 -0.3619
13022TIP3    H260482   2.555   0.555  15.637  0.2730 -0.5791 -0.0146
13023TIP3   OH260483   6.395   2.826  13.645 -0.2744 -0.5822 -0.4784
13023TIP3    H160484   6.389   2.918  13.670 -0.5709 -1.0226  1.1461
13023TIP3    H260485   6.441   2.784  13.718 -2.4599 -2.1866  0.0310
13024TIP3   OH260486   6.341   1.063   4.764 -0.0498  1.2763 -0.2312
13024TIP3    H160487   6.370   1.017   4.842  3.3496 -0.6367 -2.4694
13024TIP3    H260488   6.376   1.152   4.774  0.7715  0.9058  0.2581
13025TIP3   OH260489   6.039   6.072  12.159  0.0702  0.6342 -0.3563
13025TIP3    H160490   5.967   6.097  12.218  0.4750  0.8519  0.0469
13025TIP3    H260491   6.085   6.002  12.206  0.6355  1.0885 -0.2356
13026TIP3   OH260492   0.375   2.602   1.693 -0.4975  0.2294  0.3983
13026TIP3    H160493   0.439   2.650   1.745 -0.2015 -0.5006  0.7124
13026TIP3    H260494   0.418   2.587   1.609 -1.0302  1.5377 -0.1236
13027TIP3   OH260495   0.300   6.025  11.170 -0.2590  0.4329 -0.2245
13027TIP3    H160496   0.285   5.932  11.149 -1.8984  0.9829 -1.6381
13027TIP3    H260497   0.224   6.050  11.222  0.9597  0.6095  1.5234
13028TIP3   OH260498   2.156   2.672  16.031  0.7807  0.4475 -0.1431
13028TIP3    H160499   2.244   2.657  15.997 -0.0961 -0.2386 -2.1782
13028TIP3    H260500   2.157   2.764  16.059  1.4286  1.2168 -2.4902
13029TIP3   OH260501   1.801   0.712  12.665 -0.1052  0.4597 -0.4556
13029TIP3    H160502   1.872   0.774  12.649 -0.5075  0.8372 -0.7894
13029TIP3    H260503   1.780   0.677  12.578 -1.4486  1.5806 -0.6013
13030TIP3   OH260504   4.227   1.092  14.441 -0.0597 -0.1300 -0.1184
13030TIP3    H160505   4.156   1.046  14.486  0.2101  0.7190  1.1898
13030TIP3    H260506   4.182   1.156  14.385 -0.3074  1.2177  1.5954
13031TIP3   OH260507   1.669   0.385  16.146  0.3958  0.0299 -0.0222
13031TIP3    H160508   1.632   0.469  16.119  2.6119  1.3784  0.9865
13031TIP3    H260509   1.749   0.408  16.193 -0.1455 -2.5248  2.3077
13032TIP3   OH260510   4.904   2.853  15.990 -0.2722 -0.0891  0.0755
13032TIP3    H160511   4.869   2.892  16.070 -2.3715 -1.2887 -0.2235
13032TIP3    H260512   4.899   2.924  15.925 -0.2600  0.3591  0.5637
13033TIP3   OH260513   6.657   5.669   5.260  0.3189  0.6742  0.4375
13033TIP3    H160514   6.700   5.684   5.176  1.0721 -1.1951  0.4783
13033TIP3    H260515   6.568   5.702   5.247  1.2878  3.2250 -0.1028
13034TIP3   OH260516   4.488   1.960   2.792  0.4123  0.1251  0.6877
13034TIP3    H160517   4.515   2.034   2.737 -0.2493 -0.2015 -0.0908
13034TIP3    H260518   4.395   1.949   2.773 -0.3287  1.3047  3.4206
13035TIP3   OH260519   6.509   5.337  15.141  0.3748 -0.1728 -0.2397
13035TIP3    H160520   6.439   5.292  15.093 -1.1254  0.4512  1.3158
13035TIP3    H260521   6.466   5.373  15.219  2.0938  1.6357 -0.0783
13036TIP3   OH260522   6.660   0.685  10.918  0.4357  0.3054  0.0951
13036TIP3    H160523   6.673   0.721  10.831  1.2908 -0.9195 -0.2884
13036TIP3    H260524   6.635   0.594  10.903 -0.9249  0.5008  1.0805
13037TIP3   OH260525   2.976   0.374   6.036  0.0107 -0.3178  0.1078
13037TIP3    H160526   2.943   0.284   6.039  0.8119 -0.5736  1.5847
13037TIP3    H260527   3.071   0.365   6.048  0.3563  0.5903 -1.7311
13038TIP3   OH260528   3.770   2.769   5.319  0.1750 -0.2173 -0.0267
13038TIP3    H160529   3.860   2.779   5.348 -0.0834  0.7354  0.4628
13038TIP3    H260530   3.717   2.805   5.390 -0.5873 -0.7881 -0.3003
13039TIP3   OH260531   6.579   1.880   0.370 -0.6166  0.1747  0.4830
13039TIP3    H160532   6.656   1.825   0.383 -1.6053 -1.3871 -0.0304
13039TIP3    H260533   6.583   1.905   0.278 -0.9409 -0.2686  0.3454
13040TIP3   OH260534   6.537   4.325  16.437  0.3283  0.0696  0.2929
13040TIP3    H160535   6.608   4.366  16.387  0.4496 -1.0486 -0.4843
13040TIP3    H260536   6.552   4.231  16.426 -0.0303 -0.1883  1.9146
13041TIP3   OH260537   5.817   2.709  13.083  0.4866  0.0169 -0.0157
13041TIP3    H160538   5.761   2.771  13.128  0.4847  0.5882 -0.7904
13041TIP3    H260539   5.755   2.651  13.037  0.4055 -2.1372  2.7188
13042TIP3   OH260540   4.911   2.301   0.451  0.4636 -0.3857  0.4425
13042TIP3    H160541   4.955   2.325   0.370  0.6779  0.2756  0.7530
13042TIP3    H260542   4.965   2.339   0.520  0.0039 -0.5091  0.8728
13043TIP3   OH260543   4.959   4.174  15.873  0.0866 -0.2116 -1.1453
13043TIP3    H160544   4.878   4.165  15.923 -0.5279  0.1060 -2.0667
13043TIP3    H260545   4.962   4.267  15.850  0.3101 -0.3689 -1.7667
13044TIP3   OH260546   5.430   2.426  14.268  0.0964 -0.1617  0.0541
13044TIP3    H160547   5.460   2.336  14.286  3.4195  0.6036 -1.2428
13044TIP3    H260548   5.444   2.472  14.351  0.2027 -0.4096  0.1748
13045TIP3   OH260549   2.117   3.707  12.292 -0.5930 -0.1951 -0.2488
13045TIP3    H160550   2.147   3.775  12.352 -1.8282 -1.2111  1.5980
13045TIP3    H260551   2.025   3.728  12.276 -1.1259 -1.6342  0.7323
13046TIP3   OH260552   0.592   5.894   4.056 -0.4537 -0.1826  0.8085
13046TIP3    H160553   0.593   5.864   4.147  0.6578  1.7661  1.4681
13046TIP3    H260554   0.519   5.955   4.051  0.1960  0.5888  0.6858
13047TIP3   OH260555   3.433   1.242  16.523  0.4922  0.3475  0.3507
13047TIP3    H160556   3.435   1.337  16.507  0.8495  0.0587 -1.3762
13047TIP3    H260557   3.474   1.232  16.609  0.0069  1.7962  0.7771
13048TIP3   OH260558   3.495   0.779   2.208  0.4432  0.4850 -0.0877
13048TIP3    H160559   3.550   0.705   2.232  2.1585  1.5800 -0.5191
13048TIP3    H260560   3.436   0.790   2.283 -1.1124 -2.4419 -0.8209
13049TIP3   OH260561   5.878   3.023   1.367  0.2773 -0.0539  0.1793
13049TIP3    H160562   5.926   3.105   1.379  0.0342  0.0507  0.4539
13049TIP3    H260563   5.829   3.011   1.449  0.0172 -0.2775 -0.0045
13050TIP3   OH260564   6.348   3.883   5.264  0.0772  0.1589  0.0120
13050TIP3    H160565   6.433   3.901   5.224 -0.2436 -2.5176 -1.9693
13050TIP3    H260566   6.366   3.817   5.330 -0.2382  0.7125  0.6577
13051TIP3   OH260567   6.243   4.721  12.374  0.4486  0.0363 -0.7240
13051TIP3    H160568   6.231   4.626  12.376  0.3024  0.0539 -0.7255
13051TIP3    H260569   6.337   4.733  12.360  0.6081 -0.1037  0.2375
13052TIP3   OH260570   2.571   2.260  12.590  0.7303  1.0939  0.5164
13052TIP3    H160571   2.573   2.294  12.500  0.5385  1.4013  0.6282
13052TIP3    H260572   2.663   2.245  12.612  0.8643  2.1785  0.7066
13053TIP3   OH260573   4.309   0.791   0.221 -0.6450  0.4091 -0.4794
13053TIP3    H160574   4.397   0.814   0.251 -0.5370  1.5692 -1.6042
13053TIP3    H260575   4.251   0.839   0.280 -0.4558  1.8841 -1.4700
13054TIP3   OH260576   3.472   0.121   1.076  0.0830  0.3136  0.4010
13054TIP3    H160577   3.567   0.125   1.060  0.6734  1.2045  3.5944
13054TIP3    H260578   3.458   0.185   1.146 -2.6028 -1.1330  1.2389
13055TIP3   OH260579   2.103   2.619   3.918  0.3721 -0.5724  0.1577
13055TIP3    H160580   2.036   2.623   3.986 -1.7174 -0.5438 -1.8536
13055TIP3    H260581   2.099   2.529   3.886 -0.8444  0.2403 -2.0579
13056TIP3   OH260582   2.827   1.197   3.671  0.3311  0.0572  0.8744
13056TIP3    H160583   2.811   1.108   3.701  0.0394 -0.3880 -0.5732
13056TIP3    H260584   2.889   1.233   3.735  1.8126 -1.7620  0.4965
13057TIP3   OH260585   3.892   3.273  13.206  0.1453 -0.1986  0.5322
13057TIP3    H160586   3.987   3.265  13.203  0.1661  0.0902  0.4206
13057TIP3    H260587   3.864   3.210  13.272  0.4978  0.4670  1.3161
13058TIP3   OH260588   5.970   4.043   0.768  0.3879  0.1476  0.4343
13058TIP3    H160589   5.932   4.089   0.843  0.9218  1.5085 -0.1007
13058TIP3    H260590   6.049   4.002   0.803  0.1101 -0.0451  0.8399
13059TIP3   OH260591   1.029   0.306  13.684 -0.2178  0.3942  0.4371
13059TIP3    H160592   1.005   0.381  13.631  2.7179  1.4720  0.5341
13059TIP3    H260593   1.013   0.230  13.628  1.4460  1.4189 -1.4808
13060TIP3   OH260594   2.980   1.267   2.955  0.4515 -0.0743  0.0134
13060TIP3    H160595   2.892   1.252   2.920  0.2142  1.7560 -0.2075
13060TIP3    H260596   2.998   1.190   3.009 -1.9328  0.2610  1.3419
13061TIP3   OH260597   6.375   6.617  13.955 -0.6612  0.0799  0.1497
13061TIP3    H160598   6.382   6.685  13.888 -0.8496  0.0769  0.1270
13061TIP3    H260599   6.454   6.564  13.944 -1.1491 -0.4819 -0.6808
13062TIP3   OH260600   1.689   2.494   4.694 -0.2912  0.0496  0.4573
13062TIP3    H160601   1.620   2.542   4.740 -0.1767  0.4137  0.2476
13062TIP3    H260602   1.643   2.444   4.627 -0.4168 -0.1844  0.7168
13063TIP3   OH260603   3.290   0.467  13.291  0.9324 -0.2815 -0.0145
13063TIP3    H160604   3.215   0.472  13.350 -0.1981 -1.1732 -1.3520
13063TIP3    H260605   3.363   0.441  13.347  0.2930  0.7218  1.3289
13064TIP3   OH260606   0.496   3.356  14.465 -0.3181  0.5441 -0.4317
13064TIP3    H160607   0.584   3.376  14.436  0.0855  1.1515  1.1835
13064TIP3    H260608   0.485   3.263  14.444  1.3922 -0.0183  1.0652
13065TIP3   OH260609   2.384   0.716  10.875  0.4388  0.6362  0.1591
13065TIP3    H160610   2.427   0.736  10.792 -0.5581  2.8452  0.1481
13065TIP3    H260611   2.451   0.734  10.942  0.5235  1.0492 -0.0355
13066TIP3   OH260612   6.298   4.623  14.854 -0.3351 -0.2131  0.0370
13066TIP3    H160613   6.329   4.561  14.919  1.3931 -1.5577 -2.0038
13066TIP3    H260614   6.317   4.582  14.770 -2.1702  1.6373 -1.3456
13067TIP3   OH260615   6.726   4.141   3.591 -0.1086 -0.1936  0.1386
13067TIP3    H160616   6.769   4.147   3.506  0.4719 -0.9457  0.3799
13067TIP3    H260617   6.749   4.222   3.636  3.2132 -1.7123  1.2793
13068TIP3   OH260618   1.763   3.209   2.176  0.3186 -0.2049  0.7592
13068TIP3    H160619   1.765   3.259   2.094 -2.3305 -0.0833  0.7116
13068TIP3    H260620   1.755   3.275   2.244 -0.8028 -0.4271  0.8602
13069TIP3   OH260621   0.795   5.160  12.487 -0.0484  0.0992  0.6134
13069TIP3    H160622   0.883   5.175  12.523 -0.9142  3.1550  1.5752
13069TIP3    H260623   0.793   5.212  12.407 -0.9365 -0.1442  0.4752
13070TIP3   OH260624   0.633   6.005   0.348 -0.4637 -0.1832  0.1394
13070TIP3    H160625   0.575   5.938   0.313 -0.0873  0.3857 -1.6100
13070TIP3    H260626   0.718   5.961   0.357 -0.5935 -0.3669  0.5205
13071TIP3   OH260627   1.904   4.737  13.205  0.3597  0.5519 -0.8067
13071TIP3    H160628   1.973   4.770  13.264 -0.4809  1.1348 -0.1367
13071TIP3    H260629   1.839   4.807  13.203 -0.0159  0.1761 -1.7720
13072TIP3   OH260630   1.014   4.294  12.553 -0.2357  0.2449  0.0863
13072TIP3    H160631   0.963   4.213  12.552  0.4297 -0.1725 -0.4959
13072TIP3    H260632   1.042   4.304  12.644 -0.3852 -0.1359  0.1750
13073TIP3   OH260633   0.193   5.095   1.647  0.3267 -0.0145 -0.0328
13073TIP3    H160634   0.264   5.120   1.587  0.8291 -1.2692  0.0359
13073TIP3    H260635   0.207   5.002   1.664 -2.6151 -0.8449 -1.7790
13074TIP3   OH260636   0.335   3.229  12.586  0.0083 -0.8406  0.2110
13074TIP3    H160637   0.360   3.316  12.618  2.7868 -1.7107  0.4859
13074TIP3    H260638   0.343   3.172  12.662 -0.3679 -1.6040 -0.3172
13075TIP3   OH260639   6.066   2.216   0.074  0.1927 -0.3094  0.1395
13075TIP3    H160640   5.996   2.213   0.139 -1.6613  0.8711 -1.7227
13075TIP3    H260641   6.099   2.305   0.077  0.3131 -0.3356 -0.3161
13076TIP3   OH260642   0.690   5.037   2.753  0.1486 -0.3641 -0.6341
13076TIP3    H160643   0.766   5.008   2.803 -0.7785 -3.4930 -0.9204
13076TIP3    H260644   0.616   5.022   2.812 -0.5600 -0.3680 -1.5219
13077TIP3   OH260645   3.010   1.950  16.534 -0.2302  0.2654  0.0497
13077TIP3    H160646   3.096   1.992  16.542 -0.1272 -0.0842  0.8457
13077TIP3    H260647   2.966   1.969  16.617 -0.6217 -0.2260 -0.0420
13078TIP3   OH260648   5.011   0.250   4.449 -0.4686 -0.4772 -0.1340
13078TIP3    H160649   5.042   0.165   4.416  0.5335 -0.0578 -0.2853
13078TIP3    H260650   5.012   0.307   4.373 -2.1183 -0.5719 -0.2591
13079TIP3   OH260651   5.824   1.125   2.176 -0.1169 -0.3444 -0.2648
13079TIP3    H160652   5.868   1.046   2.144  1.5497 -0.2014  1.5908
13079TIP3    H260653   5.750   1.093   2.228  0.0559 -0.6500 -0.2118
13080TIP3   OH260654   4.483   1.519  10.953  0.5433  0.6325  0.3378
13080TIP3    H160655   4.471   1.528  10.858 -0.4694 -0.8386  0.3141
13080TIP3    H260656   4.537   1.441  10.963 -0.7049 -0.1616  1.0362
13081TIP3   OH260657   0.775   3.609   5.349  0.2254  0.1071  0.1008
13081TIP3    H160658   0.767   3.591   5.255  0.2442 -0.8594  0.2814
13081TIP3    H260659   0.742   3.699   5.359 -0.4806 -0.0579 -0.7095
13082TIP3   OH260660   0.184   5.859   5.531 -0.1527 -0.2857  0.1660
13082TIP3    H160661   0.169   5.927   5.596  1.1504  2.5548 -2.3615
13082TIP3    H260662   0.114   5.871   5.467  0.6569 -0.6603 -0.8067
13083TIP3   OH260663   3.595   4.682  12.480  0.0842  0.1965  0.1840
13083TIP3    H160664   3.507   4.658  12.508 -0.6991 -1.0691 -3.2018
13083TIP3    H260665   3.652   4.616  12.520 -0.8993 -1.0747 -0.4862
13084TIP3   OH260666   5.417   0.589  15.799  0.2357 -0.6968  0.4202
13084TIP3    H160667   5.470   0.634  15.734  0.8876 -0.9854  0.7429
13084TIP3    H260668   5.341   0.646  15.812  1.2381  0.4932  1.1198
13085TIP3   OH260669   0.023   2.929  14.614  0.5834 -0.0465 -0.5368
13085TIP3    H160670   0.086   2.970  14.554  0.6695 -1.2400 -1.2798
13085TIP3    H260671  -0.062   2.964  14.588  0.8722  1.0727  0.0402
13086TIP3   OH260672   1.637   3.978   3.194 -0.0119  0.1237 -0.1029
13086TIP3    H160673   1.717   3.937   3.160 -0.3579 -0.1232 -0.6136
13086TIP3    H260674   1.573   3.907   3.197 -0.1206  0.2551  0.6031
13087TIP3   OH260675   4.371   2.815   5.173 -0.2496 -0.0627 -0.2766
13087TIP3    H160676   4.425   2.894   5.178  1.3596 -1.0354 -1.8889
13087TIP3    H260677   4.410   2.754   5.235 -0.6980 -0.0848 -0.0082
13088TIP3   OH260678   6.311   2.856  16.537  0.4269 -0.5071  0.3340
13088TIP3    H160679   6.320   2.788  16.471  1.0188 -0.1285  0.0333
13088TIP3    H260680   6.341   2.936  16.495  0.9154 -0.2859  1.0953
13089TIP3   OH260681   0.172   6.691   0.678  0.8888 -0.0566 -0.3456
13089TIP3    H160682   0.198   6.777   0.645  1.7825 -0.0630  0.3237
13089TIP3    H260683   0.238   6.631   0.642  0.8352 -0.3183 -0.0090
13090TIP3   OH260684   6.172   5.995   2.357 -0.6460  0.5784  0.2804
13090TIP3    H160685   6.157   5.929   2.289  0.6185 -0.6434  1.1423
13090TIP3    H260686   6.085   6.024   2.382 -1.3195 -1.8733  0.9075
13091TIP3   OH260687   1.243   6.553   4.951 -0.0159 -0.3061 -0.0170
13091TIP3    H160688   1.261   6.463   4.980 -0.2544 -0.9940 -1.9473
13091TIP3    H260689   1.329   6.591   4.935  0.0216 -0.7669 -0.9081
13092TIP3   OH260690   1.168   2.911  15.204 -0.4305  0.2944  0.4154
13092TIP3    H160691   1.261   2.892  15.217 -0.6732 -1.0229  0.3163
13092TIP3    H260692   1.123   2.856  15.268 -1.2034  0.0960 -0.2912
13093TIP3   OH260693   5.692   3.513   3.254 -0.3510 -0.4158  0.2090
13093TIP3    H160694   5.697   3.440   3.316 -0.0079 -0.0279  0.6433
13093TIP3    H260695   5.774   3.562   3.268 -0.9396  0.5013  0.4900
13094TIP3   OH260696   5.189   5.788  11.603 -0.4374  0.4551  0.4490
13094TIP3    H160697   5.124   5.855  11.583 -0.2972  0.2334 -0.7568
13094TIP3    H260698   5.141   5.706  11.596 -0.8181  0.4428  2.7382
13095TIP3   OH260699   3.613   6.563  14.444  0.2593  0.2343  0.1923
13095TIP3    H160700   3.661   6.605  14.373  0.7869 -1.5175 -0.5147
13095TIP3    H260701   3.664   6.484  14.464 -1.2152 -0.5796  0.8285
13096TIP3   OH260702   2.329   5.429  14.639 -0.1308  0.4043 -0.0453
13096TIP3    H160703   2.297   5.409  14.727  1.3440  0.7951  0.5937
13096TIP3    H260704   2.377   5.511  14.649 -0.1038  0.5357 -1.2441
13097TIP3   OH260705   2.858   2.906  11.805  0.2053 -0.2087 -0.5244
13097TIP3    H160706   2.829   2.992  11.776 -1.2296 -0.4254  0.1869
13097TIP3    H260707   2.877   2.858  11.725 -0.8558  0.1582 -1.0126
13098TIP3   OH260708   4.488   2.578   2.937 -0.4501  0.7156  0.0884
13098TIP3    H160709   4.424   2.646   2.960 -0.1084  1.0276  0.1246
13098TIP3    H260710   4.501   2.529   3.018 -1.2814  0.1123 -0.1314
13099TIP3   OH260711   1.780   1.331   0.276  0.0517  0.5586  0.0858
13099TIP3    H160712   1.731   1.396   0.225  0.6534  1.3021  0.4547
13099TIP3    H260713   1.794   1.373   0.361  0.7600  0.0851  0.2040
13100TIP3   OH260714   2.786   6.223   5.056  0.1705 -0.0575  0.0672
13100TIP3    H160715   2.699   6.261   5.044  0.4657  0.4131 -0.6389
13100TIP3    H260716   2.836   6.293   5.098  0.2310 -0.3033  0.4089
13101TIP3   OH260717   6.121   5.769   4.149 -0.2460  0.2811 -0.2899
13101TIP3    H160718   6.056   5.838   4.155 -0.5319  0.0527 -0.7153
13101TIP3    H260719   6.110   5.718   4.230  0.1724  0.9037  0.1660
13102TIP3   OH260720   2.383   0.404   3.706 -0.1589  0.0858 -0.1024
13102TIP3    H160721   2.329   0.359   3.771 -3.3793  1.4947 -1.6772
13102TIP3    H260722   2.418   0.335   3.651 -0.3526 -0.8600  0.9499
13103TIP3   OH260723   3.931   5.132  16.293 -0.1997 -0.0267 -0.1352
13103TIP3    H160724   3.917   5.037  16.295  0.4500 -0.1363 -0.5317
13103TIP3    H260725   4.017   5.144  16.333 -0.4669  0.4400  0.3145
13104TIP3   OH260726   5.808   0.322  11.077 -0.2421  0.3278  0.2332
13104TIP3    H160727   5.763   0.318  11.161  0.9501  0.2764  0.8867
13104TIP3    H260728   5.864   0.244  11.076  0.3320  0.7419 -0.2656
13105TIP3   OH260729   6.186   5.838   1.035  0.4757  0.0621 -0.7961
13105TIP3    H160730   6.275   5.857   1.065 -0.1788  1.6340  0.2169
13105TIP3    H260731   6.190   5.849   0.940  1.1503  1.0541 -0.6596
13106TIP3   OH260732   0.833   3.909   5.817 -0.7906 -0.2929 -0.0533
13106TIP3    H160733   0.757   3.859   5.846 -0.8114 -0.5085 -0.4760
13106TIP3    H260734   0.907   3.851   5.836 -0.8456 -0.6495 -0.8979
13107TIP3   OH260735   2.446   1.486  17.145  0.2736 -0.2046 -0.1315
13107TIP3    H160736   2.480   1.428  17.076 -0.2226 -0.5641 -0.0782
13107TIP3    H260737   2.416   1.426  17.213 -0.3786  0.1028 -0.1413
13108TIP3   OH260738   1.430   0.325   5.306 -0.2094  0.5031  0.5194
13108TIP3    H160739   1.502   0.363   5.357  1.0749 -1.1866  0.0105
13108TIP3    H260740   1.409   0.243   5.352  0.2562 -0.5182 -1.0327
13109TIP3   OH260741   3.651   6.588   0.278  0.1526 -0.5361  0.5356
13109TIP3    H160742   3.677   6.677   0.254  0.2961 -0.2296  1.8420
13109TIP3    H260743   3.733   6.541   0.290  0.0841 -1.1145 -1.0890
13110TIP3   OH260744   2.195   3.781   1.394 -0.1337  0.4096 -0.6943
13110TIP3    H160745   2.268   3.843   1.386 -0.3652  0.5777 -1.4872
13110TIP3    H260746   2.177   3.753   1.305 -0.0786 -0.7589 -0.3546
13111TIP3   OH260747   2.271   3.661  14.755  0.5321 -0.1931 -0.3333
13111TIP3    H160748   2.196   3.667  14.696  2.0299  1.8782 -2.1104
13111TIP3    H260749   2.329   3.596  14.714  1.4918  1.1162 -1.0833
13112TIP3   OH260750   3.966   1.344  14.351  0.1875  0.1534 -0.5544
13112TIP3    H160751   4.042   1.295  14.319 -0.6035  0.0487 -2.3231
13112TIP3    H260752   4.002   1.408  14.412  1.4556 -1.3258  0.2842
13113TIP3   OH260753   6.611   1.383   0.992 -0.0417  0.5213  0.3130
13113TIP3    H160754   6.673   1.312   1.011  0.3575  0.8759  0.3210
13113TIP3    H260755   6.651   1.461   1.030 -0.0137  0.9355 -0.5822
13114TIP3   OH260756   3.312   4.638   4.463  0.4875  0.3273  0.5680
13114TIP3    H160757   3.221   4.650   4.436  0.3523 -0.3391  0.7172
13114TIP3    H260758   3.306   4.607   4.553  0.7904 -1.3236  0.0468
13115TIP3   OH260759   3.912   2.407   3.307 -0.1964 -0.0182 -0.2218
13115TIP3    H160760   3.924   2.357   3.387  1.4816  2.4201  1.1098
13115TIP3    H260761   3.947   2.350   3.238  1.3179 -0.8459  1.1873
13116TIP3   OH260762   4.966   1.012  14.302 -0.5921 -0.1399 -0.3421
13116TIP3    H160763   5.033   1.048  14.360 -2.5342 -0.4954  2.1971
13116TIP3    H260764   4.944   1.085  14.244 -1.9678  1.7676  2.4613
13117TIP3   OH260765   5.946   2.487   4.972 -0.1978  0.0050  0.3318
13117TIP3    H160766   5.997   2.474   5.051 -0.1735 -1.0907  0.1459
13117TIP3    H260767   5.999   2.449   4.902 -0.8893 -0.3987  0.0160
13118TIP3   OH260768   4.980   3.525  14.294  0.5414  0.1016 -0.4128
13118TIP3    H160769   5.043   3.528  14.222  0.6329 -0.6355 -0.3676
13118TIP3    H260770   5.034   3.531  14.373  0.8393 -3.4564 -0.2793
13119TIP3   OH260771   5.462   0.618  11.855  0.3619  0.5632 -0.1060
13119TIP3    H160772   5.387   0.639  11.799 -0.0859  0.4922  0.4618
13119TIP3    H260773   5.464   0.690  11.918  0.7039  0.5003 -0.0468
13120TIP3   OH260774   5.023   6.051   1.856  0.1660  0.2459 -0.4389
13120TIP3    H160775   5.056   6.131   1.816 -0.4573  0.0318 -1.3950
13120TIP3    H260776   4.945   6.029   1.805 -0.2896 -0.3652  0.5125
13121TIP3   OH260777   4.388   5.645   2.318 -0.0401 -0.5028  0.0456
13121TIP3    H160778   4.457   5.674   2.377 -1.6856  1.0311  1.2867
13121TIP3    H260779   4.357   5.563   2.356 -0.6132  0.1174  0.9514
13122TIP3   OH260780   0.572   4.155  10.702 -0.1700 -0.0466 -0.0320
13122TIP3    H160781   0.507   4.149  10.772 -1.5225  0.2523 -1.2438
13122TIP3    H260782   0.586   4.064  10.675 -3.0722  0.1042 -2.4107
13123TIP3   OH260783   5.687   0.338   0.166 -0.1697  0.9417 -0.0348
13123TIP3    H160784   5.657   0.428   0.180 -1.1045  0.6893 -0.3608
13123TIP3    H260785   5.628   0.304   0.098  1.5860  0.7959 -1.5081
13124TIP3   OH260786   3.041   3.149   6.846 -0.0292  0.4264 -0.3759
13124TIP3    H160787   3.122   3.144   6.896 -1.0140 -0.7364  1.1714
13124TIP3    H260788   3.068   3.149   6.755  1.7196  0.4054  0.1336
13125TIP3   OH260789   5.996   0.445   3.016  0.1382 -0.7629 -0.5444
13125TIP3    H160790   6.083   0.405   3.023  0.4603 -0.8178 -3.9649
13125TIP3    H260791   5.939   0.373   2.987 -0.2287  0.1015 -2.0569
13126TIP3   OH260792   0.303   2.924  15.671 -0.6313  0.1849 -0.4031
13126TIP3    H160793   0.268   3.007  15.637 -0.5785 -0.1919 -1.4035
13126TIP3    H260794   0.280   2.860  15.604  0.6069 -0.3432 -0.3308
13127TIP3   OH260795   2.332   0.920   3.676  0.3088  0.0471  0.4882
13127TIP3    H160796   2.323   1.010   3.708 -1.6382  0.4339 -1.0494
13127TIP3    H260797   2.426   0.911   3.657  0.7949  1.1773  2.2510
13128TIP3   OH260798   4.744   1.745   0.340 -0.1856  0.0452 -0.0969
13128TIP3    H160799   4.740   1.650   0.355 -0.7268 -0.2272 -1.8737
13128TIP3    H260800   4.816   1.756   0.277  0.5946  0.9395  0.9298
13129TIP3   OH260801   1.146   1.195  14.539 -0.4235 -0.0840  0.1485
13129TIP3    H160802   1.207   1.268  14.537 -0.6002  0.1153  1.5381
13129TIP3    H260803   1.079   1.217  14.474 -1.6860  2.0782  2.1005
13130TIP3   OH260804   3.375   6.371  12.913 -0.4051 -0.1858  0.4984
13130TIP3    H160805   3.451   6.421  12.941 -1.1661  1.2417  0.0674
13130TIP3    H260806   3.302   6.409  12.963 -0.3752 -3.7289  3.4633
13131TIP3   OH260807   4.936   2.390  12.737  0.0007 -0.1835 -0.4157
13131TIP3    H160808   4.937   2.323  12.668  1.1174 -0.1826 -0.4152
13131TIP3    H260809   4.963   2.470  12.693  0.7588 -0.1906  0.0193
13132TIP3   OH260810   0.419   2.849   3.361  0.4709  0.2698  0.4426
13132TIP3    H160811   0.383   2.928   3.402  0.4484  0.2700  0.4224
13132TIP3    H260812   0.384   2.777   3.413  0.0296  0.2436  0.1120
13133TIP3   OH260813   0.315   6.377   6.250 -0.1135 -0.1231 -0.0838
13133TIP3    H160814   0.240   6.432   6.275 -0.3183 -0.0051 -0.9470
13133TIP3    H260815   0.386   6.407   6.307 -0.7693 -0.3802  0.8911
13134TIP3   OH260816   2.803   0.759   1.134  0.0295 -0.2230  0.3520
13134TIP3    H160817   2.829   0.718   1.217  0.6156 -0.7489 -0.0874
13134TIP3    H260818   2.857   0.715   1.068 -2.6108 -2.0414 -0.7027
13135TIP3   OH260819   5.716   3.306   4.448  0.0875 -0.1721 -0.2524
13135TIP3    H160820   5.692   3.313   4.356  0.2436  1.4296 -0.1876
13135TIP3    H260821   5.670   3.228   4.479  0.4232 -0.9990 -1.7966
13136TIP3   OH260822   3.593   3.854   4.632  0.2091 -0.0587 -0.4484
13136TIP3    H160823   3.648   3.780   4.606 -0.4824 -1.0215  0.7391
13136TIP3    H260824   3.552   3.825   4.714 -0.2875  1.5357 -0.1229
13137TIP3   OH260825   5.240   2.637   0.683 -0.2372 -0.0377  0.3309
13137TIP3    H160826   5.179   2.632   0.609  0.6452  3.7590 -0.7348
13137TIP3    H260827   5.308   2.573   0.663 -1.9978 -1.7887 -0.2105
13138TIP3   OH260828   2.160   2.046   0.136 -0.3769 -0.2409 -0.2814
13138TIP3    H160829   2.110   2.110   0.085  1.3928  1.0786 -0.3973
13138TIP3    H260830   2.183   1.978   0.073 -0.9928 -0.2507 -0.4991
13139TIP3   OH260831   1.709   3.450   2.261 -0.1008  0.0070 -0.1295
13139TIP3    H160832   1.691   3.494   2.177  0.1249 -1.2155 -0.8373
13139TIP3    H260833   1.781   3.500   2.299 -0.9338  1.2503 -0.1298
13140TIP3   OH260834   2.888   0.794  14.670  0.6583 -0.9922  0.1686
13140TIP3    H160835   2.855   0.874  14.628  1.9591 -0.6438 -0.2127
13140TIP3    H260836   2.971   0.820  14.710  1.2010 -2.2036 -0.1433
13141TIP3   OH260837   6.066   3.101  10.692 -0.3146 -0.4103 -0.1965
13141TIP3    H160838   6.104   3.188  10.703 -2.1241  0.2745  0.9275
13141TIP3    H260839   6.096   3.072  10.606  2.0664  0.4077  0.3194
13142TIP3   OH260840   0.403   2.726  10.903 -0.1048 -0.0097 -0.1582
13142TIP3    H160841   0.482   2.775  10.926 -0.3655 -0.1652  1.0925
13142TIP3    H260842   0.357   2.782  10.841 -0.8070  1.7051  1.8582
13143TIP3   OH260843   1.147   6.640   6.199  0.0052  0.1087  0.1950
13143TIP3    H160844   1.104   6.713   6.155  1.9968  0.4807 -1.1861
13143TIP3    H260845   1.095   6.625   6.277 -1.7768  1.4888 -0.6977
13144TIP3   OH260846   0.084   2.501  14.820  0.4450 -0.2585  0.2661
13144TIP3    H160847   0.067   2.409  14.800  0.4952  0.4272 -3.1239
13144TIP3    H260848   0.025   2.549  14.762  1.4806  1.8791  0.9544
13145TIP3   OH260849   6.056   6.361  16.190 -0.2202  0.4881 -0.0825
13145TIP3    H160850   6.075   6.290  16.251 -0.9277 -0.8600 -1.4136
13145TIP3    H260851   5.969   6.392  16.216  0.4537  1.4772  1.0573
13146TIP3   OH260852   4.747   2.955   1.515  0.1466  0.0813 -0.1470
13146TIP3    H160853   4.750   2.911   1.600  0.5893  1.7239  0.7047
13146TIP3    H260854   4.744   2.884   1.451  0.9503 -1.1748  1.1953
13147TIP3   OH260855   4.733   3.470  16.838  0.1758  0.1510  0.2135
13147TIP3    H160856   4.713   3.541  16.776 -0.0525 -1.4932 -1.6581
13147TIP3    H260857   4.658   3.411  16.832  0.5360 -0.4466  1.4617
13148TIP3   OH260858   5.491   0.946   3.535 -0.2097  0.3087  0.3594
13148TIP3    H160859   5.403   0.984   3.534 -0.1852  0.5110  2.4508
13148TIP3    H260860   5.476   0.853   3.552  0.0119  0.5634  2.0525
13149TIP3   OH260861   1.589   4.046  16.023 -0.3241 -0.2097  0.0588
13149TIP3    H160862   1.525   4.103  16.065 -1.2914 -1.1071 -0.1945
13149TIP3    H260863   1.653   4.027  16.092 -1.5058 -1.0766  0.9304
13150TIP3   OH260864   5.615   3.861  13.249 -0.1347  0.2390 -0.5181
13150TIP3    H160865   5.525   3.838  13.225  0.5060 -2.5341 -0.3934
13150TIP3    H260866   5.635   3.806  13.324  1.6022  0.9815 -0.4171
13151TIP3   OH260867   4.488   0.953   2.552  0.1991 -0.5237 -1.1627
13151TIP3    H160868   4.514   0.862   2.540  2.4897  0.1122 -1.1523
13151TIP3    H260869   4.500   0.969   2.646 -0.1712 -0.2012 -1.1706
13152TIP3   OH260870   5.111   4.236   4.322 -0.8453 -0.2512 -0.5811
13152TIP3    H160871   5.047   4.291   4.277 -1.6344 -2.5295 -2.3801
13152TIP3    H260872   5.195   4.282   4.310 -1.6069  0.9964 -1.2435
13153TIP3   OH260873   0.643   1.027   0.251 -0.4846  0.0195  0.2763
13153TIP3    H160874   0.692   1.109   0.239  0.2063 -0.6021 -1.1833
13153TIP3    H260875   0.650   1.009   0.345  0.9547  0.6578  0.3111
13154TIP3   OH260876   4.549   2.746  12.836  0.1111  0.1655  0.2164
13154TIP3    H160877   4.604   2.668  12.824  2.2932  1.8751 -1.1220
13154TIP3    H260878   4.533   2.749  12.931  0.9798 -1.2350  0.4189
13155TIP3   OH260879   4.622   5.619   2.530  0.2631  0.1143  0.1583
13155TIP3    H160880   4.650   5.621   2.438  0.2397  0.1371  0.1517
13155TIP3    H260881   4.592   5.708   2.548 -2.3994 -0.5779 -0.6179
13156TIP3   OH260882   6.723   3.171   5.316 -0.1514 -0.7104 -0.5436
13156TIP3    H160883   6.745   3.081   5.340  0.8151 -0.1666  0.7214
13156TIP3    H260884   6.783   3.224   5.368 -0.2709  0.6454 -1.7738
13157TIP3   OH260885   2.594   5.852   0.734 -0.0599  0.3686 -0.6463
13157TIP3    H160886   2.613   5.825   0.644  3.2521  1.2228 -0.2759
13157TIP3    H260887   2.550   5.936   0.726  0.2312  0.4444 -1.4551
13158TIP3   OH260888   5.506   1.310  14.428 -0.0601 -0.4022  0.4753
13158TIP3    H160889   5.456   1.264  14.496 -2.0979  1.1040  0.0522
13158TIP3    H260890   5.445   1.375  14.394  1.4190 -0.1737 -1.8260
13159TIP3   OH260891   5.519   3.636   3.792 -0.1428 -1.0238  0.0766
13159TIP3    H160892   5.492   3.646   3.701 -0.6692  1.1154  0.4282
13159TIP3    H260893   5.463   3.566   3.826 -1.4394 -0.3833 -0.6848
13160TIP3   OH260894   2.589   2.402   1.057  0.0881 -0.6448 -0.3949
13160TIP3    H160895   2.611   2.367   1.144 -2.8167 -1.3111  0.1233
13160TIP3    H260896   2.541   2.483   1.074  1.3198  0.3366 -1.4615
13161TIP3   OH260897   5.341   2.675  15.005  0.5330  0.8096 -0.3916
13161TIP3    H160898   5.399   2.727  14.950  0.8180  0.2525 -0.6297
13161TIP3    H260899   5.256   2.678  14.961  0.8218  0.1548 -1.0075
13162TIP3   OH260900   1.682   1.265  12.566  0.5415 -0.7279  0.3524
13162TIP3    H160901   1.746   1.252  12.636  0.0146  0.6023  1.0917
13162TIP3    H260902   1.725   1.325  12.505  0.3140 -0.4653  0.4482
13163TIP3   OH260903   5.845   4.290   1.606  0.0118 -0.0601 -0.1524
13163TIP3    H160904   5.765   4.342   1.600  0.0252 -0.0527 -0.2788
13163TIP3    H260905   5.913   4.347   1.568  0.2141  0.2220  0.6186
13164TIP3   OH260906   1.365   1.679   5.895 -0.3251 -0.2924  0.5676
13164TIP3    H160907   1.385   1.589   5.868 -0.1775 -0.3600  0.8925
13164TIP3    H260908   1.394   1.683   5.986 -0.2547  0.1105  0.5279
13165TIP3   OH260909   6.429   0.107   1.559  0.4847  0.1266  0.2983
13165TIP3    H160910   6.411   0.124   1.651 -1.2094  1.0611 -0.1947
13165TIP3    H260911   6.430   0.011   1.553 -0.3532  0.0596  1.1029
13166TIP3   OH260912   0.796   6.159  17.104 -0.0287 -0.3475  0.3617
13166TIP3    H160913   0.798   6.227  17.036  1.5280 -0.2744  0.4736
13166TIP3    H260914   0.726   6.100  17.077  1.2775 -0.9062 -1.8826
13167TIP3   OH260915   0.494   5.617   2.689  0.3477 -0.0520  0.1308
13167TIP3    H160916   0.466   5.526   2.698  1.1167 -0.5004 -1.7078
13167TIP3    H260917   0.425   5.659   2.639  1.3247 -0.3362 -1.4833
13168TIP3   OH260918   4.269   1.592  13.663  0.4419 -0.5057 -0.1023
13168TIP3    H160919   4.362   1.573  13.673  0.7957  0.2306 -1.7114
13168TIP3    H260920   4.258   1.607  13.569 -1.2844 -0.5012  0.0817
13169TIP3   OH260921   1.649   4.531   1.597  0.5909  0.6297  0.2375
13169TIP3    H160922   1.650   4.546   1.691 -0.6698  0.9166  0.2196
13169TIP3    H260923   1.556   4.533   1.573  0.8373 -0.2997 -0.8765
13170TIP3   OH260924   0.937   3.920   4.059 -0.2030 -0.0397  0.3757
13170TIP3    H160925   0.983   3.905   3.976 -1.2881  0.7554 -0.3825
13170TIP3    H260926   0.888   3.840   4.074 -1.6204  0.5963 -0.8124
13171TIP3   OH260927   3.143   4.494  14.545  0.2876  0.4365 -0.3919
13171TIP3    H160928   3.150   4.402  14.521 -1.0997  0.8260 -2.4138
13171TIP3    H260929   3.057   4.501  14.588 -0.1733  1.0221 -1.4044
13172TIP3   OH260930   4.944   2.658  17.196 -0.3201  0.0165 -0.0128
13172TIP3    H160931   4.992   2.610  17.129 -1.2762 -1.6036  0.4227
13172TIP3    H260932   4.962   2.610  17.277  0.3613  1.6208  0.8039
13173TIP3   OH260933   5.392   6.273  14.066 -0.5645  0.1976  0.2950
13173TIP3    H160934   5.361   6.290  13.977  0.5600 -0.8857 -0.3128
13173TIP3    H260935   5.382   6.179  14.078 -1.4701  0.4293  1.6325
13174TIP3   OH260936   4.734   3.645   3.204 -0.0028  0.0221  0.0339
13174TIP3    H160937   4.811   3.596   3.234 -0.3189  0.5877  1.8441
13174TIP3    H260938   4.757   3.674   3.116  2.3047  1.0519  0.9238
13175TIP3   OH260939   1.001   1.296   2.491  0.2069  0.2495  0.5688
13175TIP3    H160940   0.987   1.201   2.491  2.4813 -0.1223 -1.5431
13175TIP3    H260941   1.047   1.313   2.573  0.4889 -0.5923  0.5962
13176TIP3   OH260942   6.509   4.704  15.833  0.5272 -0.2513  0.1127
13176TIP3    H160943   6.591   4.710  15.783 -0.7663  0.8423 -1.9507
13176TIP3    H260944   6.507   4.614  15.866  2.2796 -0.4496 -0.2772
13177TIP3   OH260945   2.390   1.626   0.910 -0.0403  0.1599  0.6200
13177TIP3    H160946   2.385   1.533   0.935 -0.1196 -0.0087 -0.0172
13177TIP3    H260947   2.322   1.637   0.843  2.3582 -0.1924 -1.9966
13178TIP3   OH260948   0.471   2.577  17.153 -0.4410  0.1569 -0.2706
13178TIP3    H160949   0.378   2.592  17.139 -0.5357 -1.2861 -1.3681
13178TIP3    H260950   0.509   2.581  17.065  0.9831  3.5112  0.4552
13179TIP3   OH260951   0.895   5.935   5.382 -0.5787 -0.6305 -0.4573
13179TIP3    H160952   0.942   6.002   5.430  1.6160 -1.9072 -0.7623
13179TIP3    H260953   0.840   5.984   5.320 -0.5863  0.9074  0.7323
13180TIP3   OH260954   0.565   4.298   3.918  0.1926  0.0044  0.6205
13180TIP3    H160955   0.615   4.220   3.893 -0.1934  0.2214 -0.8543
13180TIP3    H260956   0.631   4.368   3.924  0.3314 -0.1159  0.5141
13181TIP3   OH260957   3.106   2.023   0.702 -0.0570  0.6610  0.4414
13181TIP3    H160958   3.029   1.994   0.653 -0.2049  2.3309 -0.3549
13181TIP3    H260959   3.175   2.031   0.637 -0.0424  2.1187  0.6179
13182TIP3   OH260960   4.331   0.116  13.851 -0.1540 -0.2120  0.0497
13182TIP3    H160961   4.359   0.147  13.765  1.5419 -2.0660 -0.1006
13182TIP3    H260962   4.295   0.029  13.835  0.1874 -0.5731  1.2104
13183TIP3   OH260963   1.794   1.998   1.749  0.0732 -0.3566 -0.0780
13183TIP3    H160964   1.763   1.916   1.711  1.3765 -0.1142 -1.7112
13183TIP3    H260965   1.824   1.974   1.836 -0.7374 -1.3716 -0.0693
13184TIP3   OH260966   6.286   0.625  12.059 -0.0429  0.0703 -0.3211
13184TIP3    H160967   6.194   0.625  12.033  0.1535  0.4181 -1.0316
13184TIP3    H260968   6.334   0.624  11.976  0.5832  2.3546 -0.0263
13185TIP3   OH260969   2.836   6.602  13.752 -0.5664 -0.0168 -0.1513
13185TIP3    H160970   2.923   6.628  13.781 -0.5893  0.0278 -0.1226
13185TIP3    H260971   2.851   6.522  13.702 -0.5461 -0.1859  0.1241
13186TIP3   OH260972   3.815   0.942   4.418  0.5300 -0.4260 -0.1739
13186TIP3    H160973   3.788   1.013   4.358  0.2041 -0.6361 -0.2782
13186TIP3    H260974   3.816   0.983   4.504  0.1861 -0.3345 -0.2129
13187TIP3   OH260975   0.061   1.466   0.350 -0.4922  0.3304 -0.4933
13187TIP3    H160976  -0.002   1.456   0.279  1.3305 -2.5916 -1.7913
13187TIP3    H260977   0.091   1.557   0.344 -2.2428  0.8450 -1.8096
13188TIP3   OH260978   5.924   4.015   4.504  0.9144  0.4693 -0.1988
13188TIP3    H160979   5.874   4.032   4.424  2.3406  0.3598 -1.1476
13188TIP3    H260980   5.879   3.942   4.546 -0.5163  1.2809 -0.3086
13189TIP3   OH260981   3.794   1.118  15.419  0.0099 -0.1827 -0.5539
13189TIP3    H160982   3.822   1.112  15.511  1.3979 -2.4325 -1.0841
13189TIP3    H260983   3.740   1.039  15.406  0.9338 -0.5857 -2.0307
13190TIP3   OH260984   3.755   2.672  12.234  0.0398 -0.3176  0.5057
13190TIP3    H160985   3.697   2.619  12.179 -0.7383 -0.1665  1.1649
13190TIP3    H260986   3.714   2.758  12.238  0.2462 -0.2374  1.0616
13191TIP3   OH260987   3.590   6.763   0.758 -0.2456 -0.1619  0.5239
13191TIP3    H160988   3.657   6.803   0.813  0.2416 -0.0463 -0.1440
13191TIP3    H260989   3.610   6.669   0.760 -0.6218 -0.2312  1.0680
13192TIP3   OH260990   6.499   6.265  11.959 -0.6364 -0.2351 -0.8212
13192TIP3    H160991   6.411   6.251  11.992 -0.9227  1.2441 -0.9102
13192TIP3    H260992   6.501   6.218  11.875 -1.2688 -0.4505 -0.7180
13193TIP3   OH260993   5.467   5.235   2.962  0.0943  0.4723  0.6009
13193TIP3    H160994   5.446   5.293   2.889  0.9079  1.2052  0.9388
13193TIP3    H260995   5.484   5.294   3.036 -0.0364 -0.2361  1.2033
13194TIP3   OH260996   0.391   0.884  15.513 -0.4295 -0.4001 -0.2226
13194TIP3    H160997   0.363   0.879  15.605 -1.4419 -1.1831 -0.5533
13194TIP3    H260998   0.465   0.944  15.514 -0.1168 -0.7715  1.1870
13195TIP3   OH260999   3.287   3.645   5.835  0.2122  0.2984  0.4457
13195TIP3    H161000   3.299   3.564   5.785  0.4615  0.7227 -0.1851
13195TIP3    H261001   3.289   3.616   5.927  0.8036 -0.3484  0.2412
13196TIP3   OH261002   0.699   2.263  15.455  0.0535 -0.1342 -0.0982
13196TIP3    H161003   0.691   2.358  15.445  2.5428 -0.1187 -2.2166
13196TIP3    H261004   0.687   2.248  15.549 -1.4333  2.1434  0.1012
13197TIP3   OH261005   0.941   4.052   4.901  0.1294  0.1997  0.3901
13197TIP3    H161006   1.014   4.067   4.840  1.3732 -0.6854  1.6129
13197TIP3    H261007   0.963   4.104   4.978 -1.3155  1.1187  0.2067
13198TIP3   OH261008   1.655   2.876   3.724 -0.1082 -0.1945  0.5243
13198TIP3    H161009   1.724   2.814   3.699  1.0716  0.7179  1.4545
13198TIP3    H261010   1.698   2.936   3.785 -0.8538  2.4005 -1.4146
13199TIP3   OH261011   3.149   5.831   4.731 -0.1572 -0.4270 -0.0551
13199TIP3    H161012   3.127   5.890   4.659 -1.4999  0.5850  1.1629
13199TIP3    H261013   3.141   5.884   4.810  0.9126 -1.6262  0.8862
13200TIP3   OH261014   6.633   2.271  15.556  0.4807 -0.2508  0.2052
13200TIP3    H161015   6.681   2.226  15.626  0.4474  1.6646  1.5009
13200TIP3    H261016   6.615   2.358  15.592 -2.7114 -0.4356 -0.7996
13201TIP3   OH261017   4.148   6.280  16.691  0.5710 -0.4579 -0.3789
13201TIP3    H161018   4.061   6.254  16.719  1.0681  0.9149  2.6826
13201TIP3    H261019   4.140   6.373  16.670  0.5022 -1.1753 -3.7896
13202TIP3   OH261020   5.891   2.831  13.633 -0.3477 -0.0364  0.7761
13202TIP3    H161021   5.928   2.878  13.707  1.2427  1.7155 -1.1010
13202TIP3    H261022   5.966   2.806  13.580 -1.5447 -0.3760 -0.7866
13203TIP3   OH261023   4.487   6.208   2.374  0.2879 -0.5973 -0.3898
13203TIP3    H161024   4.420   6.140   2.380 -1.3314  0.9756 -0.3112
13203TIP3    H261025   4.556   6.169   2.319 -0.6275 -2.2531 -0.4135
13204TIP3   OH261026   0.995   2.527   6.594  0.1532  0.4563  0.5687
13204TIP3    H161027   0.947   2.579   6.658 -0.6886 -0.1123  0.4215
13204TIP3    H261028   0.957   2.439   6.601  0.1900  0.3391 -0.5575
13205TIP3   OH261029   1.069   4.886  14.171  0.2714  0.3650  0.5142
13205TIP3    H161030   1.012   4.963  14.178  1.7596  1.4874  0.5438
13205TIP3    H261031   1.037   4.839  14.094 -1.6330  0.1773  1.4034
13206TIP3   OH261032   5.972   2.082   0.714 -0.0485  0.7128 -0.5974
13206TIP3    H161033   5.931   2.144   0.654  1.2823  0.6736 -1.5728
13206TIP3    H261034   5.937   1.996   0.688 -0.6977  0.8637 -0.2519
13207TIP3   OH261035   3.366   6.674  13.030 -0.6120  0.4705 -0.0724
13207TIP3    H161036   3.447   6.646  13.071 -1.6742 -0.9645  1.0958
13207TIP3    H261037   3.345   6.757  13.073 -0.1826  0.4462  0.1903
13208TIP3   OH261038   5.449   5.870  10.646  0.0775 -0.2408 -0.3663
13208TIP3    H161039   5.384   5.803  10.625  0.1762 -1.1223  1.9830
13208TIP3    H261040   5.444   5.880  10.741  2.0674  1.0382 -0.3489
13209TIP3   OH261041   5.029   5.236  11.562 -0.3009 -0.1496  0.0465
13209TIP3    H161042   4.974   5.236  11.484  1.5295 -0.0359 -1.2845
13209TIP3    H261043   5.050   5.143  11.576  0.3925 -0.0588 -0.3562
13210TIP3   OH261044   1.862   6.360  11.344  0.3141 -0.1709  0.2623
13210TIP3    H161045   1.839   6.453  11.346  0.4179 -0.0810 -1.6092
13210TIP3    H261046   1.909   6.345  11.426  0.3759  1.4590  0.5384
13211TIP3   OH261047   3.404   2.340  12.497  0.5624  0.1236  0.2010
13211TIP3    H161048   3.469   2.318  12.430  0.5004  0.3040  0.0827
13211TIP3    H261049   3.384   2.432  12.482 -1.9160 -0.6887 -1.6355
13212TIP3   OH261050   1.023   5.130   1.187  0.0266 -0.4840 -0.1704
13212TIP3    H161051   1.069   5.124   1.271 -0.3641 -0.3518  0.0579
13212TIP3    H261052   1.047   5.215   1.152 -0.6930 -0.0606  0.3415
13213TIP3   OH261053   3.732   5.571  15.189  0.3739 -0.3873  0.0024
13213TIP3    H161054   3.688   5.533  15.265 -1.6793  0.0138 -0.9461
13213TIP3    H261055   3.738   5.498  15.126  0.6125 -0.3192 -0.0540
13214TIP3   OH261056   0.223   0.181   5.431  0.2034 -0.2951 -0.1798
13214TIP3    H161057   0.270   0.172   5.514 -0.5547  1.3051  0.4310
13214TIP3    H261058   0.143   0.229   5.454 -0.6303 -0.9807 -1.6120
13215TIP3   OH261059   4.703   2.713   1.182  0.3804 -0.6090  0.2289
13215TIP3    H161060   4.665   2.719   1.270 -1.1595  2.4822 -0.5654
13215TIP3    H261061   4.675   2.627   1.150 -4.1403  0.5708  0.5975
13216TIP3   OH261062   2.625   2.025  16.599 -0.0870  0.1726 -0.3687
13216TIP3    H161063   2.604   2.037  16.691 -0.8664 -0.3838 -0.4770
13216TIP3    H261064   2.701   2.082  16.585 -0.6438  1.1007  0.3446
13217TIP3   OH261065   5.973   5.935  15.855 -0.4191 -0.3459 -0.0939
13217TIP3    H161066   6.040   5.951  15.789  0.4846  0.2158  0.9483
13217TIP3    H261067   5.934   6.021  15.870 -0.8503 -0.5323 -0.1465
13218TIP3   OH261068   4.645   1.658  11.140 -0.1083 -0.0426  0.1056
13218TIP3    H161069   4.711   1.688  11.077 -1.4329  2.6281 -0.0806
13218TIP3    H261070   4.571   1.631  11.086 -0.4405  0.1729  0.4539
13219TIP3   OH261071   6.351   0.558  14.125 -0.6343 -0.1697  0.2086
13219TIP3    H161072   6.275   0.608  14.096  0.5816  1.6229  0.0424
13219TIP3    H261073   6.393   0.527  14.044 -0.4352 -0.0091  0.2487
13220TIP3   OH261074   5.125   4.800  16.736 -0.0879 -0.0372 -0.6160
13220TIP3    H161075   5.130   4.724  16.793 -1.2019  0.0706 -0.3723
13220TIP3    H261076   5.167   4.870  16.786 -0.8110 -0.0135 -0.0363
13221TIP3   OH261077   5.959   1.222  14.474 -0.4266 -0.7191  0.1224
13221TIP3    H161078   6.003   1.161  14.415 -0.6003  1.4387 -2.3025
13221TIP3    H261079   6.028   1.284  14.500 -0.9402 -0.1699  0.1763
13222TIP3   OH261080   1.649   1.009  15.123  0.4001 -0.1559 -0.8043
13222TIP3    H161081   1.641   1.032  15.215 -2.9171 -1.7222 -0.6140
13222TIP3    H261082   1.696   0.925  15.122  0.9478  0.1492 -0.5860
13223TIP3   OH261083   6.171   0.875  16.878 -0.0991  0.4765  0.0718
13223TIP3    H161084   6.161   0.883  16.783 -1.6135  0.1997  0.2026
13223TIP3    H261085   6.223   0.952  16.903  2.1336 -0.5356 -1.2355
13224TIP3   OH261086   4.074   6.551  14.998  0.0542  0.7200  0.1226
13224TIP3    H161087   4.050   6.495  15.072  0.3282  2.2343  1.3902
13224TIP3    H261088   4.022   6.631  15.011  0.6117  1.2664 -0.9450
13225TIP3   OH261089   6.165   4.719   2.942 -0.3994  0.1312  0.1380
13225TIP3    H161090   6.120   4.755   2.865 -0.8834  1.2245  0.9205
13225TIP3    H261091   6.103   4.657   2.979  0.1406 -0.9791 -0.7869
13226TIP3   OH261092   2.951   6.054   4.254  0.0695  0.4696  0.2372
13226TIP3    H161093   3.040   6.089   4.262 -0.1002  0.9794 -0.0397
13226TIP3    H261094   2.959   5.977   4.198  0.1340  1.3032 -0.9128
13227TIP3   OH261095   4.947   6.556   0.832 -0.3936  0.1367 -0.5830
13227TIP3    H161096   4.929   6.636   0.783 -1.2225  0.6441  0.5147
13227TIP3    H261097   4.872   6.499   0.814 -1.3718  0.8369  1.0963
13228TIP3   OH261098   2.752   0.046   0.805  0.0389 -0.2717  0.6599
13228TIP3    H161099   2.814  -0.020   0.773  0.9390 -0.2176  2.2441
13228TIP3    H261100   2.681  -0.004   0.844  0.5141 -0.3155  1.4765
13229TIP3   OH261101   2.206   3.574  13.263  0.0978 -1.0777 -0.4801
13229TIP3    H161102   2.173   3.660  13.289  0.2316 -1.2624  0.3297
13229TIP3    H261103   2.243   3.588  13.176  3.2726  0.4893  1.0453
13230TIP3   OH261104   0.994   4.217   2.889  0.6917 -0.7721 -0.3722
13230TIP3    H161105   1.064   4.207   2.824  1.0567 -0.8744  0.0330
13230TIP3    H261106   0.996   4.310   2.912  1.2908 -0.9444  0.2965
13231TIP3   OH261107   6.222   4.776  16.315 -0.0605 -0.2399 -0.5918
13231TIP3    H161108   6.311   4.798  16.342 -0.2190 -1.3435  0.9151
13231TIP3    H261109   6.190   4.718  16.384 -1.9837  0.2214 -1.0638
13232TIP3   OH261110   1.394   1.237   3.805  0.7031  0.2235 -0.1804
13232TIP3    H161111   1.358   1.314   3.849  1.6360  0.5287  0.0555
13232TIP3    H261112   1.398   1.263   3.713 -0.4768 -0.1209 -0.3397
13233TIP3   OH261113   5.354   4.056  11.375  0.2533 -0.3572  0.1484
13233TIP3    H161114   5.274   4.019  11.338  0.5876 -1.1084  0.1675
13233TIP3    H261115   5.424   4.022  11.319  0.5423  0.5593 -0.0687
13234TIP3   OH261116   4.919   0.131  13.375  0.5002 -0.2562  0.3468
13234TIP3    H161117   5.011   0.158  13.378 -0.2200  2.4536 -0.5067
13234TIP3    H261118   4.870   0.209  13.400 -1.7501 -0.5365 -2.8049
13235TIP3   OH261119   2.107   4.588   3.669  0.0570 -0.0181  0.1086
13235TIP3    H161120   2.078   4.573   3.579 -0.7708  4.1250 -0.4378
13235TIP3    H261121   2.026   4.601   3.719  0.5547 -1.0507  1.2141
13236TIP3   OH261122   4.537   1.506   4.854 -0.7471 -0.0520  0.0344
13236TIP3    H161123   4.517   1.446   4.926 -0.0862  1.0616  1.1548
13236TIP3    H261124   4.462   1.500   4.796 -1.0091 -1.4290  0.4976
13237TIP3   OH261125   3.959   0.451   1.804 -0.1562 -0.3421  0.1628
13237TIP3    H161126   4.007   0.382   1.758  0.4566 -1.0467  1.8075
13237TIP3    H261127   4.024   0.491   1.862 -1.1635 -0.2003  1.2034
13238TIP3   OH261128   0.472   4.458  14.181 -0.0102  0.0647 -0.1577
13238TIP3    H161129   0.497   4.372  14.147 -1.0092 -0.0825 -0.5209
13238TIP3    H261130   0.522   4.520  14.128 -0.3536 -0.2363 -0.8438
13239TIP3   OH261131   2.586   3.271  12.270 -0.0834 -0.4415 -0.1180
13239TIP3    H161132   2.519   3.239  12.210 -0.3887  0.7875 -0.4434
13239TIP3    H261133   2.582   3.367  12.261  0.8575 -0.3182  0.7810
13240TIP3   OH261134   3.613   5.541  14.531 -1.2381 -0.0838 -0.6142
13240TIP3    H161135   3.574   5.493  14.605 -2.5129  0.4232 -0.9483
13240TIP3    H261136   3.543   5.598  14.500 -0.3164  0.6080 -1.4382
13241TIP3   OH261137   3.904   0.877   3.238  0.0067 -1.1391  0.0695
13241TIP3    H161138   3.936   0.958   3.200  1.0869 -1.0362  1.1867
13241TIP3    H261139   3.822   0.902   3.282  0.5331 -0.5800  0.7350
13242TIP3   OH261140   1.579   3.461  11.440  0.0177 -0.0941 -0.0821
13242TIP3    H161141   1.582   3.514  11.360  0.0255 -2.1068 -1.4481
13242TIP3    H261142   1.489   3.469  11.470  0.0676  0.8491 -0.1703
13243TIP3   OH261143   3.777   1.719  16.146 -0.0328 -0.2633  0.5697
13243TIP3    H161144   3.783   1.632  16.186 -0.4382  0.6318  2.6690
13243TIP3    H261145   3.867   1.744  16.128  0.4078  0.2950  3.2273
13244TIP3   OH261146   0.522   5.732  16.889 -0.6077  0.5199 -0.1837
13244TIP3    H161147   0.577   5.734  16.967  0.7502  1.4811 -1.1595
13244TIP3    H261148   0.472   5.651  16.898 -0.3752  0.5568  1.6165
13245TIP3   OH261149   0.456   0.585   4.557  0.5280  0.4614  0.1533
13245TIP3    H161150   0.423   0.664   4.601 -1.8826 -0.5979  0.3068
13245TIP3    H261151   0.471   0.522   4.628  2.0224  0.6012 -0.0149
13246TIP3   OH261152   2.067   6.265  13.245 -0.1639  0.0085 -0.1996
13246TIP3    H161153   2.122   6.195  13.280  0.3407  0.2546 -0.5010
13246TIP3    H261154   2.102   6.282  13.158  0.0505  1.0050  0.0762
13247TIP3   OH261155   4.326   6.270  13.374 -0.3023 -0.2137  0.2065
13247TIP3    H161156   4.303   6.205  13.309 -0.5483 -0.6200  0.6964
13247TIP3    H261157   4.342   6.350  13.324  0.9260 -0.8889 -0.4781
13248TIP3   OH261158   5.064   5.198  10.746  0.1671  0.2746  0.5262
13248TIP3    H161159   5.094   5.135  10.680 -0.1355  1.0868 -0.3919
13248TIP3    H261160   5.100   5.165  10.829 -1.9834 -2.4538  0.4485
13249TIP3   OH261161   6.348   3.798   2.419  0.4832  0.2551  0.2160
13249TIP3    H161162   6.373   3.710   2.448  0.2814 -0.4010 -1.5325
13249TIP3    H261163   6.334   3.788   2.325  1.5654  2.4198 -0.1907
13250TIP3   OH261164   4.866   6.281  11.460  0.0667 -0.3037  0.6696
13250TIP3    H161165   4.830   6.262  11.547 -0.9361 -0.2094  0.2905
13250TIP3    H261166   4.948   6.326  11.477 -1.4804  2.2900  1.6176
13251TIP3   OH261167   2.614   2.773  13.162  0.0483 -0.1953 -0.1435
13251TIP3    H161168   2.527   2.766  13.201 -0.1844  1.7375 -0.2729
13251TIP3    H261169   2.606   2.731  13.077 -0.3002 -1.5289  0.5335
13252TIP3   OH261170   5.971   5.992   3.753 -0.0439 -0.5034  1.1192
13252TIP3    H161171   6.006   6.034   3.832  0.4573 -0.4395  0.8624
13252TIP3    H261172   5.949   6.064   3.695 -1.0033 -0.5274  1.4476
13253TIP3   OH261173   5.166   4.340   1.619  0.5579  0.4173 -0.2250
13253TIP3    H161174   5.179   4.253   1.657  0.3138  0.6320  0.3484
13253TIP3    H261175   5.224   4.397   1.669  1.6017  0.3845 -1.3763
13254TIP3   OH261176   4.399   2.100   0.392  0.2625  0.0340 -1.0767
13254TIP3    H161177   4.440   2.186   0.393  0.2246  0.0391  1.2434
13254TIP3    H261178   4.471   2.038   0.407  0.0222 -0.2394 -1.0321
13255TIP3   OH261179   1.641   6.392  13.549  0.2290  0.2102 -0.0976
13255TIP3    H161180   1.670   6.368  13.637 -0.3119 -0.3607 -0.0720
13255TIP3    H261181   1.716   6.371  13.492  0.3499 -0.0076  0.1437
13256TIP3   OH261182   1.046   4.872   5.422  0.5151 -0.7780  0.3416
13256TIP3    H161183   1.109   4.804   5.400 -0.8305 -2.1360  0.6231
13256TIP3    H261184   1.080   4.912   5.502  0.9980 -1.4943  0.4936
13257TIP3   OH261185   1.005   0.194   5.186  0.1473 -0.1667 -0.3497
13257TIP3    H161186   0.990   0.225   5.097 -0.0902 -0.2296 -0.3297
13257TIP3    H261187   1.017   0.274   5.237 -0.0988 -0.1200 -0.3665
13258TIP3   OH261188   3.777   4.785   0.673 -0.0698  0.5989  0.3654
13258TIP3    H161189   3.796   4.694   0.696 -2.5816  0.2275  1.0149
13258TIP3    H261190   3.713   4.779   0.602  0.7389  1.8630 -0.4842
13259TIP3   OH261191   1.360   3.328   0.766 -0.1877  0.6070  0.4145
13259TIP3    H161192   1.315   3.273   0.701  0.5449 -0.8866  1.1459
13259TIP3    H261193   1.296   3.396   0.788 -1.4995 -0.5407  0.2450
13260TIP3   OH261194   3.027   5.951  16.716  0.1059 -0.2464  0.7817
13260TIP3    H161195   3.039   5.873  16.769 -0.7419 -0.8761  0.0690
13260TIP3    H261196   3.069   5.930  16.632 -2.5891 -1.0735 -0.4290
13261TIP3   OH261197   1.921   3.407  14.131  0.0711 -0.4671 -0.1511
13261TIP3    H161198   1.848   3.366  14.177 -0.7999  1.0578 -0.1153
13261TIP3    H261199   1.889   3.418  14.041  1.4140 -2.5869 -0.9127
13262TIP3   OH261200   2.709   0.145  10.970 -0.3524 -0.0344 -0.4016
13262TIP3    H161201   2.764   0.152  10.892 -0.9463 -0.2617 -0.8338
13262TIP3    H261202   2.681   0.235  10.987 -2.3965 -0.3325 -2.0023
13263TIP3   OH261203   4.882   5.886   3.904  0.0800 -0.3326  0.2787
13263TIP3    H161204   4.903   5.967   3.951 -0.3665  0.8196 -1.4387
13263TIP3    H261205   4.966   5.847   3.884  0.4369  1.3246 -1.5930
13264TIP3   OH261206   4.290   3.070  15.311  0.3989 -0.1157 -0.0503
13264TIP3    H161207   4.316   2.978  15.309 -1.6750 -0.7033 -0.6793
13264TIP3    H261208   4.243   3.079  15.394 -1.7819 -0.3040 -1.2444
13265TIP3   OH261209   5.697   0.188  11.320  0.1365 -0.3923 -0.1978
13265TIP3    H161210   5.719   0.122  11.255 -2.7938  0.5114 -2.1922
13265TIP3    H261211   5.693   0.140  11.403  2.6518 -1.7933 -0.8417
13266TIP3   OH261212   4.738   0.038   5.447  0.2379  0.1957 -0.1760
13266TIP3    H161213   4.793   0.052   5.525 -0.9281  0.8815  0.5351
13266TIP3    H261214   4.792   0.070   5.374  1.7075 -1.3268  0.2257
13267TIP3   OH261215   1.596   0.667  14.793 -0.2127  0.0174 -0.0585
13267TIP3    H161216   1.652   0.626  14.859  0.6710  0.0042 -0.8113
13267TIP3    H261217   1.554   0.739  14.840  1.0319  0.5157  0.3159
13268TIP3   OH261218   2.455   0.321   0.057  0.4713  0.3368 -0.0075
13268TIP3    H161219   2.372   0.320   0.009  1.3148  0.0895 -1.5174
13268TIP3    H261220   2.490   0.232   0.045  0.7975  0.3403  0.8940
13269TIP3   OH261221   4.027   6.016  14.964  0.1055  0.1778 -0.2144
13269TIP3    H161222   4.048   5.963  14.887 -0.5571 -1.9198  1.0062
13269TIP3    H261223   4.081   6.094  14.954  2.0947 -1.2896 -1.4171
13270TIP3   OH261224   3.932   5.543  11.892 -0.1766 -0.1058 -0.5602
13270TIP3    H161225   3.936   5.634  11.861  0.5567 -0.7552 -2.4159
13270TIP3    H261226   4.006   5.534  11.951 -0.8752  0.7958  0.4852
13271TIP3   OH261227   0.717   2.372  14.714 -0.1209  0.3756  0.2924
13271TIP3    H161228   0.748   2.302  14.657 -1.2445  0.5857 -0.5755
13271TIP3    H261229   0.649   2.331  14.767 -0.0055  0.5258  0.5594
13272TIP3   OH261230   4.593   0.138   6.313  0.1663  0.4020 -0.0278
13272TIP3    H161231   4.616   0.144   6.406  1.2030 -0.1536 -0.2513
13272TIP3    H261232   4.530   0.066   6.309  1.7193 -0.9551 -0.0663
13273TIP3   OH261233   1.761   0.772   2.677  0.5570 -0.6644  0.1492
13273TIP3    H161234   1.851   0.760   2.645  0.8129  1.4360 -0.0431
13273TIP3    H261235   1.771   0.782   2.772  0.7848  1.4003 -0.0546
13274TIP3   OH261236   0.844   5.565   0.895 -0.0008 -0.5764  0.3261
13274TIP3    H161237   0.799   5.608   0.967  1.7038  1.8007  0.0288
13274TIP3    H261238   0.884   5.488   0.934 -0.4354 -0.1827  1.5726
13275TIP3   OH261239   1.444   3.915  14.892  0.2828 -0.5816 -0.0593
13275TIP3    H161240   1.384   3.986  14.912  1.2471 -0.0390  0.9479
13275TIP3    H261241   1.529   3.945  14.924  0.4004 -2.8436  1.9289
13276TIP3   OH261242   3.170   1.576  11.548 -0.2607  0.1620  0.5816
13276TIP3    H161243   3.163   1.602  11.639  0.6863  0.8400  0.4636
13276TIP3    H261244   3.244   1.626  11.513 -1.1749  0.5913 -0.7970
13277TIP3   OH261245   0.757   5.988  10.908 -0.0554  0.4577  0.3035
13277TIP3    H161246   0.845   5.951  10.910  0.1739  0.8469 -1.3724
13277TIP3    H261247   0.699   5.912  10.907  0.3252  0.1707 -0.3916
13278TIP3   OH261248   4.028   3.722   3.621  0.2527  0.0919  0.0152
13278TIP3    H161249   4.072   3.637   3.627 -0.7395 -0.4143  0.1616
13278TIP3    H261250   4.003   3.729   3.528  2.3013  1.2262 -0.4774
13279TIP3   OH261251   0.984   3.273  16.913 -0.2502  0.7553  0.1116
13279TIP3    H161252   1.013   3.298  16.825  1.0587 -2.9292 -0.6002
13279TIP3    H261253   1.062   3.280  16.967 -0.7498  1.7516  0.7193
13280TIP3   OH261254   1.117   2.067   5.296 -0.1422  0.0738 -0.0390
13280TIP3    H161255   1.141   1.999   5.359 -0.3480 -0.2911 -0.3552
13280TIP3    H261256   1.201   2.103   5.267  0.0203 -1.0838 -1.0143
13281TIP3   OH261257   6.229   4.038   0.315 -0.3896  0.8343  0.1113
13281TIP3    H161258   6.239   4.061   0.223  0.9223 -1.9024 -0.4830
13281TIP3    H261259   6.195   4.117   0.356 -0.0578  2.4065 -2.5395
13282TIP3   OH261260   3.734   0.551   1.979  0.1657  0.2217 -0.1290
13282TIP3    H161261   3.808   0.511   1.933 -1.6213 -2.2533 -0.9260
13282TIP3    H261262   3.698   0.480   2.032 -0.9780  1.7136  1.1207
13283TIP3   OH261263   2.029   4.093  15.317 -0.4468  0.4919  0.1108
13283TIP3    H161264   2.085   4.068  15.243  1.4381  1.9019  1.0147
13283TIP3    H261265   1.988   4.011  15.344  0.5204 -0.4312 -1.1171
13284TIP3   OH261266   2.734   2.247   0.076 -0.0533  0.3377  0.7852
13284TIP3    H161267   2.678   2.205   0.142 -1.1603 -0.4371 -0.6148
13284TIP3    H261268   2.822   2.241   0.112 -0.6515 -0.0235  2.2260
13285TIP3   OH261269   3.636   5.869   4.386 -0.0377  0.3041  0.1241
13285TIP3    H161270   3.703   5.870   4.317  1.7806  0.3001  1.8765
13285TIP3    H261271   3.626   5.961   4.410 -0.4923  0.2741  0.0635
13286TIP3   OH261272   4.375   0.035  10.696  0.4172  0.1031  0.5618
13286TIP3    H161273   4.450  -0.019  10.719  1.0376  0.2682 -1.0205
13286TIP3    H261274   4.407   0.093  10.627 -1.5667 -0.8432 -1.2018
13287TIP3   OH261275   1.829   6.418  11.066  0.0358 -0.6856 -0.5854
13287TIP3    H161276   1.880   6.403  11.145  0.0904 -1.0152 -0.6798
13287TIP3    H261277   1.746   6.374  11.082 -0.3184  0.0880 -0.3208
13288TIP3   OH261278   1.804   0.373  16.546  0.2695 -0.4501 -0.0158
13288TIP3    H161279   1.764   0.310  16.486 -0.3466 -0.9143  0.8693
13288TIP3    H261280   1.733   0.398  16.606  0.0593  2.3942 -1.3938
13289TIP3   OH261281   0.825   1.499   5.421  0.2555 -0.3494  0.1635
13289TIP3    H161282   0.808   1.405   5.435  0.0451 -0.3740 -0.2716
13289TIP3    H261283   0.907   1.501   5.372 -0.4176 -0.3530 -0.9800
13290TIP3   OH261284   0.082   1.759   0.304 -0.7285 -0.4594  0.6815
13290TIP3    H161285   0.135   1.798   0.234 -1.3639  1.0232  1.0083
13290TIP3    H261286   0.120   1.795   0.384 -1.9221  0.2598  0.9398
13291TIP3   OH261287   2.843   1.728   5.602  0.6326 -0.1409  0.4646
13291TIP3    H161288   2.772   1.667   5.620 -0.8485  1.4563  0.2244
13291TIP3    H261289   2.844   1.786   5.679  2.6782 -1.0711  1.1565
13292TIP3   OH261290   5.231   2.831   3.751  0.8656  0.2526  0.2074
13292TIP3    H161291   5.170   2.771   3.707  0.8992  0.3654  0.0104
13292TIP3    H261292   5.283   2.774   3.808 -0.0144  0.2729  1.0368
13293TIP3   OH261293   1.991   0.113  16.302  0.0503 -0.1540  0.0458
13293TIP3    H161294   1.956   0.076  16.383 -0.2915  0.4150  0.1582
13293TIP3    H261295   1.920   0.104  16.239  0.0603  0.0774  0.0044
13294TIP3   OH261296   3.938   3.052  13.678  0.2496  0.1326  0.2429
13294TIP3    H161297   3.922   3.017  13.765 -0.0213  1.0010  0.5494
13294TIP3    H261298   3.971   3.140  13.693 -0.3031  0.4798 -0.5388
13295TIP3   OH261299   3.839   0.620  16.884  0.0535 -0.1796 -0.0338
13295TIP3    H161300   3.781   0.634  16.808  1.2404  2.3237 -0.5294
13295TIP3    H261301   3.904   0.557  16.852  0.7641  1.1390 -1.2397
13296TIP3   OH261302   3.068   0.868  16.948 -0.2839  0.1655 -0.4264
13296TIP3    H161303   3.147   0.918  16.928 -1.5356  2.7725  0.8062
13296TIP3    H261304   3.086   0.826  17.032  0.3303 -0.4632 -0.8745
13297TIP3   OH261305   4.170   2.141  14.631 -0.0200 -0.6669 -0.1926
13297TIP3    H161306   4.261   2.166  14.645  0.0427 -0.1962 -1.3547
13297TIP3    H261307   4.120   2.197  14.690  0.2235  1.2410 -1.7456
13298TIP3   OH261308   1.748   0.435  11.436  0.1306  0.4705 -0.5310
13298TIP3    H161309   1.788   0.379  11.503  0.3734 -1.3271 -2.1318
13298TIP3    H261310   1.654   0.415  11.442  0.0944  0.6813 -0.3931
13299TIP3   OH261311   6.582   3.884   6.697 -0.5165 -0.2602  0.8249
13299TIP3    H161312   6.539   3.815   6.747 -0.7723 -1.7483 -1.3780
13299TIP3    H261313   6.665   3.899   6.743 -1.5455 -0.2896  2.7213
13300TIP3   OH261314   4.560   0.556   2.279  0.2156 -0.2180  0.2085
13300TIP3    H161315   4.644   0.556   2.233 -0.2361 -2.3426 -0.7133
13300TIP3    H261316   4.536   0.463   2.285 -1.7781  0.3125  0.9813
13301TIP3   OH261317   0.286   2.244  14.872 -0.1434  0.3524  0.5989
13301TIP3    H161318   0.192   2.257  14.871 -0.3706 -1.2182 -0.3698
13301TIP3    H261319   0.301   2.183  14.945 -0.0807 -0.7864 -0.3610
13302TIP3   OH261320   1.623   4.156  14.901 -0.2681  0.1996 -0.0680
13302TIP3    H161321   1.713   4.140  14.871 -0.4163  1.1245 -1.0478
13302TIP3    H261322   1.617   4.252  14.909 -1.5792  0.2426 -1.3512
13303TIP3   OH261323   4.446   0.628   0.735  0.4382 -0.2991  0.2703
13303TIP3    H161324   4.508   0.685   0.691 -1.6364  1.5731 -0.3365
13303TIP3    H261325   4.432   0.554   0.675 -0.5056  1.0000 -1.1294
13304TIP3   OH261326   4.695   1.552  14.826  0.0595 -0.1390  0.2366
13304TIP3    H161327   4.720   1.643  14.845 -1.8718  0.5289 -0.3790
13304TIP3    H261328   4.733   1.535  14.740 -0.9544  0.6445 -0.3832
13305TIP3   OH261329   2.797   2.362   2.530 -0.1913 -0.1955  0.0904
13305TIP3    H161330   2.713   2.394   2.498 -0.0581  0.3969  0.3297
13305TIP3    H261331   2.841   2.440   2.563  0.7993 -0.3766 -0.7989
13306TIP3   OH261332   1.907   1.170   0.107 -0.1615 -0.1504  0.4010
13306TIP3    H161333   1.887   1.232   0.177 -0.3820 -0.2424  0.4216
13306TIP3    H261334   1.824   1.126   0.090 -0.5889  1.2843 -1.3269
13307TIP3   OH261335   5.369   1.152  12.894  0.1612  0.4786  0.2830
13307TIP3    H161336   5.297   1.092  12.876 -0.6394  0.7918  2.4038
13307TIP3    H261337   5.327   1.231  12.929  1.3109  1.7943 -1.1737
13308TIP3   OH261338   3.632   4.515   0.169  0.7812 -0.2864  0.1963
13308TIP3    H161339   3.543   4.496   0.138  0.4474  1.1154  0.2621
13308TIP3    H261340   3.686   4.446   0.131 -0.3061 -1.0258 -0.0206
13309TIP3   OH261341   2.395   1.130   5.253  0.2278  1.1288 -0.6235
13309TIP3    H161342   2.341   1.193   5.300 -0.7064  1.3511 -1.9524
13309TIP3    H261343   2.435   1.077   5.321 -4.2461 -1.1912  0.3880
13310TIP3   OH261344   2.918   1.205  12.075  0.3949 -0.2252 -0.3178
13310TIP3    H161345   2.892   1.125  12.121 -0.3514  0.4167  0.3865
13310TIP3    H261346   2.837   1.239  12.039  1.1007 -1.2598 -3.0295
13311TIP3   OH261347   1.531   3.746  13.809 -0.4853 -0.5520  0.1998
13311TIP3    H161348   1.524   3.790  13.894 -2.4419  2.2009 -1.2960
13311TIP3    H261349   1.446   3.703  13.798 -0.2807 -0.7921 -0.4317
13312TIP3   OH261350   3.253   5.635  14.724 -0.6627  0.3727 -0.3920
13312TIP3    H161351   3.316   5.681  14.779 -0.3555 -1.4670  0.8236
13312TIP3    H261352   3.302   5.612  14.645  0.6570 -2.2696  1.1228
13313TIP3   OH261353   1.014   6.666  16.252  0.2461  0.2792 -0.3737
13313TIP3    H161354   1.050   6.586  16.212  1.3480  1.6044 -2.1041
13313TIP3    H261355   0.953   6.700  16.187  1.2840  1.9092 -0.5291
13314TIP3   OH261356   5.734   0.697  15.449 -0.8582  0.0778 -0.5893
13314TIP3    H161357   5.708   0.646  15.526  0.5454 -0.2963 -0.3614
13314TIP3    H261358   5.822   0.727  15.469  0.0446 -1.1387 -2.6012
13315TIP3   OH261359   4.543   5.021   3.111 -0.5514  0.1312  0.7483
13315TIP3    H161360   4.466   4.965   3.114  0.8533 -1.8685  0.6785
13315TIP3    H261361   4.553   5.053   3.200 -1.2816  0.1313  0.8290
13316TIP3   OH261362   6.678   3.622   6.091  0.3376 -0.7810  0.3789
13316TIP3    H161363   6.627   3.671   6.026 -0.7970 -0.8143  1.2272
13316TIP3    H261364   6.769   3.640   6.069 -0.0613  0.6492 -0.1330
13317TIP3   OH261365   6.195   3.710   4.920  0.1045 -0.0262  0.2326
13317TIP3    H161366   6.171   3.689   5.011  1.4724 -0.3915  0.5134
13317TIP3    H261367   6.280   3.753   4.927 -0.0514  0.4721 -0.8369
13318TIP3   OH261368   6.216   6.255  14.246  0.0337 -0.0886 -0.5215
13318TIP3    H161369   6.183   6.275  14.159  2.0464  0.8438 -1.1176
13318TIP3    H261370   6.140   6.264  14.304 -1.1174  0.1959 -2.0572
13319TIP3   OH261371   0.263   5.209  16.429  0.2903  0.8516  0.2739
13319TIP3    H161372   0.282   5.248  16.514  0.7254 -0.1654  0.6433
13319TIP3    H261373   0.339   5.230  16.375  0.0208  1.4840  0.1396
13320TIP3   OH261374   3.258   4.960   3.358 -0.0313 -0.4564  0.0439
13320TIP3    H161375   3.352   4.958   3.374 -0.1138 -1.7043  0.3879
13320TIP3    H261376   3.240   5.051   3.334  1.1205 -0.0155  0.8199
13321TIP3   OH261377   2.577   0.615  15.326 -0.2735 -0.3107  0.3472
13321TIP3    H161378   2.515   0.651  15.263  0.3400  1.2488  0.6261
13321TIP3    H261379   2.592   0.525  15.296 -1.6260 -0.2680 -0.4887
13322TIP3   OH261380   6.363   5.627   3.290 -0.1177 -0.2665 -0.1681
13322TIP3    H161381   6.269   5.639   3.296 -0.3577 -0.6376 -2.6721
13322TIP3    H261382   6.381   5.621   3.196  2.7793  2.7316  0.0885
13323TIP3   OH261383   1.443   2.265  15.545  0.2080 -0.4396  0.2974
13323TIP3    H161384   1.404   2.233  15.626  0.7181 -1.5533  0.1096
13323TIP3    H261385   1.500   2.337  15.572  0.0078 -0.4905  0.8657
13324TIP3   OH261386   0.568   0.204  16.898  0.0175 -0.2595 -0.2473
13324TIP3    H161387   0.595   0.122  16.856 -0.2015 -1.5641  2.0532
13324TIP3    H261388   0.638   0.222  16.962 -1.1230  0.0178  0.9516
13325TIP3   OH261389   0.668   5.039   1.619  0.4482 -0.8555 -0.1762
13325TIP3    H161390   0.734   4.990   1.670 -0.9311 -3.7797 -1.1259
13325TIP3    H261391   0.678   5.006   1.530 -1.7087 -0.6807 -0.4923
13326TIP3   OH261392   6.055   0.697  13.631 -0.0745 -0.3052 -0.8180
13326TIP3    H161393   6.136   0.686  13.681 -1.2578 -0.5973  1.1138
13326TIP3    H261394   6.050   0.620  13.574  1.3796  0.1034 -1.5030
13327TIP3   OH261395   5.372   3.423   3.154 -0.8714  0.2260  0.3134
13327TIP3    H161396   5.313   3.395   3.084 -1.3235  0.8518  0.4412
13327TIP3    H261397   5.334   3.505   3.186  0.7957  1.2995 -0.4787
13328TIP3   OH261398   5.326   5.566  15.140 -0.4664 -0.0109 -0.2763
13328TIP3    H161399   5.294   5.577  15.230 -0.2784 -0.6437 -0.1289
13328TIP3    H261400   5.421   5.557  15.150 -0.5165 -0.7620 -0.4796
13329TIP3   OH261401   5.858   6.341   2.899  0.0044  0.3026 -0.1215
13329TIP3    H161402   5.898   6.254   2.892  1.0257  0.6615  0.9816
13329TIP3    H261403   5.870   6.365   2.991 -2.6991  0.4785  0.2263
13330TIP3   OH261404   5.817   5.828   2.941  0.5910 -0.6309  0.2329
13330TIP3    H161405   5.749   5.851   3.004 -0.3506 -2.0267 -0.2549
13330TIP3    H261406   5.869   5.908   2.932 -1.2191  0.5891  0.2848
13331TIP3   OH261407   0.488   2.349   4.338 -0.1894 -0.0905 -0.2934
13331TIP3    H161408   0.571   2.396   4.348 -0.2526  0.4922 -2.3457
13331TIP3    H261409   0.427   2.415   4.305 -0.4219 -1.4265 -2.6503
13332TIP3   OH261410   6.350   6.691   4.204  0.1777  0.3259 -0.1612
13332TIP3    H161411   6.406   6.765   4.228  0.9455  0.0236 -1.0041
13332TIP3    H261412   6.311   6.662   4.286 -0.1436  1.6857  0.1688
13333TIP3   OH261413   6.081   0.491  11.887  0.3857 -0.3262 -0.0670
13333TIP3    H161414   6.062   0.416  11.944 -1.1592 -0.2243 -0.4257
13333TIP3    H261415   6.137   0.456  11.819  0.9518 -0.8083  0.6413
13334TIP3   OH261416   5.603   4.319  11.547  0.4269 -0.4377  0.4389
13334TIP3    H161417   5.583   4.394  11.491 -2.5889  0.4758  2.6517
13334TIP3    H261418   5.682   4.345  11.595  1.8926 -0.4544 -1.8319
13335TIP3   OH261419   0.009   4.689  11.681 -0.3741 -0.7785  0.0407
13335TIP3    H161420   0.063   4.633  11.626  1.8463  0.2066  1.1246
13335TIP3    H261421   0.012   4.775  11.638 -0.7348 -0.6318  0.3089
13336TIP3   OH261422   6.245   6.261  13.639 -0.2262  0.4404 -0.0152
13336TIP3    H161423   6.186   6.336  13.641 -1.4296 -0.4442 -1.4871
13336TIP3    H261424   6.302   6.278  13.563 -2.3347 -1.4683 -2.0777
13337TIP3   OH261425   3.475   6.543   3.191 -0.7283  0.2681  0.2035
13337TIP3    H161426   3.501   6.471   3.134 -0.5362  0.6046 -0.1331
13337TIP3    H261427   3.408   6.505   3.249  0.4681 -0.5905  1.0484
13338TIP3   OH261428   0.729   5.265   3.223 -0.6340 -0.0207  0.0547
13338TIP3    H161429   0.801   5.311   3.267 -1.2640  0.0785  1.0172
13338TIP3    H261430   0.757   5.174   3.219 -0.2967  0.0801  0.1024
13339TIP3   OH261431   6.595   2.697   5.527 -0.2439  0.1593  0.8403
13339TIP3    H161432   6.679   2.656   5.506  0.7981  1.6720  1.8774
13339TIP3    H261433   6.534   2.624   5.533  0.9404 -0.9545 -0.1725
13340TIP3   OH261434   5.188   1.511  16.893 -0.1535 -0.3257  0.4789
13340TIP3    H161435   5.187   1.596  16.937 -1.3909 -1.1311  2.0123
13340TIP3    H261436   5.185   1.447  16.963 -0.1609 -1.6483 -0.7094
13341TIP3   OH261437   5.634   4.203   4.136 -1.0278  0.9142  0.3185
13341TIP3    H161438   5.576   4.278   4.147 -1.9298  0.4978 -1.3282
13341TIP3    H261439   5.597   4.135   4.193 -0.7269  1.4336  1.1327
13342TIP3   OH261440   2.633   4.676  10.597 -0.3323 -0.0237 -0.2315
13342TIP3    H161441   2.701   4.682  10.531 -1.1705  0.6432 -1.0452
13342TIP3    H261442   2.679   4.654  10.678  0.7756 -0.0808 -0.8794
13343TIP3   OH261443   2.671   4.540   4.788 -0.3625  0.3162  0.0656
13343TIP3    H161444   2.636   4.452   4.772  0.2482  0.3433 -1.4761
13343TIP3    H261445   2.611   4.598   4.742 -0.6444  0.6993  0.9081
13344TIP3   OH261446   5.141   1.436  14.709  0.2903  0.3945  0.3658
13344TIP3    H161447   5.107   1.520  14.679  1.6440  0.5335 -0.7803
13344TIP3    H261448   5.235   1.440  14.693  0.3819 -1.3107  0.3770
13345TIP3   OH261449   2.685   1.098  13.208 -0.6495 -0.0996 -0.6327
13345TIP3    H161450   2.611   1.108  13.267  0.9006  1.7847  1.0875
13345TIP3    H261451   2.732   1.021  13.241 -1.5087 -0.9497 -1.3741
13346TIP3   OH261452   5.250   0.551   1.270  0.0531  0.0704 -0.2153
13346TIP3    H161453   5.343   0.571   1.281 -0.2903  1.7094 -0.2248
13346TIP3    H261454   5.212   0.631   1.234 -1.2493 -0.8021 -0.8014
13347TIP3   OH261455   0.180   2.573  16.177 -0.4864 -0.0998 -0.3860
13347TIP3    H161456   0.213   2.614  16.257  0.0416 -1.8097  0.2795
13347TIP3    H261457   0.204   2.635  16.107  0.8810  0.4182  0.5235
13348TIP3   OH261458   3.539   0.359  15.668  0.4126  0.1816  0.2175
13348TIP3    H161459   3.581   0.387  15.587 -0.3356 -0.0166 -0.2440
13348TIP3    H261460   3.501   0.439  15.705 -0.9260 -0.0496 -0.6276
13349TIP3   OH261461   6.037   3.388  11.351  0.8013  0.7290 -0.5717
13349TIP3    H161462   6.115   3.403  11.297  2.2181 -0.4499  1.0721
13349TIP3    H261463   5.980   3.463  11.333  2.5312  1.8714 -1.4587
13350TIP3   OH261464   4.315   5.903  17.106 -0.4420 -0.0610 -0.0614
13350TIP3    H161465   4.329   5.978  17.165 -0.7754 -0.2389  0.2440
13350TIP3    H261466   4.224   5.911  17.079  0.0881  0.8403 -1.7011
13351TIP3   OH261467   3.874   3.123   2.104 -0.7826  0.0426 -0.3517
13351TIP3    H161468   3.964   3.104   2.127 -0.3073  1.0976 -1.2979
13351TIP3    H261469   3.822   3.079   2.172  0.4213 -0.7345  0.0806
13352TIP3   OH261470   4.517   2.327  16.549  0.4214 -0.1501 -0.4087
13352TIP3    H161471   4.580   2.256  16.565 -0.5441 -0.7732  0.6500
13352TIP3    H261472   4.462   2.329  16.627 -0.2286  1.0749 -0.8897
13353TIP3   OH261473   3.416   4.282  15.546 -0.1314 -0.3457 -0.1339
13353TIP3    H161474   3.430   4.217  15.477  0.7029 -1.3068  0.8936
13353TIP3    H261475   3.385   4.230  15.621  1.5251  0.2636  1.0235
13354TIP3   OH261476   2.996   6.574   0.476 -0.8120 -0.0053 -0.4278
13354TIP3    H161477   2.942   6.562   0.554 -1.5546 -2.3678 -1.2532
13354TIP3    H261478   3.072   6.518   0.491  0.1082  1.2257 -0.4563
13355TIP3   OH261479   1.348   3.654  14.138 -0.3655 -0.2934  0.0392
13355TIP3    H161480   1.400   3.728  14.106 -1.0077  0.4385  0.6514
13355TIP3    H261481   1.381   3.638  14.226  0.1275 -1.0903 -0.2821
13356TIP3   OH261482   6.345   0.997   4.111 -0.2042  0.0807  0.2636
13356TIP3    H161483   6.327   1.043   4.029 -2.6887 -0.8134  0.2668
13356TIP3    H261484   6.262   1.000   4.159  1.2219  0.6107  2.7802
13357TIP3   OH261485   5.205   6.490   5.144 -0.3231  0.4530 -0.2066
13357TIP3    H161486   5.112   6.513   5.138 -0.4154  1.2320  3.0981
13357TIP3    H261487   5.241   6.554   5.206  2.7189  0.9597 -2.3644
13358TIP3   OH261488   6.730   6.208   1.362  0.0581 -0.4276  0.4089
13358TIP3    H161489   6.722   6.120   1.327  1.6536  0.0077 -1.1198
13358TIP3    H261490   6.648   6.222   1.410 -0.6022 -2.3894 -0.0911
13359TIP3   OH261491   3.208   1.430   2.996 -0.0789  0.2298  0.0474
13359TIP3    H161492   3.115   1.427   2.975  0.4706 -0.5917 -2.4129
13359TIP3    H261493   3.232   1.339   3.015 -0.1246  0.6751  2.4465
13360TIP3   OH261494   1.497   5.056   1.000  0.2419  0.0509  0.7580
13360TIP3    H161495   1.471   5.091   0.915  0.7013 -2.3491 -0.3926
13360TIP3    H261496   1.414   5.036   1.044  0.0154 -1.9593 -0.5293
13361TIP3   OH261497   6.275   1.522  14.735  0.5773 -0.2864 -0.4964
13361TIP3    H161498   6.345   1.586  14.740 -0.4717  0.8008  0.8526
13361TIP3    H261499   6.254   1.502  14.827 -1.2396 -0.1545 -0.8532
13362TIP3   OH261500   2.834   4.388  14.415 -0.1467  0.1507 -0.3528
13362TIP3    H161501   2.790   4.361  14.495  0.4815  0.5598  0.1342
13362TIP3    H261502   2.772   4.367  14.345  0.3047 -2.5466  0.0046
13363TIP3   OH261503   3.462   3.516   1.568  0.0224  0.5450  0.1845
13363TIP3    H161504   3.430   3.604   1.547  1.7328  0.9588 -0.8443
13363TIP3    H261505   3.505   3.525   1.653 -1.1089  0.3571  0.7840
13364TIP3   OH261506   5.754   4.706   0.444  0.2196  0.5233  0.1226
13364TIP3    H161507   5.774   4.656   0.365 -0.7406  1.3377 -0.6463
13364TIP3    H261508   5.808   4.666   0.512  2.8228  1.2704 -1.4175
13365TIP3   OH261509   4.101   1.654   0.620 -0.6063 -0.0337 -0.1108
13365TIP3    H161510   4.075   1.738   0.582 -1.9573  0.0095  0.8556
13365TIP3    H261511   4.177   1.627   0.569 -0.8912  1.1952 -1.2206
13366TIP3   OH261512   6.644   5.081   6.384  0.2063  0.1391 -0.0375
13366TIP3    H161513   6.587   5.056   6.456 -1.1484 -2.0243 -1.7864
13366TIP3    H261514   6.713   5.014   6.383 -0.2426 -0.3267 -1.2255
13367TIP3   OH261515   5.387   5.301  15.691 -0.2417  0.1390  0.4926
13367TIP3    H161516   5.310   5.266  15.647  1.4108 -2.4322 -0.4842
13367TIP3    H261517   5.439   5.341  15.621  0.3658 -0.1393  0.7813
13368TIP3   OH261518   2.735   3.352  14.008 -0.3268 -0.9594  0.1892
13368TIP3    H161519   2.690   3.329  14.090 -0.4139 -1.3533  0.0307
13368TIP3    H261520   2.820   3.385  14.036 -1.5051  1.8540  0.6404
13369TIP3   OH261521   4.973   2.231  14.812 -0.2724  0.1902  0.4726
13369TIP3    H161522   5.060   2.260  14.784 -0.2840  0.5514  0.7998
13369TIP3    H261523   4.914   2.264  14.744 -0.0521 -0.8492 -0.2342
13370TIP3   OH261524   0.257   0.308  13.043  0.3976  0.3798 -0.5035
13370TIP3    H161525   0.335   0.332  12.993 -0.2777  1.9494 -0.8347
13370TIP3    H261526   0.292   0.268  13.124  1.5188  0.1000 -1.1100
13371TIP3   OH261527   0.205   4.023   2.355 -0.0327 -0.8339  0.0764
13371TIP3    H161528   0.237   3.942   2.393  2.3698  0.6195  1.2726
13371TIP3    H261529   0.278   4.056   2.303 -1.2982  0.1068 -1.1706
13372TIP3   OH261530   3.046   4.035  14.285  0.0519 -0.6117 -0.4613
13372TIP3    H161531   2.953   4.046  14.306 -0.3746 -0.1236 -2.4958
13372TIP3    H261532   3.073   4.120  14.251  1.4141 -0.5727  0.6781
13373TIP3   OH261533   5.042   5.679   5.202 -0.2093  0.3344 -0.8667
13373TIP3    H161534   4.957   5.707   5.168  0.5457  2.8755 -0.7978
13373TIP3    H261535   5.051   5.728   5.284  1.5714  0.5300 -1.1680
13374TIP3   OH261536   3.814   5.547   3.469  0.2074  0.0729 -0.5139
13374TIP3    H161537   3.899   5.504   3.475 -0.3650 -1.1462 -1.0250
13374TIP3    H261538   3.818   5.597   3.387 -0.0438 -1.0322 -1.2023
13375TIP3   OH261539   4.597   4.352  12.499 -0.0334  0.4129  0.1894
13375TIP3    H161540   4.509   4.390  12.496  0.7738  2.3406  0.7614
13375TIP3    H261541   4.613   4.335  12.592 -0.5120 -1.7069 -0.0790
13376TIP3   OH261542   6.187   0.214  12.737 -0.1691 -0.1611  0.3747
13376TIP3    H161543   6.227   0.286  12.786 -0.8038  0.4810 -0.0404
13376TIP3    H261544   6.241   0.204  12.659  0.7357 -1.0628  1.0956
13377TIP3   OH261545   5.226   2.669   3.359 -0.1861 -0.2396  0.0991
13377TIP3    H161546   5.299   2.693   3.303  0.4145  0.9323  1.3635
13377TIP3    H261547   5.236   2.575   3.372  0.3449 -0.3130 -0.7764
13378TIP3   OH261548   5.914   0.489   6.511  0.2776 -0.0809 -0.1059
13378TIP3    H161549   6.006   0.507   6.532  0.0019  1.1745  0.0646
13378TIP3    H261550   5.864   0.538   6.577 -0.5384  0.9139 -1.4509
13379TIP3   OH261551   5.375   1.632   1.096  0.0431 -0.6036 -0.0441
13379TIP3    H161552   5.466   1.611   1.077  0.4720  0.4390  0.7911
13379TIP3    H261553   5.345   1.680   1.019  0.6377  0.2774  0.2557
13380TIP3   OH261554   2.194   3.354  12.157 -0.1505  0.3473 -0.6435
13380TIP3    H161555   2.181   3.365  12.251 -0.9915  0.1003 -0.7288
13380TIP3    H261556   2.116   3.307  12.127 -0.1868  0.9902 -1.5756
13381TIP3   OH261557   4.898   4.382  15.020 -0.5427  0.1765  0.4757
13381TIP3    H161558   4.990   4.404  15.002 -0.7945  2.9646  2.3225
13381TIP3    H261559   4.849   4.416  14.946 -0.1394 -1.0888 -0.3900
13382TIP3   OH261560   3.220   0.735  13.050  0.3831  0.4891 -0.3179
13382TIP3    H161561   3.161   0.787  13.105 -0.7846  1.3194 -2.3066
13382TIP3    H261562   3.280   0.798  13.012  0.4116  0.0708 -0.9724
13383TIP3   OH261563   5.683   5.343   1.841 -0.2487  0.4193 -0.5964
13383TIP3    H161564   5.703   5.410   1.906 -0.4099 -0.4184  0.3220
13383TIP3    H261565   5.693   5.388   1.757  1.7254  1.0303 -0.0592
13384TIP3   OH261566   6.246   2.530   1.508 -0.3712  0.0015  0.6309
13384TIP3    H161567   6.302   2.554   1.434  1.6560 -1.5697  1.6039
13384TIP3    H261568   6.235   2.611   1.557  0.0754  0.5916 -0.2325
13385TIP3   OH261569   6.511   5.608  16.833  0.8245  0.1091  0.3242
13385TIP3    H161570   6.530   5.691  16.877  0.5133  0.5503 -0.3563
13385TIP3    H261571   6.557   5.542  16.884 -0.0524  0.5281  1.6899
13386TIP3   OH261572   0.921   1.310   4.152  0.8305 -0.4043  0.2992
13386TIP3    H161573   0.862   1.243   4.116  0.6256 -0.1150  0.0866
13386TIP3    H261574   0.958   1.270   4.230  0.7395 -0.7819  0.1525
13387TIP3   OH261575   0.492   6.068  12.885  0.4218 -0.7403  0.7923
13387TIP3    H161576   0.406   6.027  12.899 -0.5868  0.5378 -1.4291
13387TIP3    H261577   0.534   6.011  12.820  1.0318 -1.0294  1.4367
13388TIP3   OH261578   5.971   6.703   2.473  0.0610  0.0473 -0.0173
13388TIP3    H161579   6.041   6.649   2.436 -1.2203 -0.8747 -1.1792
13388TIP3    H261580   5.902   6.701   2.407 -1.4207  0.1854  1.4748
13389TIP3   OH261581   6.562   1.383   0.390 -0.2404  0.1718 -0.0347
13389TIP3    H161582   6.625   1.370   0.319  0.2675  3.4210 -0.2449
13389TIP3    H261583   6.478   1.356   0.353  0.0625  1.5806 -1.7978
13390TIP3   OH261584   2.419   2.055   0.586  0.0199 -0.3613 -0.0398
13390TIP3    H161585   2.360   2.083   0.656  0.5361  0.6688 -0.0058
13390TIP3    H261586   2.387   2.101   0.508 -0.5435 -1.4911 -0.4780
13391TIP3   OH261587   1.317   3.671   3.075 -0.0864  0.6486  0.3227
13391TIP3    H161588   1.395   3.658   3.130  1.5723 -1.0845 -2.3624
13391TIP3    H261589   1.254   3.606   3.106  0.1742  0.8773  1.3467
13392TIP3   OH261590   6.406   4.052   0.578 -0.2494  0.0913  0.2669
13392TIP3    H161591   6.322   4.040   0.533  0.4104  1.1550 -1.3046
13392TIP3    H261592   6.404   4.143   0.607  1.4783  0.9918 -2.2488
13393TIP3   OH261593   2.030   2.796   3.031  0.4910 -0.2686 -0.1316
13393TIP3    H161594   1.971   2.834   2.966  1.3170 -2.0653 -1.9998
13393TIP3    H261595   2.117   2.824   3.002  0.9978 -2.4967 -0.8170
13394TIP3   OH261596   2.308   4.726  12.446 -0.0256 -0.5940  0.3565
13394TIP3    H161597   2.239   4.765  12.501 -0.8848  0.6964 -1.5485
13394TIP3    H261598   2.263   4.707  12.363  1.4974 -1.4311 -0.2795
13395TIP3   OH261599   2.125   3.236   0.537  0.0132 -0.4279  0.7384
13395TIP3    H161600   2.209   3.206   0.572 -0.0783 -0.4256  0.9575
13395TIP3    H261601   2.087   3.158   0.496  0.6983 -0.1398 -0.4942
13396TIP3   OH261602   1.879   0.730   0.865 -0.5700  0.0213 -0.1702
13396TIP3    H161603   1.830   0.749   0.945 -0.1926  0.5780 -0.0694
13396TIP3    H261604   1.928   0.650   0.886  1.4818  1.5467  1.0432
13397TIP3   OH261605   1.357   3.795  15.224  0.1095 -0.0408 -0.4175
13397TIP3    H161606   1.432   3.847  15.194 -1.0818  2.1904  0.4029
13397TIP3    H261607   1.372   3.786  15.319  0.2175 -1.0553 -0.5319
13398TIP3   OH261608   2.663   2.023   2.423  0.1928 -0.4841 -0.0949
13398TIP3    H161609   2.626   2.103   2.387 -0.7223 -0.8545  0.0118
13398TIP3    H261610   2.654   2.033   2.518 -0.8190 -1.1298 -0.1140
13399TIP3   OH261611   3.516   5.412   5.757 -0.4476 -0.0060 -0.2971
13399TIP3    H161612   3.461   5.448   5.688  2.0765  0.8035 -1.9676
13399TIP3    H261613   3.531   5.321   5.731 -1.2803 -0.3303  0.3469
13400TIP3   OH261614   2.585   5.532   0.556 -0.3309  0.5530 -0.1558
13400TIP3    H161615   2.514   5.470   0.544 -0.6030  1.0017 -0.9138
13400TIP3    H261616   2.648   5.487   0.613  0.1180 -0.9517 -1.8051
13401TIP3   OH261617   5.114   5.998  14.472  0.0846  0.7378  0.1060
13401TIP3    H161618   5.199   5.969  14.438 -0.7599 -1.0214 -0.6285
13401TIP3    H261619   5.125   6.091  14.491  2.1030  0.5749 -0.1909
13402TIP3   OH261620   5.039   1.106   2.086 -0.0211 -0.6206  0.2782
13402TIP3    H161621   4.961   1.073   2.130  0.1215 -1.2116  0.0940
13402TIP3    H261622   5.046   1.197   2.115 -0.1498 -0.8860  1.1551
13403TIP3   OH261623   6.435   5.572   2.626 -0.2019 -0.4399  0.0567
13403TIP3    H161624   6.348   5.532   2.620 -1.2919  1.8574  0.0315
13403TIP3    H261625   6.482   5.516   2.687 -2.1544 -0.9487  1.1625
13404TIP3   OH261626   2.612   4.926   1.559 -0.6802 -0.0188  0.0198
13404TIP3    H161627   2.610   4.946   1.466 -0.3948  1.5810  0.3502
13404TIP3    H261628   2.702   4.897   1.576 -1.1649 -1.9375 -0.5071
13405TIP3   OH261629   1.567   4.402  16.912  0.0264 -0.2594 -0.1603
13405TIP3    H161630   1.520   4.456  16.849 -1.1967 -1.1794 -0.0465
13405TIP3    H261631   1.555   4.312  16.881  0.8404 -0.5824  0.4430
13406TIP3   OH261632   6.286   6.748  11.954  0.0105  0.9048  0.1786
13406TIP3    H161633   6.351   6.738  12.024  0.7182  0.0402 -0.5872
13406TIP3    H261634   6.304   6.835  11.918 -0.4283  1.3989  1.1388
13407TIP3   OH261635   4.580   3.401  12.505  0.1370  0.0095  0.2184
13407TIP3    H161636   4.533   3.413  12.423 -0.2245  3.6964  0.8933
13407TIP3    H261637   4.665   3.443  12.491  1.8938 -3.3410  0.2612
13408TIP3   OH261638   3.708   3.865   3.643  0.1651  0.2944 -0.6427
13408TIP3    H161639   3.685   3.773   3.651 -1.0357  0.6947  0.7080
13408TIP3    H261640   3.698   3.885   3.550 -4.2700  0.2530 -0.2687
13409TIP3   OH261641   3.670   1.074   5.156 -0.1273  0.0180  0.1316
13409TIP3    H161642   3.720   1.135   5.210 -1.0878  0.0215  1.0477
13409TIP3    H261643   3.585   1.068   5.200 -1.2680  0.7597 -1.9207
13410TIP3   OH261644   5.655   0.256   3.988 -0.5390  0.4749  0.2273
13410TIP3    H161645   5.675   0.163   4.000 -0.7374  0.4949  0.7215
13410TIP3    H261646   5.668   0.271   3.895 -1.3151 -0.2495 -0.0069
13411TIP3   OH261647   6.005   2.128  13.353  0.0248  0.1787  0.7722
13411TIP3    H161648   5.941   2.096  13.289  0.0450  2.2673 -0.3448
13411TIP3    H261649   6.009   2.059  13.420 -2.3855 -0.5885  0.1660
13412TIP3   OH261650   1.156   5.850  15.670  0.2866 -0.1554  0.2653
13412TIP3    H161651   1.211   5.832  15.594 -0.3971 -2.3667  0.2544
13412TIP3    H261652   1.181   5.783  15.734 -0.7253  0.2885  1.1323
13413TIP3   OH261653   4.304   1.835  13.440 -0.2911 -0.5672  0.1412
13413TIP3    H161654   4.344   1.810  13.524 -1.3099 -0.1323  0.7639
13413TIP3    H261655   4.277   1.753  13.401 -1.7245 -0.6216  1.2150
13414TIP3   OH261656   6.595   5.148   5.123 -0.1681  0.7372  0.6464
13414TIP3    H161657   6.672   5.204   5.127  0.4460 -0.0592  0.0545
13414TIP3    H261658   6.594   5.102   5.207 -0.2027  1.0057  0.7941
13415TIP3   OH261659   5.753   4.480   4.186  0.1220  0.0047 -0.0275
13415TIP3    H161660   5.784   4.391   4.204  0.0097  0.1899  1.1541
13415TIP3    H261661   5.745   4.520   4.273 -1.5697  0.5875 -0.4308
13416TIP3   OH261662   4.076   1.198   3.903 -0.2947  0.3074  0.0589
13416TIP3    H161663   4.056   1.142   3.978 -2.7151  0.7713 -0.2241
13416TIP3    H261664   3.993   1.239   3.880  0.4739  0.4103 -2.6836
13417TIP3   OH261665   1.200   1.740  16.008  0.7135 -0.1680  0.1621
13417TIP3    H161666   1.137   1.712  15.942  1.7808 -0.3765 -0.7996
13417TIP3    H261667   1.183   1.684  16.083  1.1740 -1.7071 -0.8620
13418TIP3   OH261668   4.317   6.331   6.015 -0.2448  0.3318  0.4703
13418TIP3    H161669   4.359   6.249   5.989 -1.6031 -1.1004  2.6338
13418TIP3    H261670   4.245   6.304   6.073 -0.5648  3.0575  1.4206
13419TIP3   OH261671   0.987   0.750   2.499  0.6490 -0.4166  0.0949
13419TIP3    H161672   0.997   0.675   2.441  2.0205 -0.0633 -0.1367
13419TIP3    H261673   1.004   0.715   2.587 -0.3735 -0.7182  0.1872
13420TIP3   OH261674   2.352   5.138  13.859  0.2839 -0.3163  0.2298
13420TIP3    H161675   2.304   5.125  13.941  0.1013  0.5187  0.2520
13420TIP3    H261676   2.421   5.200  13.881  1.3370 -1.4369  0.1725
13421TIP3   OH261677   5.392   6.530  14.274  0.5768 -0.1698  0.2414
13421TIP3    H161678   5.329   6.590  14.234 -0.6840 -0.2478  2.0563
13421TIP3    H261679   5.416   6.470  14.203  2.2153  2.7059 -1.7402
13422TIP3   OH261680   5.792   3.440   3.923  0.3139 -0.5633  0.6803
13422TIP3    H161681   5.756   3.458   3.836  0.8163 -0.0600  0.5765
13422TIP3    H261682   5.737   3.370   3.958 -1.5632  1.0323  1.0080
13423TIP3   OH261683   2.551   3.051  12.917 -0.0879 -0.1457 -0.0157
13423TIP3    H161684   2.468   3.005  12.919  0.1962 -0.6411  0.3602
13423TIP3    H261685   2.604   3.003  12.853  0.2582 -0.4387  0.4840
13424TIP3   OH261686   2.546   5.647   2.614  0.5498  0.0542 -0.1808
13424TIP3    H161687   2.642   5.648   2.608  0.4336  0.0728 -2.3938
13424TIP3    H261688   2.519   5.735   2.589 -0.1024 -0.2893 -0.7003
13425TIP3   OH261689   3.392   0.982   4.186 -0.1751 -0.0034 -0.1035
13425TIP3    H161690   3.469   0.934   4.156  0.0104  0.2298 -0.0048
13425TIP3    H261691   3.399   0.981   4.281  0.3109  0.9838 -0.1143
13426TIP3   OH261692   0.634   6.421  12.955 -0.0155 -0.0521 -0.3125
13426TIP3    H161693   0.564   6.427  12.890  2.6076  0.3064 -3.2273
13426TIP3    H261694   0.646   6.327  12.969 -1.8987 -0.1016  1.2047
13427TIP3   OH261695   4.930   4.462   1.507 -0.4827 -0.1707  0.0333
13427TIP3    H161696   4.908   4.428   1.420 -0.4748  1.4742 -0.6426
13427TIP3    H261697   5.015   4.422   1.527 -0.3318 -0.3231 -0.8594
13428TIP3   OH261698   5.904   0.341   2.762  0.2691 -0.0248  0.0874
13428TIP3    H161699   5.912   0.435   2.742 -1.3215  0.1958  0.4048
13428TIP3    H261700   5.924   0.297   2.679  0.9566  0.5901 -0.0826
13429TIP3   OH261701   6.290   1.882   4.584  0.5637 -0.6545  0.2206
13429TIP3    H161702   6.338   1.813   4.631  0.5004 -0.8367  0.0192
13429TIP3    H261703   6.270   1.947   4.651 -0.5221 -1.4442  0.6728
13430TIP3   OH261704   0.164   3.754  14.831  0.7194  0.7058  0.5614
13430TIP3    H161705   0.103   3.827  14.837  0.1075  0.2426  0.0087
13430TIP3    H261706   0.109   3.677  14.817  1.4824  0.4435 -1.1366
13431TIP3   OH261707   2.214   1.399   2.099  0.3575 -0.0881  0.3479
13431TIP3    H161708   2.196   1.438   2.184  1.1478 -0.0845  0.5220
13431TIP3    H261709   2.292   1.345   2.114  0.1865 -0.5022 -0.2496
13432TIP3   OH261710   1.064   0.523  16.997 -0.2100 -0.5059  0.1355
13432TIP3    H161711   1.104   0.437  17.008  1.9452  0.3520 -0.6957
13432TIP3    H261712   1.016   0.517  16.914  0.2766 -0.7745 -0.1241
13433TIP3   OH261713   4.088   0.297  15.660 -0.5961  0.1525  0.5323
13433TIP3    H161714   4.023   0.272  15.725 -1.0063 -0.6011 -0.1634
13433TIP3    H261715   4.152   0.349  15.709 -0.5220 -1.0033  1.6955
13434TIP3   OH261716   2.660   5.820   5.621 -0.0616  0.0671 -0.4407
13434TIP3    H161717   2.749   5.817   5.587 -0.1021  2.3628 -0.8400
13434TIP3    H261718   2.645   5.913   5.639 -2.3515 -0.3034 -0.3495
13435TIP3   OH261719   6.514   5.665   0.009  0.1461  0.0631 -0.2369
13435TIP3    H161720   6.605   5.648   0.033 -0.1844 -0.3598  0.7470
13435TIP3    H261721   6.519   5.709  -0.076  1.1645 -2.6141 -1.6234
13436TIP3   OH261722   0.128   5.303   4.259 -0.1088 -0.0991 -0.7562
13436TIP3    H161723   0.207   5.357   4.262  0.2794 -0.7324  0.7532
13436TIP3    H261724   0.107   5.296   4.166  0.5165  1.6566 -1.0433
13437TIP3   OH261725   4.560   5.952  15.716 -0.4450  0.3780  0.4346
13437TIP3    H161726   4.568   5.892  15.790  1.6422  1.7954  1.4255
13437TIP3    H261727   4.607   5.910  15.644 -0.0364  0.2684  0.7663
13438TIP3   OH261728   1.960   5.106   1.964 -0.0003  0.2439 -0.0099
13438TIP3    H161729   1.872   5.089   1.928  0.1735 -0.2884 -0.1862
13438TIP3    H261730   1.944   5.161   2.040 -0.5117  0.0043  0.0617
13439TIP3   OH261731   1.710   4.827   6.591  0.1584 -0.0040  0.4750
13439TIP3    H161732   1.731   4.844   6.683 -2.4600  1.2517  0.8850
13439TIP3    H261733   1.757   4.746   6.571  0.1971 -0.6987  3.1438
13440TIP3   OH261734   3.204   2.526  14.547 -0.2365  0.1794  0.0595
13440TIP3    H161735   3.192   2.542  14.454 -1.5740 -0.3384  0.1282
13440TIP3    H261736   3.127   2.476  14.573 -0.0863  0.6751  1.5338
13441TIP3   OH261737   5.532   1.576   0.050 -0.0199  0.0161 -0.3565
13441TIP3    H161738   5.503   1.635  -0.019 -0.6010 -0.6439 -0.6921
13441TIP3    H261739   5.560   1.497   0.004 -1.0945 -0.7093  0.1901
13442TIP3   OH261740   0.869   5.882  16.697 -0.0982  0.1095 -0.0831
13442TIP3    H161741   0.898   5.846  16.613  0.0211  1.3744 -0.5922
13442TIP3    H261742   0.945   5.928  16.732 -0.2930  0.0018  0.4943
13443TIP3   OH261743   5.610   0.484  12.650 -0.4081  0.6768  0.3032
13443TIP3    H161744   5.646   0.570  12.669  1.1817 -0.0350  0.5947
13443TIP3    H261745   5.623   0.472  12.556  0.3423  0.3258  0.4484
13444TIP3   OH261746   3.935   0.696  13.815 -0.4782  0.0505  0.0680
13444TIP3    H161747   4.017   0.678  13.861  0.4561  1.2278 -1.1188
13444TIP3    H261748   3.875   0.726  13.884  0.4729  0.4202  0.7430
13445TIP3   OH261749   1.696   3.305  15.342 -0.3255  0.3809  0.8133
13445TIP3    H161750   1.659   3.228  15.386 -0.9384  0.1245 -0.1417
13445TIP3    H261751   1.664   3.299  15.252  0.1144  1.4357  0.5821
13446TIP3   OH261752   2.095   2.398   5.475 -0.0458 -0.3338  0.8836
13446TIP3    H161753   2.088   2.365   5.385  1.2305 -2.0264  1.3759
13446TIP3    H261754   2.048   2.334   5.528 -1.8501  1.2956  1.3145
13447TIP3   OH261755   6.661   4.193   4.159  0.1514 -0.3602 -0.4947
13447TIP3    H161756   6.598   4.167   4.226 -0.2746  1.0184 -0.3565
13447TIP3    H261757   6.685   4.111   4.116  0.4210 -1.2831  1.3264
13448TIP3   OH261758   3.118   4.291  12.433  0.4594  0.5007  0.5062
13448TIP3    H161759   3.200   4.244  12.450 -1.5882 -1.9594  4.2370
13448TIP3    H261760   3.104   4.343  12.512 -3.1811 -1.6560  1.3787
13449TIP3   OH261761   1.608   2.387  12.919 -0.3835  0.1533  0.3352
13449TIP3    H161762   1.636   2.316  12.861 -1.2355  0.8775 -0.9830
13449TIP3    H261763   1.525   2.357  12.956  0.2186 -0.3610  1.3023
13450TIP3   OH261764   1.860   3.041  10.814  0.1249 -0.0436 -0.5504
13450TIP3    H161765   1.829   2.990  10.739 -1.8420  0.7200 -0.3018
13450TIP3    H261766   1.809   3.122  10.810  0.6318  0.3712  1.0942
13451TIP3   OH261767   1.976   3.193   5.648  0.6236 -0.7560 -0.0858
13451TIP3    H161768   1.982   3.101   5.621  1.4932 -0.5214 -0.7281
13451TIP3    H261769   2.066   3.216   5.672  1.2702  1.1430 -4.0466
13452TIP3   OH261770   1.077   6.427  14.649  0.1594 -0.1657  0.4579
13452TIP3    H161771   1.010   6.486  14.685  1.6833  2.7390 -1.3545
13452TIP3    H261772   1.028   6.367  14.592 -1.0336  1.2656 -0.0427
13453TIP3   OH261773   0.991   6.631   4.861  0.5617  0.2342  0.1720
13453TIP3    H161774   0.969   6.714   4.904 -0.3664 -0.5817  1.3029
13453TIP3    H261775   1.087   6.625   4.870  0.6008  1.0155  0.3906
13454TIP3   OH261776   2.460   0.726  13.646 -1.2709  0.2192 -0.1478
13454TIP3    H161777   2.450   0.631  13.644  2.2649 -0.2128 -1.2435
13454TIP3    H261778   2.454   0.749  13.739 -0.8913 -1.2704  0.2481
13455TIP3   OH261779   3.931   2.550  13.378  0.7635  0.0584 -0.1477
13455TIP3    H161780   3.847   2.526  13.338  1.4773 -1.0497 -1.0110
13455TIP3    H261781   3.923   2.643  13.397 -0.7679 -0.0998  0.0364
13456TIP3   OH261782   4.814   0.435  11.350 -0.0562 -0.2359 -0.0803
13456TIP3    H161783   4.804   0.527  11.324  1.6398 -0.1618 -0.5618
13456TIP3    H261784   4.879   0.438  11.421  0.8461 -1.1584 -0.8563
13457TIP3   OH261785   0.679   3.553  16.889 -0.1386 -0.0224 -0.1765
13457TIP3    H161786   0.654   3.526  16.977  0.6776 -2.3649 -0.6227
13457TIP3    H261787   0.600   3.538  16.837 -0.1893  0.0248 -0.1128
13458TIP3   OH261788   0.835   2.795   1.327  0.0553  0.2429 -0.4602
13458TIP3    H161789   0.814   2.711   1.287  0.0574 -0.4964  1.0450
13458TIP3    H261790   0.767   2.855   1.295 -1.1326 -0.8141  0.0491
13459TIP3   OH261791   2.529   3.544   5.153  0.4689  0.0016  0.7401
13459TIP3    H161792   2.513   3.528   5.060  0.3120 -0.0270  0.7714
13459TIP3    H261793   2.443   3.535   5.194  0.1741  2.1080  0.6023
13460TIP3   OH261794   0.523   3.518  10.606 -0.2613  0.0861 -0.1087
13460TIP3    H161795   0.448   3.530  10.664 -1.2303 -0.8384 -1.1774
13460TIP3    H261796   0.504   3.439  10.556  2.3672 -1.3456  1.0600
13461TIP3   OH261797   2.449   4.577   3.503 -0.1788 -0.2067  0.4052
13461TIP3    H161798   2.411   4.571   3.590 -0.5899  1.5196  0.3535
13461TIP3    H261799   2.505   4.654   3.505 -0.8608  0.3635 -1.0925
13462TIP3   OH261800   0.240   0.105  13.454  0.1009 -0.3226  0.5175
13462TIP3    H161801   0.190   0.030  13.422  0.7159 -0.4682 -0.1049
13462TIP3    H261802   0.199   0.181  13.412 -0.1403 -0.3595  0.6825
13463TIP3   OH261803   2.815   1.840   4.886  0.4681 -0.0872  1.0029
13463TIP3    H161804   2.754   1.914   4.879  1.2268  0.2785 -2.5891
13463TIP3    H261805   2.901   1.877   4.866  1.1184 -1.6280  0.8456
13464TIP3   OH261806   5.004   5.527   1.220  0.2888  0.4195 -0.3740
13464TIP3    H161807   5.016   5.436   1.249  1.1591  0.8110  0.4940
13464TIP3    H261808   4.951   5.568   1.289 -0.0054  0.6070 -0.7089
13465TIP3   OH261809   6.429   4.795  11.601  0.0912 -0.1125 -0.5286
13465TIP3    H161810   6.460   4.751  11.680 -2.3727 -2.2908 -0.7234
13465TIP3    H261811   6.426   4.888  11.625  0.1515 -0.6619  1.6626
13466TIP3   OH261812   1.293   2.015  15.157 -0.2549  0.3723 -0.7427
13466TIP3    H161813   1.322   1.968  15.078  0.0246 -0.0857 -0.3726
13466TIP3    H261814   1.370   2.065  15.184 -0.7064  1.4713 -1.4328
13467TIP3   OH261815   1.338   2.665  13.948  0.3549  0.3012  0.0348
13467TIP3    H161816   1.322   2.661  13.854 -0.4308  1.6119  0.1018
13467TIP3    H261817   1.304   2.582  13.982  0.5364 -0.1287 -0.8184
13468TIP3   OH261818   6.064   0.179  16.867  0.0265 -0.1778  0.0997
13468TIP3    H161819   6.120   0.133  16.929 -0.3345 -1.5029 -0.5250
13468TIP3    H261820   6.079   0.134  16.783 -1.9088 -0.5344 -0.0817
13469TIP3   OH261821   3.795   5.023  16.807 -0.1964 -0.0798 -0.1551
13469TIP3    H161822   3.763   5.079  16.877  1.3073  0.3402  0.2266
13469TIP3    H261823   3.735   4.949  16.806 -0.4291  0.0659  1.3733
13470TIP3   OH261824   5.273   6.158  16.497 -0.3055  0.3335  0.1011
13470TIP3    H161825   5.287   6.236  16.551  0.9749  0.6089 -0.6182
13470TIP3    H261826   5.354   6.147  16.449 -0.1794 -1.9076  0.7743
13471TIP3   OH261827   1.609   4.911   0.506 -0.9034 -0.0618 -0.0542
13471TIP3    H161828   1.576   5.000   0.493  0.1606  0.4606  0.6864
13471TIP3    H261829   1.626   4.905   0.600 -1.9302 -1.4011  0.0477
13472TIP3   OH261830   6.466   1.700  14.787  0.5908 -0.4142 -0.0109
13472TIP3    H161831   6.417   1.782  14.794  0.9802 -0.2424  0.7347
13472TIP3    H261832   6.539   1.710  14.849  0.2114 -1.6299  0.6532
13473TIP3   OH261833   0.573   2.583   0.464  0.5454  0.0761 -0.2697
13473TIP3    H161834   0.525   2.626   0.535  2.4775  1.4039  0.2652
13473TIP3    H261835   0.555   2.635   0.386 -0.6307 -0.7046 -0.5328
13474TIP3   OH261836   1.392   5.743   2.382  0.0649  0.3820  0.0371
13474TIP3    H161837   1.445   5.764   2.305 -0.7872 -0.7159 -0.8652
13474TIP3    H261838   1.381   5.648   2.379 -2.3502  0.6331 -0.0583
13475TIP3   OH261839   4.843   2.941   3.609  0.5626 -0.0054 -0.3413
13475TIP3    H161840   4.841   2.965   3.702  0.9079 -0.8845 -0.0991
13475TIP3    H261841   4.849   3.024   3.563 -1.4457  0.5535  0.3603
13476TIP3   OH261842   6.733   3.985   2.917 -0.8059  0.1640 -0.3590
13476TIP3    H161843   6.678   3.956   2.989 -0.1040 -1.6251 -0.5246
13476TIP3    H261844   6.805   3.922   2.914  2.8925  4.0451  1.6999
13477TIP3   OH261845   4.075   3.146  15.501 -0.2714 -0.2726  0.0780
13477TIP3    H161846   4.052   3.054  15.491 -1.2391  0.0788 -1.0137
13477TIP3    H261847   4.013   3.179  15.566 -0.3083 -0.2477  0.0290
13478TIP3   OH261848   1.935   3.910  12.553  0.5300 -0.1150  0.1142
13478TIP3    H161849   1.868   3.856  12.511 -0.4264  0.4539  0.9165
13478TIP3    H261850   1.991   3.847  12.599 -0.2283 -0.4786  0.5455
13479TIP3   OH261851   6.262   6.027   0.389 -0.1792  0.7170 -0.7483
13479TIP3    H161852   6.342   6.016   0.440 -0.8893 -2.2997 -0.1944
13479TIP3    H261853   6.203   6.074   0.447 -0.1046 -0.4502  0.3046
13480TIP3   OH261854   4.144   4.237   4.247 -0.0097 -0.4914  0.2172
13480TIP3    H161855   4.182   4.308   4.194 -0.9002 -1.3273 -1.5918
13480TIP3    H261856   4.168   4.260   4.337  2.5151  0.3904 -0.6081
13481TIP3   OH261857   2.854   3.097  13.896 -0.1586  0.5209 -0.0831
13481TIP3    H161858   2.893   3.178  13.861  0.1716  0.5828  0.4198
13481TIP3    H261859   2.760   3.113  13.895 -0.0677  1.1108  0.4901
13482TIP3   OH261860   0.591   4.228  12.099 -0.1298 -0.1058 -0.2049
13482TIP3    H161861   0.554   4.177  12.171  0.1508 -2.1452 -1.4575
13482TIP3    H261862   0.583   4.171  12.023  3.1269  0.4643 -1.0455
13483TIP3   OH261863   6.029   1.160  14.794 -0.5346  0.2547  0.3041
13483TIP3    H161864   6.030   1.172  14.699 -2.0326 -1.5137  0.0427
13483TIP3    H261865   6.098   1.219  14.826  1.7916 -1.0532 -2.0942
13484TIP3   OH261866   1.536   0.405  13.526 -0.0282  0.1315 -0.0933
13484TIP3    H161867   1.609   0.446  13.573 -1.1268  0.5177  1.3280
13484TIP3    H261868   1.526   0.320  13.569 -0.6733  0.2564  0.0131
13485TIP3   OH261869   2.828   3.614   4.127 -0.1290  0.6072  0.4730
13485TIP3    H161870   2.896   3.678   4.106  1.0054 -0.6033  0.3452
13485TIP3    H261871   2.797   3.639   4.214 -1.0593  2.4507 -0.3708
13486TIP3   OH261872   4.950   0.877  11.869 -0.3566 -0.1973 -0.4352
13486TIP3    H161873   4.934   0.963  11.909  0.4683 -0.0148 -0.4731
13486TIP3    H261874   5.017   0.894  11.803  0.2265 -0.9632 -0.0544
13487TIP3   OH261875   1.708   5.919   5.135 -0.2155  0.3998  0.5734
13487TIP3    H161876   1.746   5.856   5.197 -0.8251  1.1517  1.7343
13487TIP3    H261877   1.762   5.997   5.145  0.6382  0.0305 -0.9804
13488TIP3   OH261878   1.308   4.796   0.687  0.6108 -0.5636  0.0197
13488TIP3    H161879   1.319   4.801   0.592  0.0227  0.3545 -0.0105
13488TIP3    H261880   1.216   4.774   0.699  0.4495  0.3104  0.3922
13489TIP3   OH261881   4.582   1.955   5.074 -0.5030  0.1173 -0.2089
13489TIP3    H161882   4.595   1.861   5.062  0.3246  0.1336  0.5209
13489TIP3    H261883   4.488   1.964   5.090 -0.4774 -0.6551  0.4094
13490TIP3   OH261884   4.821   1.315   5.167 -0.0178 -0.5999 -0.3990
13490TIP3    H161885   4.865   1.231   5.152  1.9590 -0.0693  2.1382
13490TIP3    H261886   4.891   1.377   5.184 -1.5697  1.1502 -0.1751
13491TIP3   OH261887   3.064   2.902   0.997  0.4121  0.3525 -0.5354
13491TIP3    H161888   3.077   2.808   1.012 -0.9792  0.2251 -0.0918
13491TIP3    H261889   2.990   2.908   0.938 -1.7144  1.2432  2.0881
13492TIP3   OH261890   0.489   0.489   2.464 -0.0070 -0.1076  0.2644
13492TIP3    H161891   0.568   0.440   2.485 -0.7420 -1.6663 -0.4934
13492TIP3    H261892   0.431   0.424   2.423 -1.4190  1.1530  0.2227
13493TIP3   OH261893   2.472   1.803  12.421 -0.5891 -0.1229 -0.0230
13493TIP3    H161894   2.418   1.856  12.479 -0.5301 -0.6396  0.5040
13493TIP3    H261895   2.552   1.785  12.471 -0.1567  0.1746 -0.5917
13494TIP3   OH261896   0.712   0.965   4.831 -0.2566 -0.0450  0.7016
13494TIP3    H161897   0.730   0.976   4.738 -1.6179 -1.0092  0.3105
13494TIP3    H261898   0.764   1.034   4.874 -3.5227  3.8085 -1.1560
13495TIP3   OH261899   6.669   1.458   0.128 -0.0043 -0.1554  0.0248
13495TIP3    H161900   6.596   1.405   0.096 -0.8949  1.0179  0.0882
13495TIP3    H261901   6.734   1.455   0.058 -0.2912 -0.8246 -0.2234
13496TIP3   OH261902   0.197   3.707  17.067 -0.1669  0.2165 -1.1842
13496TIP3    H161903   0.159   3.791  17.093 -1.9084 -0.5162 -1.2757
13496TIP3    H261904   0.280   3.703  17.114 -0.8099  1.2799  0.0970
13497TIP3   OH261905   5.246   2.440  16.433  0.2560  0.1831  0.5518
13497TIP3    H161906   5.260   2.465  16.341  1.2541 -0.9385  0.3855
13497TIP3    H261907   5.319   2.381  16.453 -0.4573 -0.2813  1.8093
13498TIP3   OH261908   2.256   0.945  17.215 -0.0295  0.3950 -0.0542
13498TIP3    H161909   2.214   0.908  17.293 -2.0148  0.8894 -0.8495
13498TIP3    H261910   2.350   0.933  17.230 -0.5160 -2.8964  0.7094
13499TIP3   OH261911   1.720   2.966  10.543 -0.6348 -0.2323  0.0703
13499TIP3    H161912   1.814   2.985  10.537 -0.1073 -1.6621  2.8746
13499TIP3    H261913   1.707   2.889  10.488  0.1775 -1.0158  0.9534
13500TIP3   OH261914   5.110   0.112  12.993  0.1308  0.0011  0.9652
13500TIP3    H161915   5.052   0.065  13.053  0.4655 -1.2053  0.3661
13500TIP3    H261916   5.196   0.072  13.007  0.3436  0.1740  0.1709
13501TIP3   OH261917   3.734   4.130  11.487  0.2280  0.7259  0.3678
13501TIP3    H161918   3.687   4.188  11.547 -2.5592 -2.0502  0.9683
13501TIP3    H261919   3.669   4.065  11.461  2.6764 -0.8290 -2.0286
13502TIP3   OH261920   4.933   0.194  15.167 -0.3175  0.3423 -0.3279
13502TIP3    H161921   4.977   0.234  15.091  1.3641 -1.5823 -0.3978
13502TIP3    H261922   4.980   0.229  15.243  0.9653 -1.2196 -0.3787
13503TIP3   OH261923   0.203   1.073  15.988 -0.7260  1.0703 -0.5283
13503TIP3    H161924   0.174   1.067  16.079  1.4138  1.5683  0.2074
13503TIP3    H261925   0.139   1.131  15.946 -2.3098  0.0151  0.3890
13504TIP3   OH261926   1.368   6.559   0.496 -0.3610 -0.4505 -0.1968
13504TIP3    H161927   1.421   6.606   0.433 -0.3829 -0.1811 -0.0146
13504TIP3    H261928   1.384   6.603   0.579 -1.2286 -0.0804 -0.2250
13505TIP3   OH261929   5.059   3.533   4.948 -0.1070 -0.0320 -0.0665
13505TIP3    H161930   5.136   3.512   5.000  0.2729  0.7231 -0.3138
13505TIP3    H261931   5.080   3.501   4.860 -0.0569  0.2098 -0.1434
13506TIP3   OH261932   3.695   1.321  15.045  0.3751  0.0566 -0.2931
13506TIP3    H161933   3.672   1.412  15.027 -0.7600 -0.1111  0.2186
13506TIP3    H261934   3.689   1.313  15.140 -0.9843 -0.9015 -0.4390
13507TIP3   OH261935   1.782   0.340  11.782 -0.3945 -0.2108 -0.3367
13507TIP3    H161936   1.814   0.423  11.818 -1.8544  0.1513  0.1953
13507TIP3    H261937   1.848   0.276  11.806  0.6324  0.7623 -0.5334
13508TIP3   OH261938   5.139   4.587   2.832  0.3694  0.1667 -0.0749
13508TIP3    H161939   5.057   4.536   2.829  0.7718 -0.4877 -0.0766
13508TIP3    H261940   5.204   4.526   2.866  0.4933  1.1975  1.6034
13509TIP3   OH261941   0.424   2.420   3.642 -0.3324  0.4726  0.6471
13509TIP3    H161942   0.463   2.333   3.648 -0.1260  0.5002 -0.1733
13509TIP3    H261943   0.359   2.412   3.573 -0.8816  0.7633  1.1296
13510TIP3   OH261944   2.060   0.813   4.191  0.0404 -0.3175  0.1450
13510TIP3    H161945   1.968   0.837   4.198 -0.3289 -0.9227 -2.2753
13510TIP3    H261946   2.105   0.893   4.163  0.0725 -0.3462  0.1138
13511TIP3   OH261947   2.146   6.176  10.414 -0.6739  0.0029  0.0549
13511TIP3    H161948   2.128   6.082  10.407 -0.7455  0.0857 -1.0045
13511TIP3    H261949   2.173   6.202  10.326 -2.3288  1.3203 -0.0839
13512TIP3   OH261950   4.443   6.107  11.899  0.0523 -0.3917 -0.1520
13512TIP3    H161951   4.481   6.150  11.822 -1.5684 -0.1176 -0.8152
13512TIP3    H261952   4.369   6.163  11.924 -0.4634 -1.3855  0.5705
13513TIP3   OH261953   1.900   2.789  10.964  0.6406 -0.2626 -0.2995
13513TIP3    H161954   1.940   2.873  10.939  0.6750 -0.4648 -0.9326
13513TIP3    H261955   1.809   2.797  10.937  0.5340 -0.2543  0.0642
13514TIP3   OH261956   3.683   3.527  10.946 -0.3818 -0.1603 -0.2768
13514TIP3    H161957   3.616   3.566  11.003  0.1241  0.3890 -0.0469
13514TIP3    H261958   3.674   3.575  10.863  0.2917  0.5095  0.0308
13515TIP3   OH261959   3.120   0.137   1.713  0.6676  0.7468  0.4755
13515TIP3    H161960   3.041   0.183   1.742  0.4569  0.7461 -0.1136
13515TIP3    H261961   3.093   0.046   1.703  0.9357  0.5996  1.0258
13516TIP3   OH261962   5.084   0.599   2.071  0.0758 -0.5053 -0.3409
13516TIP3    H161963   5.073   0.663   2.001  0.8154  0.2598  0.2346
13516TIP3    H261964   5.104   0.517   2.025  1.9325  0.2898 -0.9966
13517TIP3   OH261965   5.335   4.404   2.959  0.5311 -0.1059  0.0752
13517TIP3    H161966   5.335   4.458   3.038 -1.8815  0.7544 -0.4744
13517TIP3    H261967   5.426   4.378   2.948  1.1304  0.8675  2.3847
13518TIP3   OH261968   4.212   6.216  14.864 -0.3636 -0.3457  0.5669
13518TIP3    H161969   4.234   6.292  14.916  1.4883  0.1566 -0.9130
13518TIP3    H261970   4.160   6.251  14.791 -1.4880 -0.8270  1.1122
13519TIP3   OH261971   3.185   4.945  12.332  0.5204  0.0499  0.4557
13519TIP3    H161972   3.175   4.948  12.427 -0.5855 -0.8301  0.3761
13519TIP3    H261973   3.140   4.865  12.306 -0.4821  1.0602 -0.9665
13520TIP3   OH261974   2.670   1.301   5.700  0.3554  0.2431 -0.1169
13520TIP3    H161975   2.717   1.260   5.627 -0.6148  0.6588 -0.9922
13520TIP3    H261976   2.732   1.301   5.772  1.2928 -0.2828 -0.9154
13521TIP3   OH261977   3.395   1.020   2.423  0.1632 -0.3393  0.2055
13521TIP3    H161978   3.325   0.994   2.363 -0.1797 -0.5110  0.6730
13521TIP3    H261979   3.457   1.068   2.369  0.8923 -2.2605 -0.7218
13522TIP3   OH261980   0.747   4.607   0.618 -0.0566  0.2136 -0.5073
13522TIP3    H161981   0.692   4.631   0.693  1.4479  2.3734 -0.0387
13522TIP3    H261982   0.686   4.602   0.544 -0.8937  2.8599 -0.0651
13523TIP3   OH261983   1.042   1.654  14.022  0.1081 -0.2791 -1.0250
13523TIP3    H161984   1.114   1.642  13.959  2.1148 -3.6068  1.7526
13523TIP3    H261985   0.999   1.569  14.026  0.3731 -0.3163  2.5129
13524TIP3   OH261986   2.430   5.457   3.215  0.9886  0.5177  0.0826
13524TIP3    H161987   2.378   5.442   3.137 -0.6835 -2.5802  1.7039
13524TIP3    H261988   2.497   5.519   3.187  0.3633 -0.3827 -3.7692
13525TIP3   OH261989   0.665   2.074  14.982  0.5600 -0.1388  0.2039
13525TIP3    H161990   0.686   2.080  15.075  0.6699 -0.3972  0.1957
13525TIP3    H261991   0.672   2.163  14.949 -0.6820  0.1454  0.7036
13526TIP3   OH261992   4.164   5.810  13.979  0.1466  0.0390  0.2533
13526TIP3    H161993   4.167   5.847  14.068  0.4778 -1.6844  0.9780
13526TIP3    H261994   4.085   5.849  13.940 -0.9334 -0.4348  1.8908
13527TIP3   OH261995   0.389   3.484   2.037 -0.1785 -0.2807 -0.4697
13527TIP3    H161996   0.365   3.393   2.056  0.1643 -0.3365 -0.2952
13527TIP3    H261997   0.484   3.486   2.045 -0.1890  0.1091 -0.4169
13528TIP3   OH261998   5.069   2.617  12.404 -0.4139  0.4372  0.2434
13528TIP3    H161999   5.102   2.654  12.322  1.5255  0.0827  0.8196
13528TIP3    H262000   5.013   2.544  12.378 -1.3927  1.5687 -0.8094
13529TIP3   OH262001   6.366   5.515   1.408 -0.5449 -0.0169 -1.1816
13529TIP3    H162002   6.362   5.434   1.459  0.8409  0.0213 -0.9800
13529TIP3    H262003   6.449   5.509   1.361 -0.1802  1.5118 -0.7676
13530TIP3   OH262004   1.251   0.683   2.326  0.0009 -0.0132 -0.2892
13530TIP3    H162005   1.250   0.740   2.403  0.2920 -0.1689 -0.1665
13530TIP3    H262006   1.161   0.684   2.294 -0.7130 -1.9169  1.5084
13531TIP3   OH262007   2.048   5.940   0.434 -1.0223  0.0662 -0.1774
13531TIP3    H162008   1.959   5.969   0.453 -1.5091 -0.5281 -1.4400
13531TIP3    H262009   2.046   5.915   0.341  0.6987  0.9623 -0.4835
13532TIP3   OH262010   4.986   4.754   4.209  0.0272  0.1908  0.0955
13532TIP3    H162011   4.903   4.722   4.174 -0.1078  0.4740  0.1588
13532TIP3    H262012   5.028   4.676   4.245 -0.1931  0.0416  0.0314
13533TIP3   OH262013   6.053   0.242  15.375  0.2707  0.7688  0.4336
13533TIP3    H162014   6.011   0.261  15.291  1.7687  1.5742 -0.1603
13533TIP3    H262015   6.133   0.194  15.352 -0.6953 -1.4576  1.5877
13534TIP3   OH262016   0.358   1.318  17.161 -0.1625  0.2935 -0.2003
13534TIP3    H162017   0.410   1.250  17.119 -0.5176  1.6873 -3.0254
13534TIP3    H262018   0.421   1.389  17.178 -0.2175  0.1272  0.6854
13535TIP3   OH262019   3.249   6.458   2.967 -0.0228  0.0175 -0.1629
13535TIP3    H162020   3.336   6.434   2.998  0.2408 -1.0246 -1.6222
13535TIP3    H262021   3.189   6.403   3.016  0.2241 -0.0114  0.1037
13536TIP3   OH262022   1.756   3.124   0.999 -0.2731  0.4268  0.1477
13536TIP3    H162023   1.662   3.139   1.002 -0.1332  1.2361  0.8320
13536TIP3    H262024   1.771   3.058   1.067 -0.3849  0.1034 -0.1444
13537TIP3   OH262025   2.240   1.224  13.480 -0.5151  1.1823 -0.4251
13537TIP3    H162026   2.313   1.167  13.455  0.0573  1.2264  1.0725
13537TIP3    H262027   2.272   1.270  13.558 -2.5928  0.2712  0.9965
13538TIP3   OH262028   1.086   5.834  14.555  0.0528  0.0181 -0.2551
13538TIP3    H162029   1.036   5.893  14.499 -0.0667  0.1132 -0.0502
13538TIP3    H262030   1.171   5.827  14.513  0.4049  1.1375  0.2479
13539TIP3   OH262031   1.022   4.487   2.444 -0.6751 -0.1661 -0.2336
13539TIP3    H162032   0.979   4.523   2.366 -0.5324  0.4989 -0.0061
13539TIP3    H262033   1.103   4.537   2.452 -0.7847 -0.0940  0.4599
13540TIP3   OH262034   6.667   6.376  15.071 -0.1815 -0.0683  0.7022
13540TIP3    H162035   6.702   6.405  15.156 -0.7605  0.6624  0.7047
13540TIP3    H262036   6.574   6.360  15.088 -0.5517  1.1809 -0.0426
13541TIP3   OH262037   5.322   4.106  16.521 -0.4451 -0.5688 -0.6064
13541TIP3    H162038   5.347   4.097  16.613  1.5998 -1.3649 -1.2061
13541TIP3    H262039   5.244   4.162  16.522  0.6417  0.9811  1.4755
13542TIP3   OH262040   1.600   5.392  11.954  0.3002 -0.2251 -0.2179
13542TIP3    H162041   1.641   5.388  11.868  0.7569  1.5437 -0.0841
13542TIP3    H262042   1.595   5.300  11.982  1.4402 -0.6958 -1.5026
13543TIP3   OH262043   6.133   4.615   4.183  0.6264 -0.0087  0.4680
13543TIP3    H162044   6.219   4.617   4.226 -0.0588  1.3391  1.8329
13543TIP3    H262045   6.070   4.626   4.255 -0.6291  0.4578 -0.6781
13544TIP3   OH262046   2.897   4.141  14.724  0.3932  0.2385  0.2096
13544TIP3    H162047   2.802   4.137  14.728  0.4127 -0.8177 -0.0188
13544TIP3    H262048   2.926   4.094  14.803  0.7198 -0.0744 -0.0943
13545TIP3   OH262049   4.933   1.645   1.535  0.1197  0.1547 -0.1675
13545TIP3    H162050   4.860   1.632   1.474  2.0549  0.5305 -2.6614
13545TIP3    H262051   4.892   1.653   1.621 -2.7288 -0.0677 -1.4616
13546TIP3   OH262052   1.498   6.112  13.176 -0.0941 -0.3460  0.1382
13546TIP3    H162053   1.528   6.170  13.105  1.7412 -1.5878 -0.1185
13546TIP3    H262054   1.574   6.059  13.197 -0.8179 -0.4184  2.6488
13547TIP3   OH262055   4.111   2.661  14.658 -0.2335 -0.6112 -0.2901
13547TIP3    H162056   4.175   2.631  14.724  2.1861 -0.2598 -2.4226
13547TIP3    H262057   4.050   2.715  14.708  0.8840 -1.2633  1.8889
13548TIP3   OH262058   6.698   6.094   4.853  0.2407  0.7651 -0.4390
13548TIP3    H162059   6.787   6.069   4.828 -0.2622 -0.9440 -0.6228
13548TIP3    H262060   6.699   6.092   4.948  0.4988  1.0887 -0.4355
13549TIP3   OH262061   2.472   6.322  12.673 -0.4821 -0.3351 -0.3275
13549TIP3    H162062   2.426   6.379  12.735  0.0634 -0.1087 -0.1234
13549TIP3    H262063   2.465   6.367  12.589 -0.4501 -0.1911 -0.2545
13550TIP3   OH262064   4.390   2.864  14.973 -0.2844  0.0315  0.6101
13550TIP3    H162065   4.452   2.794  14.992  0.5602  0.6629  0.1976
13550TIP3    H262066   4.440   2.945  14.987 -0.6262  0.5430 -1.0047
13551TIP3   OH262067   5.291   4.044  11.635 -0.4538  0.2971  0.2277
13551TIP3    H162068   5.287   4.064  11.542 -0.5219  0.4613  0.2659
13551TIP3    H262069   5.261   3.954  11.642  1.2802 -0.3199 -0.1105
13552TIP3   OH262070   6.497   4.608   0.451  0.1324  0.1612 -0.2467
13552TIP3    H162071   6.556   4.534   0.466  0.0111 -0.0765 -0.9080
13552TIP3    H262072   6.548   4.669   0.397 -0.0282  0.2184 -0.3343
13553TIP3   OH262073   6.746   0.369   3.574  0.0130  0.0314 -0.1100
13553TIP3    H162074   6.840   0.352   3.575  0.3818  1.8799 -0.4238
13553TIP3    H262075   6.714   0.328   3.494  0.6521 -0.1321 -0.2804
13554TIP3   OH262076   1.529   4.574  13.333  0.1603  0.2273  0.1104
13554TIP3    H162077   1.434   4.564  13.320 -0.1122  3.3400 -0.5088
13554TIP3    H262078   1.538   4.587  13.428 -0.1335  0.7813  0.0681
13555TIP3   OH262079   3.603   3.529   1.808  0.3712  0.0585  0.2476
13555TIP3    H162080   3.660   3.586   1.860 -1.6252  0.8321  1.6321
13555TIP3    H262081   3.528   3.511   1.864 -0.9832 -0.5759 -1.6953
13556TIP3   OH262082   4.405   4.601   3.039 -0.7219 -0.3336  0.1970
13556TIP3    H162083   4.470   4.541   3.077 -1.9879 -0.2710  2.5448
13556TIP3    H262084   4.426   4.602   2.945  0.5695 -2.9048  0.3971
13557TIP3   OH262085   4.285   2.481  15.200 -0.8503  0.4209 -0.2092
13557TIP3    H162086   4.299   2.513  15.111 -2.9232  1.0730 -0.3262
13557TIP3    H262087   4.236   2.400  15.189 -2.5488  1.3564  0.3887
13558TIP3   OH262088   5.737   0.513   4.068 -0.0185  0.2650  0.5150
13558TIP3    H162089   5.698   0.429   4.044  0.8247  0.0559 -0.1800
13558TIP3    H262090   5.831   0.495   4.072  0.1274  1.0638  0.8533
13559TIP3   OH262091   5.223   5.843  12.650 -0.1980  0.0958 -0.0181
13559TIP3    H162092   5.157   5.783  12.686 -0.2617 -1.2564 -2.2704
13559TIP3    H262093   5.185   5.872  12.567  0.2452  2.5804  0.6097
13560TIP3   OH262094   2.214   4.121   6.091  0.5512  0.6915 -0.3273
13560TIP3    H162095   2.285   4.134   6.154 -0.3821 -0.1936  0.9345
13560TIP3    H262096   2.217   4.028   6.070  0.1810  0.7767 -0.7629
13561TIP3   OH262097   5.383   3.200   0.764 -0.1432  0.5332  0.4605
13561TIP3    H162098   5.419   3.124   0.811 -2.6994 -1.2252 -0.3241
13561TIP3    H262099   5.450   3.220   0.698  1.2700 -0.0558  1.6884
13562TIP3   OH262100   2.674   6.441   3.559 -0.4528  0.0821  0.2986
13562TIP3    H162101   2.694   6.356   3.598 -0.1933 -0.3350 -0.7099
13562TIP3    H262102   2.581   6.435   3.534  0.4747 -1.3400 -3.1821
13563TIP3   OH262103   5.091   1.934  12.439  0.5626 -0.3628 -0.1958
13563TIP3    H162104   5.068   2.001  12.374 -1.6381 -1.6333 -0.7865
13563TIP3    H262105   5.112   1.983  12.518 -0.3844  1.0612 -0.8118
13564TIP3   OH262106   4.549   6.752  15.498  0.0455 -0.3391 -0.7686
13564TIP3    H162107   4.609   6.684  15.528  1.3404  1.1244  0.0641
13564TIP3    H262108   4.486   6.706  15.443 -0.2086 -2.5227  1.2492
13565TIP3   OH262109   1.939   4.577   1.158  0.2273  0.7454 -0.2146
13565TIP3    H162110   1.949   4.516   1.231  0.7084 -0.9185 -1.6188
13565TIP3    H262111   1.847   4.570   1.133  0.4809 -0.1117 -0.9467
13566TIP3   OH262112   3.663   5.910  15.045  0.9440 -0.2847 -0.1713
13566TIP3    H162113   3.619   5.947  14.969  0.3428 -1.2210 -0.2884
13566TIP3    H262114   3.595   5.909  15.113  1.3778  0.2227  0.2691
13567TIP3   OH262115   4.704   5.847  15.512  0.2397 -0.3106 -0.4591
13567TIP3    H162116   4.741   5.802  15.436 -0.4378  0.7358 -1.4341
13567TIP3    H262117   4.757   5.926  15.522 -0.5851  0.2973 -0.7686
13568TIP3   OH262118   2.793   5.343   5.709 -0.3161  0.0006 -0.3347
13568TIP3    H162119   2.710   5.327   5.665  0.0336 -0.5799 -0.8031
13568TIP3    H262120   2.775   5.331   5.802 -0.7835  0.0048 -0.4252
13569TIP3   OH262121   1.280   4.309   3.615  0.0855  0.0264  0.3470
13569TIP3    H162122   1.208   4.367   3.590 -1.1344 -1.3207  0.6440
13569TIP3    H262123   1.343   4.318   3.543 -1.3192 -0.3318 -0.9721
13570TIP3   OH262124   4.739   3.188  16.717 -0.6533 -0.2224  0.4760
13570TIP3    H162125   4.653   3.216  16.748 -0.0364  2.3978 -0.1117
13570TIP3    H262126   4.791   3.268  16.711  0.4746 -1.1254 -3.5102
13571TIP3   OH262127   3.246   3.247   3.289  0.0467 -0.1061  0.3717
13571TIP3    H162128   3.297   3.173   3.255  1.5534  0.8262  0.5654
13571TIP3    H262129   3.172   3.254   3.229  2.0010  0.7259 -2.0035
13572TIP3   OH262130   4.950   2.475   0.190  0.5087  0.8462 -0.4247
13572TIP3    H162131   5.007   2.475   0.267  1.6562 -0.1658 -1.2425
13572TIP3    H262132   4.875   2.529   0.215  0.6144  0.1100  1.5703
13573TIP3   OH262133   5.974   2.566   1.998 -0.0639  0.1530  0.2682
13573TIP3    H162134   6.007   2.573   2.087  1.0564 -1.5187  0.0038
13573TIP3    H262135   6.049   2.534   1.947 -0.9209  0.3095 -1.1254
13574TIP3   OH262136   3.880   6.289  16.631 -0.0401 -0.1428 -0.6798
13574TIP3    H162137   3.928   6.343  16.568 -0.5361  0.5241 -0.4808
13574TIP3    H262138   3.854   6.349  16.700  1.0622 -0.9910  0.5028
13575TIP3   OH262139   6.205   5.854   3.704 -0.5178 -0.2144  0.0883
13575TIP3    H162140   6.210   5.777   3.648 -0.0054 -1.1772  1.4328
13575TIP3    H262141   6.116   5.887   3.693 -0.4641 -0.4609 -1.1754
13576TIP3   OH262142   2.566   1.693  15.061  0.5427  0.1097  0.0043
13576TIP3    H162143   2.530   1.727  14.979  1.7783  1.7233  0.1105
13576TIP3    H262144   2.492   1.697  15.122 -0.0856 -0.0375 -0.7358
13577TIP3   OH262145   2.495   3.120  14.953  0.2140 -0.7879  0.2369
13577TIP3    H162146   2.427   3.057  14.929  0.1107 -0.4490 -0.3802
13577TIP3    H262147   2.551   3.073  15.015 -1.3466 -0.6447  1.8152
13578TIP3   OH262148   0.486   3.025  14.869  0.1334  0.4500 -0.2172
13578TIP3    H162149   0.513   2.942  14.830  0.2722  0.6503 -0.5521
13578TIP3    H262150   0.516   3.020  14.959 -1.9808 -0.8485  0.4316
13579TIP3   OH262151   0.710   1.673  16.961  0.9558  0.4520 -0.1139
13579TIP3    H162152   0.752   1.753  16.995 -1.3572  1.0987  1.3477
13579TIP3    H262153   0.686   1.624  17.040  0.7164 -0.8345 -0.9789
13580TIP3   OH262154   6.647   5.458   2.237 -0.2177 -0.2737  0.0788
13580TIP3    H162155   6.701   5.462   2.317 -0.8743  2.5113  0.4136
13580TIP3    H262156   6.707   5.426   2.170  1.3716  0.9989  0.8535
13581TIP3   OH262157   2.694   4.892  15.867 -0.2917  0.0732 -0.4244
13581TIP3    H162158   2.730   4.938  15.791  2.6809 -0.6302  0.4829
13581TIP3    H262159   2.687   4.801  15.839  0.5574 -0.1403  0.0388
13582TIP3   OH262160   6.765   4.277  12.828  0.6055 -0.1560 -0.0286
13582TIP3    H162161   6.720   4.315  12.903 -0.6168 -1.0113 -0.3076
13582TIP3    H262162   6.833   4.221  12.865  1.5604  1.2682  0.3981
13583TIP3   OH262163   3.155   5.524   1.846  0.0101  0.1669 -0.1456
13583TIP3    H162164   3.244   5.557   1.836  0.6200 -1.5658 -0.5960
13583TIP3    H262165   3.112   5.545   1.763  0.2953  0.1229 -0.3058
13584TIP3   OH262166   0.424   1.956   4.705  0.1344 -0.0802 -0.0494
13584TIP3    H162167   0.465   2.039   4.681 -3.6061  1.0040 -3.1380
13584TIP3    H262168   0.432   1.902   4.626  0.2796 -1.7826  1.0977
13585TIP3   OH262169   0.912   6.386  11.186  0.5687 -0.0149  0.2347
13585TIP3    H162170   0.928   6.338  11.268 -1.8791 -0.0521  0.7059
13585TIP3    H262171   0.879   6.321  11.126  0.2700  0.4571 -0.1156
13586TIP3   OH262172   4.248   4.220  10.946 -0.1493  0.6048 -0.0408
13586TIP3    H162173   4.302   4.222  11.025  1.2647  1.8960 -1.0028
13586TIP3    H262174   4.180   4.155  10.964  0.6599  0.2815  1.9006
13587TIP3   OH262175   5.433   1.768  11.484  0.6621 -0.0216 -0.0615
13587TIP3    H162176   5.373   1.709  11.440  2.3210 -2.5993  0.9917
13587TIP3    H262177   5.384   1.798  11.561 -0.1219 -0.1791 -0.4905
13588TIP3   OH262178   0.858   6.442   4.731  0.5644  0.5943  0.1005
13588TIP3    H162179   0.918   6.495   4.782  1.6049  1.2077 -1.7140
13588TIP3    H262180   0.913   6.400   4.665 -0.8600  0.5303 -1.0845
13589TIP3   OH262181   1.085   3.868   2.073  0.4012  0.3076  0.0889
13589TIP3    H162182   1.119   3.808   2.007  0.4337 -0.0041  0.3904
13589TIP3    H262183   1.029   3.929   2.024  1.5623  0.9618 -0.4540
13590TIP3   OH262184   5.891   3.012  16.368 -0.1059 -0.0316  0.1157
13590TIP3    H162185   5.899   2.966  16.285  0.0416 -0.7716  0.5395
13590TIP3    H262186   5.901   2.944  16.435 -2.0262  0.2661  0.7303
13591TIP3   OH262187   2.282   4.445  15.477  0.5619  0.1634  0.4693
13591TIP3    H162188   2.337   4.443  15.399  2.0053 -0.2033  1.4826
13591TIP3    H262189   2.306   4.526  15.522  2.2209 -1.2860  2.2690
13592TIP3   OH262190   6.363   3.337  15.105  0.2277 -0.2056  0.3210
13592TIP3    H162191   6.396   3.247  15.096 -0.1033 -0.2371 -0.6592
13592TIP3    H262192   6.340   3.363  15.015  0.2218  0.8220  0.6149
13593TIP3   OH262193   1.095   0.944   5.669 -0.0062 -0.0328  0.6987
13593TIP3    H162194   1.007   0.921   5.696 -1.5946  0.6025 -3.5531
13593TIP3    H262195   1.147   0.865   5.684 -1.8421 -1.2173  0.8597
13594TIP3   OH262196   5.143   3.626  12.163  0.2697 -0.0085  0.1351
13594TIP3    H162197   5.090   3.663  12.233  0.6813  1.3287 -0.2500
13594TIP3    H262198   5.216   3.583  12.208 -0.0656 -0.1275  0.5678
13595TIP3   OH262199   0.922   5.220   1.973  0.0298  0.3008 -0.6271
13595TIP3    H162200   0.937   5.294   2.033  2.0889 -0.9648  0.4625
13595TIP3    H262201   0.843   5.178   2.007  1.1174 -0.3469  1.1905
13596TIP3   OH262202   1.354   4.977  13.428  0.4989  0.3947  0.2936
13596TIP3    H162203   1.333   4.931  13.347  0.8169 -1.0021  0.9998
13596TIP3    H262204   1.448   4.965  13.440  0.5946  1.2765  0.4533
13597TIP3   OH262205   4.593   4.063   1.762 -0.3840 -0.2015 -0.1725
13597TIP3    H162206   4.654   4.082   1.833 -0.7277 -0.5416  0.2133
13597TIP3    H262207   4.536   4.140   1.758 -1.5068 -0.9410  1.1108
13598TIP3   OH262208   5.892   4.183   0.375 -0.2179  0.4847  0.3298
13598TIP3    H162209   5.900   4.103   0.324 -1.3458 -0.5012  1.6319
13598TIP3    H262210   5.820   4.230   0.334 -0.3065  0.2783  0.2452
13599TIP3   OH262211   5.858   2.255   1.232 -0.1159  0.0153  0.5992
13599TIP3    H162212   5.873   2.334   1.180  1.1378 -0.4174  0.2922
13599TIP3    H262213   5.935   2.201   1.217  0.2592 -0.1280  2.9118
13600TIP3   OH262214   0.756   3.652   1.975  0.0761 -0.1203  0.0560
13600TIP3    H162215   0.838   3.616   1.939  0.2799 -0.4371  0.8265
13600TIP3    H262216   0.719   3.703   1.903  0.8248 -0.1853 -0.3870
13601TIP3   OH262217   2.759   3.274   2.949  0.0715  0.7619 -0.1288
13601TIP3    H162218   2.712   3.343   2.997 -2.2488 -0.7079 -0.2291
13601TIP3    H262219   2.744   3.195   3.000  0.9162 -0.0695 -1.1513
13602TIP3   OH262220   3.962   5.071   3.987  0.3004  0.3302 -0.6554
13602TIP3    H162221   3.991   5.162   3.995  1.1172 -0.0354  0.8144
13602TIP3    H262222   4.041   5.020   4.004 -0.4967 -0.6737  0.0488
13603TIP3   OH262223   4.600   4.687  16.259 -0.2363 -0.3889  0.6887
13603TIP3    H162224   4.586   4.755  16.326  1.2211  0.2884  0.3225
13603TIP3    H262225   4.559   4.723  16.180  1.4806  0.5694  0.2118
13604TIP3   OH262226   5.795   1.381   2.796 -0.0756  0.2659 -0.5088
13604TIP3    H162227   5.889   1.365   2.806  0.0978  1.5730  0.1473
13604TIP3    H262228   5.781   1.385   2.701  0.3994 -0.6198 -0.6223
13605TIP3   OH262229   5.114   0.269  11.917 -0.6094  0.6141 -0.1776
13605TIP3    H162230   5.125   0.193  11.973 -2.2747 -1.1026 -2.0898
13605TIP3    H262231   5.036   0.313  11.952  0.5650  1.6911  1.1524
13606TIP3   OH262232   1.218   2.179  15.887  0.3488 -1.0095  0.0494
13606TIP3    H162233   1.313   2.175  15.889  0.3793  0.1096  1.4287
13606TIP3    H262234   1.197   2.268  15.916 -1.1615 -1.7330  1.2247
13607TIP3   OH262235   2.631   6.557   4.175 -0.5318 -0.8353  0.0343
13607TIP3    H162236   2.567   6.585   4.110 -0.4952  0.1235  0.3920
13607TIP3    H262237   2.582   6.554   4.257  0.6499  3.6147  1.0491
13608TIP3   OH262238   1.912   4.023  13.020  0.1266 -0.4528  0.3502
13608TIP3    H162239   1.986   3.969  12.989  0.4563 -0.4639  1.1394
13608TIP3    H262240   1.938   4.112  12.999 -0.0059 -0.5248 -0.1238
13609TIP3   OH262241   3.930   6.114   0.733 -0.7287  0.0145 -0.4476
13609TIP3    H162242   3.897   6.025   0.741  0.6198 -0.4762 -0.2877
13609TIP3    H262243   4.018   6.111   0.771 -0.1374  1.0922 -1.6783
13610TIP3   OH262244   6.409   5.106  14.146  0.4083 -0.2295 -0.0103
13610TIP3    H162245   6.422   5.186  14.197 -2.2157  0.4963 -0.4104
13610TIP3    H262246   6.398   5.137  14.056  2.2743 -1.2891 -0.6306
13611TIP3   OH262247   4.004   1.662  14.863  0.3177  0.0204 -0.5481
13611TIP3    H162248   3.981   1.754  14.869  2.7033  0.6380 -0.6176
13611TIP3    H262249   4.008   1.632  14.954 -0.2344  0.0211 -0.5202
13612TIP3   OH262250   6.605   2.808  16.459  0.3484  0.4156  0.5528
13612TIP3    H162251   6.580   2.802  16.551  0.6376 -1.9535  0.5058
13612TIP3    H262252   6.584   2.723  16.422  1.7957  0.7656 -1.1866
13613TIP3   OH262253   1.334   6.190  11.917  0.0946  0.0376 -0.0992
13613TIP3    H162254   1.281   6.178  11.995 -1.3650  0.3460 -1.0306
13613TIP3    H262255   1.351   6.285  11.913  0.4269 -0.0166  0.0109
13614TIP3   OH262256   2.104   5.388   1.917 -0.6506 -0.1205  0.2565
13614TIP3    H162257   2.194   5.404   1.946 -0.7648  1.9529 -0.5032
13614TIP3    H262258   2.098   5.292   1.913  1.7450 -0.2909 -0.3901
13615TIP3   OH262259   3.167   2.053   3.900 -0.5243  0.4232 -0.0316
13615TIP3    H162260   3.094   1.997   3.874 -0.3654  0.0432  0.3482
13615TIP3    H262261   3.127   2.139   3.916 -0.6846  0.5634 -1.1467
13616TIP3   OH262262   6.180   5.224   4.099  0.2298 -0.5815 -0.0015
13616TIP3    H162263   6.171   5.196   4.007 -0.5803 -1.3662  0.2987
13616TIP3    H262264   6.250   5.169   4.134  1.9140  1.1078 -0.6662
13617TIP3   OH262265   0.720   1.160   3.009 -0.0538 -0.1945 -0.0174
13617TIP3    H162266   0.640   1.122   2.973  0.7274 -1.2071 -0.7172
13617TIP3    H262267   0.701   1.254   3.015 -1.3373 -0.4447 -0.0426
13618TIP3   OH262268   4.936   0.866   4.935  0.4164 -0.7059 -0.4912
13618TIP3    H162269   4.848   0.840   4.905 -0.0901  0.8117 -0.3430
13618TIP3    H262270   4.976   0.784   4.964 -1.5337 -1.1927  0.9187
13619TIP3   OH262271   5.769   2.013  11.309 -0.4192 -0.0744  0.0302
13619TIP3    H162272   5.853   2.043  11.275  0.5348 -2.0723  0.5486
13619TIP3    H262273   5.791   1.936  11.362 -2.8133 -2.0549 -1.7215
13620TIP3   OH262274   0.885   4.755   6.657  0.1935 -0.5453 -0.5450
13620TIP3    H162275   0.841   4.673   6.635  0.0633 -0.1391 -1.7914
13620TIP3    H262276   0.827   4.796   6.722  0.8659 -1.9911  1.0097
13621TIP3   OH262277   2.890   2.204  14.831  0.5790  0.0726 -0.0903
13621TIP3    H162278   2.879   2.272  14.897  0.5070 -0.4367  0.4242
13621TIP3    H262279   2.815   2.146  14.843  1.1909 -0.6746  0.1621
13622TIP3   OH262280   4.997   2.915   1.377 -0.1022  0.0914 -0.0310
13622TIP3    H162281   5.018   2.989   1.435  0.9625  1.0667 -1.6179
13622TIP3    H262282   4.974   2.844   1.437  0.3571  1.2554  1.5754
13623TIP3   OH262283   3.140   5.597   4.893 -0.1043 -0.3410  0.2712
13623TIP3    H162284   3.058   5.616   4.938 -0.8557 -0.9377 -0.8307
13623TIP3    H262285   3.157   5.675   4.840  0.7621  0.3464  1.5395
13624TIP3   OH262286   3.455   2.373   0.386 -0.5938  0.2038  0.2726
13624TIP3    H162287   3.469   2.453   0.335 -0.2427 -0.6902 -1.0752
13624TIP3    H262288   3.506   2.386   0.466  0.4915  0.8220 -0.5033
13625TIP3   OH262289   2.063   4.577  15.031 -0.2952 -0.0574  0.3405
13625TIP3    H162290   2.066   4.483  15.048 -0.2519 -0.2862 -0.8528
13625TIP3    H262291   2.149   4.598  14.995 -0.7799  0.1568 -0.7265
13626TIP3   OH262292   5.038   1.865   1.454 -0.6352  0.3329 -0.3482
13626TIP3    H162293   5.008   1.784   1.497 -2.3708  1.0397 -0.1823
13626TIP3    H262294   5.074   1.836   1.371 -1.3988 -0.6133 -0.3642
13627TIP3   OH262295   3.004   5.309   1.935  0.2113 -0.3044 -0.6612
13627TIP3    H162296   3.078   5.368   1.919 -0.9423  1.4862  0.4056
13627TIP3    H262297   2.980   5.326   2.026 -0.1920 -2.4142 -0.3532
13628TIP3   OH262298   2.650   3.511  13.806 -1.0530 -0.0688  0.0284
13628TIP3    H162299   2.740   3.543  13.804 -0.5354 -1.5301 -0.8409
13628TIP3    H262300   2.645   3.457  13.886 -1.3053  0.4109  0.3405
13629TIP3   OH262301   1.789   0.920   0.651 -0.7398 -0.2803 -0.4428
13629TIP3    H162302   1.700   0.934   0.683 -0.9662 -0.2303 -1.0722
13629TIP3    H262303   1.831   0.866   0.718 -2.1951 -2.9305 -1.5637
13630TIP3   OH262304   2.597   5.485   2.273 -0.8522  0.0448  0.1143
13630TIP3    H162305   2.503   5.466   2.269 -1.0115  0.6112  1.0101
13630TIP3    H262306   2.625   5.450   2.357 -0.0131 -1.1428 -0.6386
13631TIP3   OH262307   2.490   3.792  15.546 -0.6419  0.0187  0.0945
13631TIP3    H162308   2.544   3.800  15.468 -0.5996  0.4264  0.1679
13631TIP3    H262309   2.486   3.880  15.582 -0.7355 -0.1504  0.5030
13632TIP3   OH262310   0.796   4.238   6.653  0.1414 -0.0833  0.0268
13632TIP3    H162311   0.818   4.168   6.714  1.4081 -0.4485 -0.8362
13632TIP3    H262312   0.701   4.249   6.663 -0.2743 -2.7253 -0.6971
13633TIP3   OH262313   2.699   4.041   3.054  0.1170  0.4212 -0.1716
13633TIP3    H162314   2.680   3.959   3.101 -0.4462  0.7271  0.1312
13633TIP3    H262315   2.643   4.039   2.977  1.4672 -0.3574 -1.1563
13634TIP3   OH262316   4.795   6.018  13.965  0.1466 -0.3308  0.1630
13634TIP3    H162317   4.755   6.105  13.961  1.7533  0.3301 -1.7751
13634TIP3    H262318   4.863   6.026  14.032 -1.1606 -0.7531  1.5966
13635TIP3   OH262319   2.573   3.159  11.370 -0.1885  0.5173 -0.1635
13635TIP3    H162320   2.484   3.144  11.338  0.0466  0.3424 -0.7296
13635TIP3    H262321   2.576   3.112  11.454 -0.1559 -0.7464 -0.8559
13636TIP3   OH262322   1.098   1.879  11.701 -0.3876 -0.6231  0.0083
13636TIP3    H162323   1.059   1.800  11.663 -0.9261 -0.2999 -0.1061
13636TIP3    H262324   1.071   1.877  11.793 -0.6215 -0.4353 -0.0554
13637TIP3   OH262325   0.102   5.125   0.166 -0.2165  0.0631  0.2697
13637TIP3    H162326   0.061   5.150   0.249 -0.2994  1.0928 -0.0664
13637TIP3    H262327   0.074   5.193   0.105  0.7835 -0.0489 -0.3193
13638TIP3   OH262328   4.052   2.833   2.057  0.3044  0.3177 -0.2439
13638TIP3    H162329   4.135   2.787   2.069 -0.0590 -0.2379  0.2224
13638TIP3    H262330   4.068   2.921   2.089  1.0586  0.5656 -1.2811
13639TIP3   OH262331   0.534   1.871  12.767 -0.6305  0.0594 -0.0064
13639TIP3    H162332   0.580   1.837  12.844  1.4985  0.2624 -1.1449
13639TIP3    H262333   0.517   1.963  12.788 -0.0293  0.1243  0.2006
13640TIP3   OH262334   2.341   6.283   5.429 -0.3061 -1.2859  0.5057
13640TIP3    H162335   2.283   6.214   5.463  1.0646 -1.7102  2.0255
13640TIP3    H262336   2.419   6.279   5.485  1.5815 -1.3177 -2.0540
13641TIP3   OH262337   5.148   2.278   4.760  0.5628  0.4368 -0.3724
13641TIP3    H162338   5.160   2.238   4.673 -0.1931  1.7758 -1.1183
13641TIP3    H262339   5.219   2.343   4.765 -0.0430  1.1120 -0.4513
13642TIP3   OH262340   5.584   2.264   3.878  0.8174  0.0331  0.2722
13642TIP3    H162341   5.588   2.359   3.873 -0.0690  0.0373 -0.5671
13642TIP3    H262342   5.550   2.237   3.793 -1.3093 -0.8528  1.3506
13643TIP3   OH262343   2.149   3.204   5.321 -0.8188  0.1259 -0.2561
13643TIP3    H162344   2.088   3.246   5.381 -0.4960 -0.0581  0.1994
13643TIP3    H262345   2.236   3.227   5.355 -0.6351  0.1371 -0.7269
13644TIP3   OH262346   2.889   6.593  17.136 -0.2301 -0.0698  0.0670
13644TIP3    H162347   2.970   6.571  17.182 -0.6128 -2.6632 -0.4151
13644TIP3    H262348   2.821   6.586  17.202 -0.3272  0.0398 -0.0216
13645TIP3   OH262349   0.723   0.347  12.606 -0.2799 -0.5668  0.1103
13645TIP3    H162350   0.713   0.401  12.527  0.9243  0.1158  0.4121
13645TIP3    H262351   0.793   0.390  12.655 -1.5167 -0.5709  1.9116
13646TIP3   OH262352   1.953   0.798  11.810  0.0722  0.2900 -0.1791
13646TIP3    H162353   2.008   0.734  11.764  2.3623  0.4714  2.2073
13646TIP3    H262354   1.961   0.878  11.758  1.8004  0.2141 -0.0539
13647TIP3   OH262355   6.261   6.244   2.440  0.2878 -0.0632 -0.1333
13647TIP3    H162356   6.178   6.270   2.400 -1.0650 -2.3499  1.0815
13647TIP3    H262357   6.283   6.160   2.398  2.0194  0.5423 -0.4737
13648TIP3   OH262358   6.658   4.111  14.419  0.0611  0.1920 -0.1692
13648TIP3    H162359   6.625   4.061  14.494  0.2766  1.3682  0.7278
13648TIP3    H262360   6.580   4.136  14.370  0.0295 -2.0150 -1.2735
13649TIP3   OH262361   4.116   2.454   0.073  0.6307  0.3226  0.3810
13649TIP3    H162362   4.133   2.454   0.167  1.2403 -1.5394  0.2875
13649TIP3    H262363   4.168   2.382   0.039  0.1502  0.7639 -1.3458
13650TIP3   OH262364   3.865   5.669   5.594 -0.0933  0.3333 -0.0833
13650TIP3    H162365   3.797   5.635   5.653 -0.9798  1.5612 -0.3664
13650TIP3    H262366   3.852   5.622   5.512 -1.6124  1.6320 -0.6223
13651TIP3   OH262367   5.419   6.122   6.040  0.1373  0.7084 -0.1818
13651TIP3    H162368   5.493   6.167   5.998  0.9876 -0.8993 -0.4434
13651TIP3    H262369   5.457   6.082   6.119 -0.9727  1.8303  0.9493
13652TIP3   OH262370   0.046   4.643  16.968  0.2889 -0.6774  0.0327
13652TIP3    H162371   0.020   4.683  16.886  0.7197 -0.8695 -0.1995
13652TIP3    H262372   0.080   4.557  16.944 -1.6370 -1.6228  0.6383
13653TIP3   OH262373   4.814   4.141   2.343  0.1905  0.7348  0.6306
13653TIP3    H162374   4.821   4.061   2.395 -1.1781  1.1502  1.4896
13653TIP3    H262375   4.733   4.183   2.374 -1.1238  0.5870 -2.3604
13654TIP3   OH262376   4.329   0.472   3.668  0.4038  0.4063  0.4688
13654TIP3    H162377   4.366   0.516   3.592 -0.7116 -0.2593 -0.4796
13654TIP3    H262378   4.396   0.479   3.736  1.1982  1.4468 -0.4230
13655TIP3   OH262379   1.576   6.458   2.724 -0.5500  0.4672  0.0490
13655TIP3    H162380   1.640   6.470   2.654  1.5944  0.0315  1.8514
13655TIP3    H262381   1.604   6.518   2.793 -1.7009 -0.1958  1.1359
13656TIP3   OH262382   2.806   4.035  16.126  0.0868  0.5297  0.4323
13656TIP3    H162383   2.815   4.097  16.198  0.2259 -0.6835  1.4930
13656TIP3    H262384   2.714   4.009  16.128  0.1420  0.3222  0.3162
13657TIP3   OH262385   3.262   4.008  13.635  0.4523  0.5669 -0.5266
13657TIP3    H162386   3.351   4.044  13.642 -0.2429  1.9708  1.3454
13657TIP3    H262387   3.212   4.077  13.591  0.0559  0.1917 -0.6697
13658TIP3   OH262388   4.112   4.778   2.709 -0.1463 -0.0540  0.0262
13658TIP3    H162389   4.097   4.684   2.723  1.2240  0.1425  3.1754
13658TIP3    H262390   4.032   4.820   2.738  0.1778 -0.1017  1.0077
13659TIP3   OH262391   2.466   3.684   4.216 -0.2219 -0.1169  0.2403
13659TIP3    H162392   2.501   3.773   4.215 -1.3217  0.3294  0.8255
13659TIP3    H262393   2.469   3.657   4.124  1.5520 -0.0596  0.2570
13660TIP3   OH262394   1.306   4.463   2.997 -0.3420  0.7166 -0.2235
13660TIP3    H162395   1.216   4.491   3.011 -1.5160 -2.0513 -1.9364
13660TIP3    H262396   1.304   4.410   2.918  2.6695  0.0075  0.0864
13661TIP3   OH262397   2.230   0.100  16.124 -0.7801  0.2133 -0.6026
13661TIP3    H162398   2.295   0.153  16.170 -1.2331 -0.8401  1.3119
13661TIP3    H262399   2.150   0.107  16.177 -1.5063 -0.5319 -1.5591
13662TIP3   OH262400   5.652   1.721   1.092 -0.3859 -0.3525 -0.1858
13662TIP3    H162401   5.646   1.720   0.996  0.2171 -1.4336 -0.2142
13662TIP3    H262402   5.722   1.784   1.110  0.4810 -1.2081 -0.5172
13663TIP3   OH262403   0.376   2.710   5.554  0.1779  0.4439 -0.1139
13663TIP3    H162404   0.310   2.719   5.624  0.2772  3.1406 -0.2911
13663TIP3    H262405   0.325   2.688   5.476 -0.0193 -1.8371  0.6385
13664TIP3   OH262406   2.181   6.636  16.343  0.5936 -0.5622  0.0644
13664TIP3    H162407   2.252   6.699  16.354 -0.2665  0.2398  1.1633
13664TIP3    H262408   2.102   6.689  16.346 -0.0539 -1.4196 -1.3739
13665TIP3   OH262409   0.700   2.043  11.915 -0.2668  0.2402  0.2219
13665TIP3    H162410   0.702   1.951  11.888  0.0918  0.2458  0.2287
13665TIP3    H262411   0.761   2.087  11.856 -0.5568  0.5025  0.1142
13666TIP3   OH262412   3.560   2.814   2.427 -0.2605 -0.4819 -0.4455
13666TIP3    H162413   3.480   2.764   2.408  0.7284 -2.6629  0.9919
13666TIP3    H262414   3.560   2.824   2.522 -1.2635  3.7275 -0.8090
13667TIP3   OH262415   3.275   5.899  10.836  0.2118 -0.2289  0.5867
13667TIP3    H162416   3.340   5.835  10.808  0.8273  0.9569 -0.7830
13667TIP3    H262417   3.298   5.979  10.788 -0.9993  0.7942  1.6728
13668TIP3   OH262418   5.037   3.201   3.984  0.1999 -0.3992 -0.7371
13668TIP3    H162419   5.125   3.230   4.007  0.4229 -1.1943 -0.5782
13668TIP3    H262420   5.024   3.120   4.034 -0.0659 -1.0678 -1.8749
13669TIP3   OH262421   4.293   5.686  13.756  0.2897  0.7419  0.3836
13669TIP3    H162422   4.240   5.755  13.715 -0.5990 -0.3100 -0.3003
13669TIP3    H262423   4.257   5.677  13.844 -0.8879 -0.1309 -0.1540
13670TIP3   OH262424   4.660   1.246  17.206  0.3614 -0.3522 -0.3321
13670TIP3    H162425   4.677   1.308  17.277  0.3523 -0.9053  0.1484
13670TIP3    H262426   4.578   1.278  17.167  0.0659 -0.3712  0.2595
13671TIP3   OH262427   3.084   6.641  16.936  1.2629 -0.3079 -0.5984
13671TIP3    H162428   3.097   6.551  16.965  1.4462  0.3850  1.5298
13671TIP3    H262429   3.001   6.667  16.974  0.5922  0.0331 -2.2599
13672TIP3   OH262430   4.873   0.503   3.974 -0.7006  0.3335 -0.3990
13672TIP3    H162431   4.888   0.565   4.046 -0.4094  1.2984 -1.2778
13672TIP3    H262432   4.849   0.421   4.017  0.3160  0.6680  0.8332
13673TIP3   OH262433   0.817   2.833  14.242 -0.1122 -0.1479 -0.0417
13673TIP3    H162434   0.734   2.784  14.243 -0.2682  0.0526 -1.7355
13673TIP3    H262435   0.799   2.911  14.295 -0.9581 -0.1785 -0.2813
13674TIP3   OH262436   3.567   4.383  15.931  0.1788  0.0822 -0.3304
13674TIP3    H162437   3.537   4.449  15.993  1.0150  0.0224  0.1469
13674TIP3    H262438   3.487   4.342  15.899 -0.3006  0.6909  0.0673
13675TIP3   OH262439   4.111   3.962   2.334  0.1778  0.1390  0.4966
13675TIP3    H162440   4.079   3.883   2.378  2.0127 -1.0046 -0.1538
13675TIP3    H262441   4.116   4.028   2.403 -0.3234 -0.6345  1.2789
13676TIP3   OH262442   3.520   0.404  13.442  0.1316  0.3286 -0.1746
13676TIP3    H162443   3.550   0.447  13.522 -0.3115  1.9354 -0.8561
13676TIP3    H262444   3.601   0.374  13.399  0.3039 -1.5142  1.3920
13677TIP3   OH262445   4.189   0.233  12.260 -0.6019 -0.3999  0.5677
13677TIP3    H162446   4.251   0.218  12.188 -0.7486 -0.3773  0.4376
13677TIP3    H262447   4.109   0.190  12.231 -0.1178 -2.0076  1.5185
13678TIP3   OH262448   2.715   1.416   0.750  0.0036 -0.1727  0.3556
13678TIP3    H162449   2.701   1.328   0.715  0.0241 -0.7279  1.7106
13678TIP3    H262450   2.653   1.423   0.822  0.9014  0.4409  1.0694
13679TIP3   OH262451   3.949   1.646  16.364  0.6661  0.1808 -0.2680
13679TIP3    H162452   3.999   1.687  16.293 -1.5191  2.4250 -0.5706
13679TIP3    H262453   3.910   1.568  16.324  1.1366  0.2940 -0.9589
13680TIP3   OH262454   4.674   1.722  11.398 -0.4908 -0.3446 -0.5921
13680TIP3    H162455   4.625   1.804  11.403 -0.4490 -0.3236 -0.5226
13680TIP3    H262456   4.692   1.709  11.305 -1.6278 -0.9425 -0.7363
13681TIP3   OH262457   2.555   0.419  10.268  0.1595 -0.1168 -0.4432
13681TIP3    H162458   2.521   0.493  10.319  0.2767  0.9026 -1.7962
13681TIP3    H262459   2.489   0.404  10.201  1.4966  0.6874 -1.9661
13682TIP3   OH262460   4.307   2.337   1.009  0.2036 -0.2781  0.4199
13682TIP3    H162461   4.213   2.317   1.018 -0.0524  0.0178 -1.4096
13682TIP3    H262462   4.347   2.253   0.985  0.3339 -0.3095  0.7530
13683TIP3   OH262463   2.291   4.191   5.198  0.5086 -0.4739 -0.2860
13683TIP3    H162464   2.223   4.151   5.144  0.3828  1.2586 -1.4658
13683TIP3    H262465   2.372   4.180   5.148  0.7785 -0.8823  0.2387
13684TIP3   OH262466   2.583   6.751  13.273  0.4281 -0.0259  0.3250
13684TIP3    H162467   2.499   6.754  13.229 -0.0423 -0.1850  1.1883
13684TIP3    H262468   2.645   6.792  13.213 -0.4858  1.1439  0.1788
13685TIP3   OH262469   5.969   6.407  11.814 -0.5093 -0.1283 -0.2200
13685TIP3    H162470   5.983   6.335  11.875 -0.7980 -1.0006 -1.1754
13685TIP3    H262471   5.888   6.385  11.768 -0.9241  1.1010 -0.1109
13686TIP3   OH262472   4.841   1.760  11.608  0.1600 -0.4305 -0.0774
13686TIP3    H162473   4.780   1.743  11.536 -0.7126  0.2484  0.5035
13686TIP3    H262474   4.914   1.700  11.591 -1.0392 -1.8555 -0.2930
13687TIP3   OH262475   3.486   3.055   5.261 -0.4579  0.0588  0.2625
13687TIP3    H162476   3.391   3.053   5.253 -0.7627  2.5668  2.6041
13687TIP3    H262477   3.505   3.001   5.337  0.0057 -0.3373 -0.1256
13688TIP3   OH262478   5.911   6.334  13.674  0.2194  0.9351 -0.6676
13688TIP3    H162479   5.838   6.364  13.619 -0.2115  0.3272 -0.4300
13688TIP3    H262480   5.897   6.377  13.758 -1.0683 -0.8400  0.0533
13689TIP3   OH262481   3.123   4.297   2.586  0.3994 -0.2916  0.3053
13689TIP3    H162482   3.041   4.329   2.622  0.9786 -0.5294  1.8939
13689TIP3    H262483   3.102   4.211   2.550 -0.5482  0.6559 -1.4701
13690TIP3   OH262484   5.825   6.677   0.043 -0.2187 -0.0542  0.7135
13690TIP3    H162485   5.845   6.607   0.106  3.6066  0.4175  0.1694
13690TIP3    H262486   5.776   6.633  -0.027 -1.0860 -1.4081  2.1580
13691TIP3   OH262487   4.640   4.848  14.024  0.2209  0.5903  0.2873
13691TIP3    H162488   4.615   4.941  14.027  0.2364  0.5471  2.3679
13691TIP3    H262489   4.559   4.801  14.043 -0.0488  0.0972 -1.9014
13692TIP3   OH262490   6.223   4.057  11.130  0.1562 -0.0319  0.6233
13692TIP3    H162491   6.184   4.019  11.051 -1.0362 -0.2641  1.3093
13692TIP3    H262492   6.307   4.092  11.100 -0.0484 -0.5643 -0.6421
13693TIP3   OH262493   3.182   0.059   4.460  0.3961 -0.2127 -0.1067
13693TIP3    H162494   3.145  -0.027   4.483  1.8551 -0.4879  1.3217
13693TIP3    H262495   3.166   0.113   4.537 -1.3800  1.1152 -1.3749
13694TIP3   OH262496   5.774   2.714  11.336 -0.0589  0.3224 -0.1934
13694TIP3    H162497   5.715   2.639  11.342 -0.3354  0.4759 -1.0378
13694TIP3    H262498   5.851   2.688  11.387 -0.3635 -0.3371 -0.0708
13695TIP3   OH262499   5.245   1.479  15.812  0.2014  0.1518  0.0267
13695TIP3    H162500   5.305   1.410  15.840 -1.7380 -1.2092  0.9688
13695TIP3    H262501   5.223   1.526  15.892 -0.8926 -0.1117 -0.1097
13696TIP3   OH262502   1.742   5.914   2.258 -0.2102 -0.9671 -0.0800
13696TIP3    H162503   1.742   5.948   2.348  0.5058 -0.2325 -0.3418
13696TIP3    H262504   1.785   5.983   2.207  0.4598 -1.8854 -0.7842
13697TIP3   OH262505   2.193   3.340  14.759 -0.3009 -0.2042 -0.4512
13697TIP3    H162506   2.139   3.288  14.700  0.7900 -1.0047 -0.7729
13697TIP3    H262507   2.263   3.280  14.787 -1.1681 -0.0522  2.2079
13698TIP3   OH262508   1.936   6.003   6.056 -0.0315 -0.1680 -0.8348
13698TIP3    H162509   2.025   6.031   6.036 -0.7073  1.0944 -2.1104
13698TIP3    H262510   1.940   5.975   6.148  1.3070  1.4561 -0.3761
13699TIP3   OH262511   5.633   4.044  11.556 -0.1511 -0.4261 -0.0331
13699TIP3    H162512   5.619   4.136  11.579  0.0682 -0.1065 -1.1654
13699TIP3    H262513   5.561   4.023  11.496  0.2292 -0.7801 -0.3641
13700TIP3   OH262514   3.100   3.902  12.764 -0.3901 -0.4896 -0.3614
13700TIP3    H162515   3.118   3.855  12.846 -1.4157 -0.5722 -0.1818
13700TIP3    H262516   3.043   3.974  12.790 -0.6892 -0.4977 -1.0026
13701TIP3   OH262517   2.098   3.351  15.581  0.2581 -0.3137  0.2618
13701TIP3    H162518   2.144   3.436  15.580  0.2073 -0.2862 -1.4582
13701TIP3    H262519   2.157   3.293  15.629 -0.6719  1.1846  3.4114
13702TIP3   OH262520   2.159   3.941  17.093  0.2721  0.2108  0.3897
13702TIP3    H162521   2.171   3.962  17.186  0.7381 -0.2247  0.4333
13702TIP3    H262522   2.086   3.879  17.091  0.1814  0.3160  0.4540
13703TIP3   OH262523   6.133   2.070  14.484  0.4577 -0.1999 -0.5299
13703TIP3    H162524   6.135   1.993  14.540  0.7799 -0.6011 -1.0892
13703TIP3    H262525   6.201   2.054  14.419  0.4581  0.5130 -0.7023
13704TIP3   OH262526   3.990   1.558   3.928 -0.0744  0.0866 -0.2007
13704TIP3    H162527   4.011   1.616   3.855 -2.2724  1.3625  0.1330
13704TIP3    H262528   4.009   1.610   4.006 -1.3472  0.1036  0.1055
13705TIP3   OH262529   0.506   0.977   2.096 -0.2886  0.2878  0.0490
13705TIP3    H162530   0.415   0.954   2.114 -0.6562  1.1717 -0.6141
13705TIP3    H262531   0.502   1.066   2.062  0.8135  0.2699 -0.1621
13706TIP3   OH262532   5.152   2.162   5.940  0.1048  0.2638  0.9749
13706TIP3    H162533   5.078   2.179   5.998 -1.0391  1.8704 -0.8894
13706TIP3    H262534   5.228   2.158   5.999 -1.3099 -0.3880  2.7979
13707TIP3   OH262535   0.535   0.525   5.163 -0.5400  0.8800  0.5567
13707TIP3    H162536   0.482   0.451   5.191  1.6663 -0.2757  1.7682
13707TIP3    H262537   0.510   0.539   5.072 -0.3767 -1.9245  0.0351
13708TIP3   OH262538   0.320   6.645   1.024  0.1206 -0.1083  0.0523
13708TIP3    H162539   0.354   6.602   0.945  1.8882 -2.2318  1.9069
13708TIP3    H262540   0.227   6.622   1.025  0.3142 -0.9671 -0.8310
13709TIP3   OH262541   4.948   0.041   2.375  0.2738  0.1194  0.8306
13709TIP3    H162542   4.904   0.049   2.459  0.7485  0.1934  1.0768
13709TIP3    H262543   4.905  -0.033   2.332 -0.2922  0.3867  0.9362
13710TIP3   OH262544   3.149   3.275   5.925 -0.1484 -0.1471 -0.0142
13710TIP3    H162545   3.077   3.246   5.982 -1.1148  2.8479  0.4355
13710TIP3    H262546   3.125   3.245   5.838  0.0010 -2.4909  0.7306
13711TIP3   OH262547   5.889   1.432  14.888 -0.0250  0.6266 -0.1323
13711TIP3    H162548   5.962   1.416  14.948  0.1615 -0.6872 -0.6748
13711TIP3    H262549   5.836   1.352  14.893  0.8561 -0.1899 -2.8899
13712TIP3   OH262550   0.418   2.319   2.423 -0.2047 -0.3706 -0.4835
13712TIP3    H162551   0.450   2.331   2.513  0.5327 -0.7997 -0.6888
13712TIP3    H262552   0.323   2.306   2.433 -0.1211 -0.4566  0.2350
13713TIP3   OH262553   1.666   0.959   3.538 -0.1148 -0.0972 -0.6732
13713TIP3    H162554   1.574   0.944   3.516  0.2928 -0.9254 -1.8774
13713TIP3    H262555   1.682   1.050   3.511 -0.3476 -0.2339 -1.2823
13714TIP3   OH262556   2.791   3.375  14.736  0.2397  0.6641  0.3043
13714TIP3    H162557   2.810   3.338  14.650  1.7684  0.0543  0.8890
13714TIP3    H262558   2.698   3.358  14.750  0.0615  0.4946 -1.0926
13715TIP3   OH262559   1.308   3.310  14.446  0.1416  0.3269  0.1467
13715TIP3    H162560   1.393   3.269  14.461  0.2885  0.5770  0.0009
13715TIP3    H262561   1.274   3.329  14.534  0.4890  0.7405  0.1951
13716TIP3   OH262562   3.236   3.730  12.628  0.5937  0.2225  0.0578
13716TIP3    H162563   3.164   3.768  12.678  0.3112  0.9615 -0.8959
13716TIP3    H262564   3.315   3.764  12.669  0.3536  1.2218 -0.2914
13717TIP3   OH262565   1.827   5.208   2.732 -0.5227  0.7570 -0.5207
13717TIP3    H162566   1.778   5.199   2.813  1.6350  1.3143  0.8864
13717TIP3    H262567   1.819   5.122   2.689 -0.3104 -0.0790  1.0807
13718TIP3   OH262568   4.922   2.745  15.557  0.1571  0.1368 -0.1026
13718TIP3    H162569   4.914   2.681  15.628 -2.0508 -0.5904 -0.9686
13718TIP3    H262570   4.987   2.708  15.498 -0.9839 -1.2699 -0.5055
13719TIP3   OH262571   2.191   1.916  12.039 -0.3023 -0.1023  0.2686
13719TIP3    H162572   2.235   1.836  12.010  1.8557  0.7647  0.9859
13719TIP3    H262573   2.228   1.933  12.126 -2.9179  0.0765  1.3833
13720TIP3   OH262574   2.684   5.332  16.539  0.6759  0.3100  0.3438
13720TIP3    H162575   2.675   5.340  16.634  0.5700 -0.5606  0.4193
13720TIP3    H262576   2.701   5.238  16.525 -0.3937  0.2487 -0.5777
13721TIP3   OH262577   5.939   2.082  11.604 -0.9368  0.0525  0.1852
13721TIP3    H162578   5.923   2.016  11.537  1.2383 -0.3353  0.0097
13721TIP3    H262579   5.923   2.165  11.559  0.0827 -0.2210 -0.7205
13722TIP3   OH262580   0.549   5.231   2.580 -0.7433 -0.8354  0.6092
13722TIP3    H162581   0.614   5.169   2.613 -0.2937 -0.5979  0.1785
13722TIP3    H262582   0.597   5.284   2.516 -0.7716  0.8467  1.9634
13723TIP3   OH262583   1.466   2.628   1.419  0.4255  0.5687 -0.2965
13723TIP3    H162584   1.431   2.706   1.377 -0.5868  0.8644  1.0665
13723TIP3    H262585   1.451   2.642   1.512  0.4494 -1.1476 -0.0214
13724TIP3   OH262586   3.050   1.371   4.682 -0.7811 -0.4277 -0.5264
13724TIP3    H162587   3.074   1.359   4.774 -0.5375  2.3595 -0.1708
13724TIP3    H262588   2.955   1.362   4.680 -0.8726  0.3307  0.1600
13725TIP3   OH262589   2.986   3.015  17.233  0.1944 -0.2104  0.3011
13725TIP3    H162590   3.023   3.067  17.162  1.9416 -1.9849 -0.1354
13725TIP3    H262591   2.960   3.079  17.300 -1.0141  1.4361 -1.7021
13726TIP3   OH262592   5.322   1.978  14.234  0.6209 -0.3673 -0.7822
13726TIP3    H162593   5.416   1.963  14.221  0.4001 -1.7996 -0.7621
13726TIP3    H262594   5.288   1.991  14.145  0.5982 -1.3337 -0.9223
13727TIP3   OH262595   1.165   5.222  13.883 -0.4914  0.1612 -0.2073
13727TIP3    H162596   1.114   5.242  13.805 -1.0413 -0.2282  0.0422
13727TIP3    H262597   1.251   5.197  13.851  0.9549  4.8924 -0.4742
13728TIP3   OH262598   0.773   6.681  14.642 -0.4833  0.0827  0.1158
13728TIP3    H162599   0.687   6.639  14.632  0.6420 -2.1361 -0.4919
13728TIP3    H262600   0.793   6.713  14.554  0.2100 -1.2285 -0.2191
13729TIP3   OH262601   3.204   1.280   1.252 -0.1713  0.7343 -0.1660
13729TIP3    H162602   3.241   1.223   1.185 -0.1725 -0.7303  1.0516
13729TIP3    H262603   3.242   1.250   1.334 -1.9037  1.0124  0.7744
13730TIP3   OH262604   5.521   6.155  16.381  0.3171 -0.1748  0.4707
13730TIP3    H162605   5.550   6.245  16.396 -2.4117  0.7074  0.6970
13730TIP3    H262606   5.541   6.139  16.288  0.4653  0.8111  0.3251
13731TIP3   OH262607   6.472   5.959   5.420  0.2313  0.2358 -0.1410
13731TIP3    H162608   6.415   6.035   5.407  0.4676  0.7188  1.4769
13731TIP3    H262609   6.423   5.886   5.383 -0.1507  1.1238 -1.3944
13732TIP3   OH262610   0.797   1.913  11.564 -0.0831  0.4785  0.2466
13732TIP3    H162611   0.840   1.986  11.609  0.9548  0.9413 -1.4477
13732TIP3    H262612   0.773   1.949  11.478 -0.0022 -1.0245 -0.4165
13733TIP3   OH262613   1.573   4.421  14.707 -0.1946 -0.1308 -0.7186
13733TIP3    H162614   1.582   4.510  14.671  1.7109 -0.4482 -1.0657
13733TIP3    H262615   1.555   4.436  14.800  0.6040  0.6382 -0.6716
13734TIP3   OH262616   0.716   3.014   4.298  0.2839 -0.5142  0.5030
13734TIP3    H162617   0.741   3.064   4.376  0.6215 -1.4213  0.9795
13734TIP3    H262618   0.667   3.077   4.244 -0.2486  0.0298  1.5989
13735TIP3   OH262619   4.323   5.868   3.530 -0.1295 -0.0009  0.0474
13735TIP3    H162620   4.379   5.876   3.452  1.5743 -1.7078  1.0448
13735TIP3    H262621   4.261   5.799   3.507  0.6042 -0.7599  0.3189
13736TIP3   OH262622   4.854   4.865  12.160  0.1887  0.3129  0.1754
13736TIP3    H162623   4.773   4.849  12.112  0.9553  0.1790 -1.1138
13736TIP3    H262624   4.922   4.824  12.107  1.1409  0.6947  1.0730
13737TIP3   OH262625   0.066   4.867  12.760  0.1297  0.0127 -0.1177
13737TIP3    H162626   0.011   4.911  12.824  0.7983  0.5092  0.1206
13737TIP3    H262627   0.108   4.795  12.809 -0.2573 -0.3280 -0.2850
13738TIP3   OH262628   1.064   5.918   3.789 -0.0536 -0.2520  0.1712
13738TIP3    H162629   0.988   5.909   3.848 -0.6852  0.3617 -0.5361
13738TIP3    H262630   1.092   5.828   3.773 -1.9767 -0.6396 -1.2635
13739TIP3   OH262631   5.541   1.476  15.609 -0.0493 -0.7646 -0.0488
13739TIP3    H162632   5.634   1.460  15.625 -0.0380 -0.4591  0.1885
13739TIP3    H262633   5.508   1.393  15.575  0.5522 -0.5353 -1.2218
13740TIP3   OH262634   3.284   6.574   5.670 -0.1999  0.3673  0.0972
13740TIP3    H162635   3.303   6.628   5.747  0.0361  1.8266 -0.9517
13740TIP3    H262636   3.338   6.613   5.600 -2.4434  0.7851 -1.4478
13741TIP3   OH262637   6.239   2.452   0.634  0.3973  0.5079 -0.1511
13741TIP3    H162638   6.227   2.476   0.726 -0.5004 -0.7314  0.0731
13741TIP3    H262639   6.288   2.369   0.637 -0.4149 -0.0007 -0.7447
13742TIP3   OH262640   4.518   1.656  13.504  0.8649  0.0648 -0.0171
13742TIP3    H162641   4.571   1.733  13.482 -0.0348  0.2583 -1.5871
13742TIP3    H262642   4.544   1.590  13.439  0.3398 -0.3559  0.2042
13743TIP3   OH262643   4.950   5.928  16.987 -0.4682  0.0451  0.1386
13743TIP3    H162644   4.974   6.016  17.018 -2.2253  0.0881  1.4769
13743TIP3    H262645   4.854   5.931  16.979 -0.3387 -1.0237 -2.1157
13744TIP3   OH262646   4.234   3.927  16.078  0.3131  0.5567 -0.5320
13744TIP3    H162647   4.216   3.878  16.158  0.6664  0.9705 -0.1932
13744TIP3    H262648   4.156   3.982  16.066 -0.0053  0.0419 -0.8115
13745TIP3   OH262649   1.275   0.624   4.636  0.3179 -0.1082  0.3865
13745TIP3    H162650   1.293   0.534   4.663 -0.9464  0.0759  1.9425
13745TIP3    H262651   1.234   0.615   4.550 -1.7104 -1.1835  1.4285
13746TIP3   OH262652   1.531   3.315   1.733  0.0247 -0.0907 -0.5168
13746TIP3    H162653   1.591   3.325   1.658 -1.6349  1.8277 -1.6493
13746TIP3    H262654   1.583   3.341   1.809  1.1959 -0.3060 -1.2297
13747TIP3   OH262655   5.993   5.539   3.773 -0.0030  0.5240  0.1864
13747TIP3    H162656   6.035   5.507   3.694  4.9601  0.6967  2.5750
13747TIP3    H262657   5.947   5.618   3.746  0.0158 -0.4549 -2.8377
13748TIP3   OH262658   5.280   2.021  13.975 -0.2319  0.0633  0.1517
13748TIP3    H162659   5.204   2.015  13.917 -0.8298  0.5937  0.8769
13748TIP3    H262660   5.325   2.101  13.948 -1.7075  1.5000  1.8374
13749TIP3   OH262661   1.382   0.365  15.429  0.2204 -0.0160  0.0140
13749TIP3    H162662   1.396   0.456  15.454 -0.9725 -0.0507  0.8461
13749TIP3    H262663   1.343   0.370  15.342 -1.4354  0.3383  0.7676
13750TIP3   OH262664   1.502   4.986  15.917  0.2120  0.7405  0.2239
13750TIP3    H162665   1.442   5.047  15.873 -0.3513 -0.7540 -1.1084
13750TIP3    H262666   1.456   4.902  15.916  2.0007 -0.2458 -0.0950
13751TIP3   OH262667   4.989   5.133   2.447  0.8327 -0.2764  0.2974
13751TIP3    H162668   4.922   5.074   2.480 -0.4979  0.2675 -1.3658
13751TIP3    H262669   5.056   5.133   2.515 -0.2799 -1.7720  1.4356
13752TIP3   OH262670   6.397   1.058  13.200 -0.5783  0.3954  0.0417
13752TIP3    H162671   6.386   1.147  13.235 -1.2787  0.5016 -0.4295
13752TIP3    H262672   6.308   1.030  13.179 -0.3205 -0.2843 -0.1444
13753TIP3   OH262673   2.018   0.548   4.199  0.5175 -0.2314  0.1951
13753TIP3    H162674   2.028   0.643   4.197  0.2321 -0.2269 -1.4454
13753TIP3    H262675   1.931   0.532   4.163  0.0952 -1.0563  1.5414
13754TIP3   OH262676   1.757   4.439   0.715  0.3717 -0.2842 -0.2972
13754TIP3    H162677   1.736   4.437   0.622  0.7827 -2.0126 -0.3737
13754TIP3    H262678   1.811   4.518   0.726  0.2788 -0.0460 -1.5114
13755TIP3   OH262679   4.179   6.357  13.922  0.1509 -0.2593  0.5256
13755TIP3    H162680   4.129   6.423  13.873  0.8784  0.5845  0.8939
13755TIP3    H262681   4.194   6.397  14.008  0.6683 -0.8767  0.7274
13756TIP3   OH262682   1.170   3.709   0.206 -0.3974  0.2894 -0.0606
13756TIP3    H162683   1.189   3.666   0.289 -0.0123  0.3654 -0.1075
13756TIP3    H262684   1.185   3.642   0.139  1.7361  0.9035 -0.2559
13757TIP3   OH262685   2.290   4.051  15.033  0.7483 -0.0068  0.3901
13757TIP3    H162686   2.341   3.997  14.973 -1.0858  0.4672 -1.6519
13757TIP3    H262687   2.221   3.993  15.065  1.4454 -0.1277  1.7325
13758TIP3   OH262688   5.368   2.725  13.750  0.3929 -0.0083  0.0684
13758TIP3    H162689   5.375   2.693  13.841  0.6594 -0.1094  0.0143
13758TIP3    H262690   5.454   2.762  13.732 -0.5265  2.5325  0.7879
13759TIP3   OH262691   1.532   5.141   6.077  0.0570 -0.4134 -0.0853
13759TIP3    H162692   1.499   5.164   6.164  0.6154 -1.2785  0.3661
13759TIP3    H262693   1.554   5.048   6.084 -0.1842 -0.5620 -1.2486
13760TIP3   OH262694   1.295   0.332  11.865  0.1435  0.0735  0.1819
13760TIP3    H162695   1.241   0.364  11.793  0.4208  2.4638  0.9864
13760TIP3    H262696   1.384   0.332  11.830 -0.1191 -2.0335 -0.5344
13761TIP3   OH262697   4.158   4.195  13.101 -0.3441  0.1403 -0.0000
13761TIP3    H162698   4.204   4.139  13.164 -0.1891 -0.8167 -0.9522
13761TIP3    H262699   4.120   4.134  13.038 -2.5620  0.9564  0.5239
13762TIP3   OH262700   0.227   3.546  13.275  0.3586  0.0627  0.2431
13762TIP3    H162701   0.261   3.604  13.342 -1.3804  0.2128  1.0236
13762TIP3    H262702   0.239   3.458  13.310 -1.1186  0.1677  1.0485
13763TIP3   OH262703   2.800   5.076  13.215  0.7477  0.7772 -0.4882
13763TIP3    H162704   2.823   5.082  13.308 -0.2047  0.0719 -0.2054
13763TIP3    H262705   2.705   5.071  13.214  0.7015  1.6609 -1.5582
13764TIP3   OH262706   0.101   6.292   6.873 -0.3311 -0.1045  0.8082
13764TIP3    H162707   0.092   6.278   6.779 -2.2326  0.9445  0.8184
13764TIP3    H262708   0.123   6.206   6.908  0.6604 -0.4505 -0.6221
13765TIP3   OH262709   2.813   5.522   2.608 -0.0968 -0.0536 -0.2871
13765TIP3    H162710   2.791   5.550   2.697  0.8116  1.1631 -0.4326
13765TIP3    H262711   2.890   5.466   2.618 -0.5405 -0.6522 -0.2198
13766TIP3   OH262712   6.262   3.391  14.100  0.1546 -0.3628 -0.6634
13766TIP3    H162713   6.201   3.460  14.125  0.7942  0.3689 -1.1071
13766TIP3    H262714   6.235   3.366  14.012  0.5051 -0.0261 -0.8668
13767TIP3   OH262715   4.675   5.521   0.300 -0.5744  0.7385 -0.3814
13767TIP3    H162716   4.747   5.458   0.301 -1.3785 -0.2086 -0.9824
13767TIP3    H262717   4.670   5.554   0.390 -0.8413 -0.8824  0.2065
13768TIP3   OH262718   2.383   5.560  12.206 -0.3159  0.0836  0.0196
13768TIP3    H162719   2.351   5.644  12.175 -2.0139 -0.9622 -1.1253
13768TIP3    H262720   2.355   5.556  12.298 -0.8601  0.4500 -0.1281
13769TIP3   OH262721   6.063   3.690   1.755  0.5881  0.3116 -0.0915
13769TIP3    H162722   6.126   3.747   1.712  0.3114  0.7164  0.0265
13769TIP3    H262723   5.978   3.724   1.728  0.4029  0.9003  1.1760
13770TIP3   OH262724   3.746   6.687  12.792 -0.3248  0.2661  0.0086
13770TIP3    H162725   3.821   6.707  12.735  0.3528  0.4745  0.9700
13770TIP3    H262726   3.735   6.592  12.783  0.7154  0.0740  0.6675
13771TIP3   OH262727   5.367   3.012   1.403  0.2882  0.5250 -0.3080
13771TIP3    H162728   5.343   2.977   1.317  0.0533 -0.0794  0.0008
13771TIP3    H262729   5.462   3.009   1.404  0.3086  1.0035 -0.7433
13772TIP3   OH262730   2.440   2.619  15.928 -0.7312  0.0004  0.0970
13772TIP3    H162731   2.523   2.664  15.912 -0.5935 -0.5955 -0.9340
13772TIP3    H262732   2.418   2.577  15.844 -0.5490 -2.3515  1.1644
13773TIP3   OH262733   2.342   2.416   3.982 -0.4285 -0.1130  0.2805
13773TIP3    H162734   2.304   2.437   3.897  0.8194 -1.2080 -0.5734
13773TIP3    H262735   2.375   2.500   4.015 -0.6499  0.2623 -0.4434
13774TIP3   OH262736   5.537   2.953  14.520  0.6016  1.0472  0.2036
13774TIP3    H162737   5.607   2.901  14.561  0.9465  0.5773 -0.9567
13774TIP3    H262738   5.572   2.977  14.435 -0.4076  1.3689 -0.1266
13775TIP3   OH262739   2.311   0.051  16.452 -0.1396 -0.5581 -0.2811
13775TIP3    H162740   2.236   0.108  16.435 -0.9673 -1.1122  1.3894
13775TIP3    H262741   2.380   0.110  16.482 -0.6646 -0.3149  0.4509
13776TIP3   OH262742   1.763   6.117   1.337 -0.4005  0.5198  0.1018
13776TIP3    H162743   1.775   6.110   1.431  1.1080  1.3792  0.0000
13776TIP3    H262744   1.813   6.195   1.313  1.0432 -0.9099 -1.7110
13777TIP3   OH262745   1.549   5.594   0.290 -0.1834  0.1548 -0.4218
13777TIP3    H162746   1.642   5.613   0.302 -0.2669  1.7367 -2.1541
13777TIP3    H262747   1.537   5.508   0.331  1.7678  0.4867  0.9142
13778TIP3   OH262748   4.880   1.510  17.056 -0.1887  0.3012 -0.5755
13778TIP3    H162749   4.901   1.554  17.139  0.9415  1.3411 -1.3886
13778TIP3    H262750   4.866   1.419  17.080 -0.1679  0.6482  0.8065
13779TIP3   OH262751   6.724   4.975   1.801  0.4269  0.5179 -0.1369
13779TIP3    H162752   6.754   5.003   1.887  0.4096  2.3515 -0.7026
13779TIP3    H262753   6.748   5.047   1.743 -0.4216 -0.2744 -1.4979
13780TIP3   OH262754   0.277   0.564   3.307  0.5191  0.8510 -0.0596
13780TIP3    H162755   0.286   0.575   3.401 -0.0693 -0.2841  0.1407
13780TIP3    H262756   0.269   0.470   3.294 -1.4056  1.1196 -1.0518
13781TIP3   OH262757   4.652   0.233  13.742 -0.0042  0.0929 -0.1897
13781TIP3    H162758   4.683   0.149  13.711 -1.4707 -0.1479 -1.0261
13781TIP3    H262759   4.574   0.251  13.690 -0.0709  1.6685  0.4189
13782TIP3   OH262760   1.586   0.203   1.394  0.6499  0.0986 -0.4510
13782TIP3    H162761   1.588   0.245   1.480 -1.3106 -3.3433  1.3883
13782TIP3    H262762   1.516   0.248   1.346 -2.1540 -1.6709  1.8601
13783TIP3   OH262763   3.191   5.527  15.763  0.1667 -0.2252  0.2980
13783TIP3    H162764   3.219   5.562  15.678  0.5435  1.5802  1.1411
13783TIP3    H262765   3.271   5.518  15.813 -0.0821 -1.0920  0.5467
13784TIP3   OH262766   5.752   0.615  16.838  0.1618  0.2342 -0.3188
13784TIP3    H162767   5.747   0.525  16.870 -0.2437  0.4732  0.2883
13784TIP3    H262768   5.825   0.654  16.885  1.1118 -0.1252 -1.4644
13785TIP3   OH262769   5.162   4.243   0.353  0.3269 -0.4855 -0.4384
13785TIP3    H162770   5.117   4.169   0.393 -0.2451 -0.3436 -0.8086
13785TIP3    H262771   5.161   4.311   0.420  3.8968 -1.9216  1.1958
13786TIP3   OH262772   5.976   4.557   5.266 -0.5076 -0.3257  0.3219
13786TIP3    H162773   5.881   4.565   5.265 -0.2945  2.8835 -0.5874
13786TIP3    H262774   6.002   4.568   5.174  0.8848  1.2953  0.8884
13787TIP3   OH262775   4.755   6.296  14.001  0.6564  0.0898  0.6426
13787TIP3    H162776   4.848   6.285  13.979  0.0843  1.6649 -3.0144
13787TIP3    H262777   4.743   6.391  14.006 -1.3411  0.0779 -2.2330
13788TIP3   OH262778   2.774   4.984  15.608 -0.3392 -0.1908  0.3563
13788TIP3    H162779   2.832   5.051  15.645 -0.1498 -0.2795  0.2162
13788TIP3    H262780   2.795   4.983  15.515  1.3414 -2.1194  0.7271
13789TIP3   OH262781   2.311   3.540  11.729  0.2174  0.2052 -0.2482
13789TIP3    H162782   2.377   3.546  11.660  0.0159  2.1935 -0.2938
13789TIP3    H262783   2.228   3.539  11.682  0.1237  0.2880 -0.0837
13790TIP3   OH262784   1.604   1.020  17.210  0.6191 -0.3152 -0.3438
13790TIP3    H162785   1.617   0.952  17.277  1.1458  0.6855  0.5769
13790TIP3    H262786   1.690   1.028  17.167  0.4872 -0.4144 -0.6270
13791TIP3   OH262787   4.341   6.588  15.850  0.5880 -0.1214 -0.2844
13791TIP3    H162788   4.303   6.673  15.874  0.7208 -0.3051  0.5550
13791TIP3    H262789   4.271   6.525  15.865  1.0784 -0.3989  0.8324
13792TIP3   OH262790   3.129   3.883  15.622 -0.8648 -0.4009 -0.2848
13792TIP3    H162791   3.211   3.833  15.617 -0.0548  0.8761 -0.1339
13792TIP3    H262792   3.082   3.845  15.696  0.8733  0.6854  1.4342
13793TIP3   OH262793   3.007   0.411  16.676  0.5744 -0.0690  0.8712
13793TIP3    H162794   2.969   0.492  16.711 -1.1769 -0.2527 -0.5045
13793TIP3    H262795   2.958   0.341  16.719  0.7799 -0.3586  0.6364
13794TIP3   OH262796   0.163   3.313  16.292  0.5291  0.2508  0.5032
13794TIP3    H162797   0.173   3.365  16.212 -1.4739  0.6689  0.4906
13794TIP3    H262798   0.188   3.372  16.362  1.0009  0.3164  0.2794
13795TIP3   OH262799   0.822   6.012  16.206 -0.2720  0.0238 -0.0094
13795TIP3    H162800   0.751   6.051  16.257  1.2919  1.2715  1.2717
13795TIP3    H262801   0.846   6.081  16.144  1.0563  0.3009  0.8088
13796TIP3   OH262802   2.748   5.350   0.369  0.3043  0.3294  0.0671
13796TIP3    H162803   2.677   5.370   0.430 -0.0930 -0.0874 -0.2534
13796TIP3    H262804   2.783   5.266   0.399 -0.4877 -0.3275 -0.8064
13797TIP3   OH262805   4.431   3.472  15.928  0.0791 -0.7785  0.3722
13797TIP3    H162806   4.471   3.487  15.842  0.8024 -0.2050  0.8082
13797TIP3    H262807   4.504   3.448  15.984 -0.6617 -3.1974  0.3595
13798TIP3   OH262808   1.721   5.666   6.020 -0.3206 -0.1658  0.1499
13798TIP3    H162809   1.764   5.650   6.103 -1.3407  1.8676  1.1097
13798TIP3    H262810   1.646   5.721   6.042 -1.8699 -1.4173 -1.8264
13799TIP3   OH262811   1.306   3.352  13.185  0.1132  0.0973 -0.0213
13799TIP3    H162812   1.375   3.286  13.185 -1.6940 -1.8483 -0.0132
13799TIP3    H262813   1.240   3.319  13.246 -2.6426 -0.0986 -2.9489
13800TIP3   OH262814   2.817   4.925  15.017 -0.7956 -0.4321 -0.2087
13800TIP3    H162815   2.899   4.879  15.033 -0.7477 -0.3344 -0.1804
13800TIP3    H262816   2.750   4.857  15.027 -0.6897 -0.6089 -0.6812
13801TIP3   OH262817   1.359   4.345   4.946  0.3010 -0.2505  0.0050
13801TIP3    H162818   1.451   4.321   4.941  0.7077  1.2852  0.0033
13801TIP3    H262819   1.346   4.371   5.038  0.3532  1.4230 -0.4505
13802TIP3   OH262820   4.809   4.487  16.840 -0.5000  0.4764  0.0120
13802TIP3    H162821   4.805   4.576  16.875  1.2939  1.2398 -1.5905
13802TIP3    H262822   4.894   4.454  16.870 -1.0944 -0.6413  0.4763
13803TIP3   OH262823   2.565   2.665  14.857 -0.3031  0.0791 -0.0739
13803TIP3    H162824   2.654   2.677  14.889 -0.8248  1.3090  0.9721
13803TIP3    H262825   2.561   2.573  14.831  0.8006 -0.4000  1.3747
13804TIP3   OH262826   4.455   3.074   3.280 -0.3270  0.5993 -0.4204
13804TIP3    H162827   4.363   3.097   3.267 -0.4773  2.2845  3.1961
13804TIP3    H262828   4.503   3.146   3.239 -0.6323  1.0623  0.0413
13805TIP3   OH262829   1.741   5.058   0.134  0.4021 -0.3526 -0.2033
13805TIP3    H162830   1.679   5.079   0.204 -0.1326  2.3705 -1.4562
13805TIP3    H262831   1.710   5.107   0.058  0.4054 -4.0028 -2.6960
13806TIP3   OH262832   4.244   1.822  11.871 -0.0705 -0.1534  0.9298
13806TIP3    H162833   4.229   1.731  11.895 -1.0595 -0.7081 -1.6877
13806TIP3    H262834   4.174   1.870  11.916 -1.0845 -0.9983  0.2540
13807TIP3   OH262835   6.155   2.621  15.315 -0.1712  0.3686 -0.0488
13807TIP3    H162836   6.199   2.705  15.326 -0.2807  0.3454  0.5994
13807TIP3    H262837   6.224   2.562  15.285  0.4068  0.1853  1.5448
13808TIP3   OH262838   1.263   2.182   0.513  0.6828  0.2058 -0.2373
13808TIP3    H162839   1.281   2.136   0.431 -0.3402 -1.6832  0.5550
13808TIP3    H262840   1.239   2.113   0.574 -1.2455  1.8395  0.9192
13809TIP3   OH262841   0.739   3.371   1.603 -0.3908 -0.0922 -0.3625
13809TIP3    H162842   0.672   3.304   1.597 -1.8058  1.0691  2.0212
13809TIP3    H262843   0.696   3.451   1.572  1.1441 -0.1271 -2.7440
13810TIP3   OH262844   3.848   4.148  10.876 -0.0397  0.1803  0.0990
13810TIP3    H162845   3.927   4.101  10.905 -1.8049 -1.3780  2.6093
13810TIP3    H262846   3.811   4.092  10.807 -0.2904 -0.3589  0.6706
13811TIP3   OH262847   1.445   4.916   2.523  0.1115  0.3210 -0.4895
13811TIP3    H162848   1.434   4.823   2.504 -1.0982  0.4723 -0.5600
13811TIP3    H262849   1.361   4.955   2.501  0.6372  1.4462 -0.5323
13812TIP3   OH262850   1.289   0.765  13.504 -0.0752 -0.0232  0.3898
13812TIP3    H162851   1.340   0.730  13.431 -0.0612  3.2790 -1.3130
13812TIP3    H262852   1.330   0.728  13.582  1.4312 -1.7634 -1.1808
13813TIP3   OH262853   0.835   2.630  12.583  0.4085  0.3670 -0.1182
13813TIP3    H162854   0.761   2.645  12.643  1.0411 -0.9177  1.0130
13813TIP3    H262855   0.803   2.659  12.498 -0.6797  1.7889  0.7472
13814TIP3   OH262856   0.801   0.717  12.284 -0.5214  0.2269 -0.4849
13814TIP3    H162857   0.789   0.767  12.203  0.6130  0.3920 -0.5515
13814TIP3    H262858   0.861   0.769  12.336 -0.8296 -0.1427  0.2495
13815TIP3   OH262859   2.149   2.109  13.013 -0.7217 -0.7775 -0.0875
13815TIP3    H162860   2.099   2.135  12.936 -0.6715 -3.0811 -0.9531
13815TIP3    H262861   2.113   2.024  13.038 -0.9146  0.0305  2.6173
13816TIP3   OH262862   5.909   3.416   4.600 -0.1805  0.2432  0.1542
13816TIP3    H162863   5.848   3.366   4.545  0.8677  1.0268 -1.7578
13816TIP3    H262864   5.852   3.467   4.657 -1.3066 -4.0477  3.1576
13817TIP3   OH262865   5.478   3.901   4.597  0.2935 -1.1049 -0.3055
13817TIP3    H162866   5.384   3.885   4.597  0.6793 -3.5250 -0.2453
13817TIP3    H262867   5.490   3.974   4.657 -1.6489  0.0146 -1.2187
13818TIP3   OH262868   3.265   5.192  16.094  0.1083 -0.4046 -0.0011
13818TIP3    H162869   3.171   5.187  16.111  0.4851 -1.1223  1.8935
13818TIP3    H262870   3.286   5.107  16.056  0.2843 -0.8507  1.0818
13819TIP3   OH262871   4.001   2.881  15.001 -0.0920  0.5830  0.0809
13819TIP3    H162872   4.073   2.823  15.029 -0.0276  0.8055  0.3841
13819TIP3    H262873   3.922   2.840  15.036 -0.1176  0.3102 -0.2967
13820TIP3   OH262874   5.798   4.494  15.414  0.3782  0.0587  0.6099
13820TIP3    H162875   5.765   4.453  15.334  0.2651  1.2327  0.0284
13820TIP3    H262876   5.719   4.519  15.462  0.4162  1.2999  0.0478
13821TIP3   OH262877   5.263   0.729   0.739  0.6782  0.3044  0.0207
13821TIP3    H162878   5.315   0.717   0.819 -1.1296 -0.6983  1.0882
13821TIP3    H262879   5.179   0.688   0.759 -0.5479  1.9257 -1.6471
13822TIP3   OH262880   3.827   5.871   1.333 -0.2008  0.2791 -0.1126
13822TIP3    H162881   3.875   5.804   1.381 -3.0591  0.8223  3.7455
13822TIP3    H262882   3.782   5.823   1.263 -0.7044 -1.5334  1.4235
13823TIP3   OH262883   6.631   1.795  14.582  0.0743 -0.4325 -0.0505
13823TIP3    H162884   6.716   1.809  14.624  0.9489 -1.9404 -1.2777
13823TIP3    H262885   6.582   1.741  14.645  0.1769  0.0940  0.4789
13824TIP3   OH262886   0.623   6.393  13.933 -0.0491 -1.1887 -0.2850
13824TIP3    H162887   0.562   6.344  13.989 -0.5620 -0.0923  0.1217
13824TIP3    H262888   0.638   6.335  13.858 -0.9662 -1.8043 -0.0036
13825TIP3   OH262889   5.811   1.288  12.667 -0.3343 -0.8655  0.3739
13825TIP3    H162890   5.870   1.339  12.611 -0.1521 -0.6723  0.7461
13825TIP3    H262891   5.724   1.321  12.646 -0.1345  0.3038  1.3550
13826TIP3   OH262892   6.134   3.052   4.048 -0.3383 -0.2740  0.2338
13826TIP3    H162893   6.116   3.031   4.140  1.5119 -1.2622  0.4091
13826TIP3    H262894   6.155   3.145   4.049  1.5772 -0.6859  1.1595
13827TIP3   OH262895   5.660   2.007   0.361  0.3054 -0.3071  0.2009
13827TIP3    H162896   5.628   1.956   0.287  1.9441  0.4869 -1.0971
13827TIP3    H262897   5.583   2.055   0.392 -0.4000 -0.6312 -0.9971
13828TIP3   OH262898   3.867   4.368   5.472 -0.5632  0.4965  0.0639
13828TIP3    H162899   3.910   4.430   5.532 -0.5278 -1.6292  2.3314
13828TIP3    H262900   3.854   4.290   5.525 -1.8163 -0.9804 -2.3644
13829TIP3   OH262901   0.011   1.274  15.861  0.4375 -0.4023  0.2414
13829TIP3    H162902  -0.038   1.211  15.810  0.4577  0.1630 -0.4843
13829TIP3    H262903   0.033   1.344  15.800  1.4923 -0.2769  0.7339
13830TIP3   OH262904   0.287   2.627   5.276  0.1528  0.2198 -0.7320
13830TIP3    H162905   0.307   2.665   5.190 -2.7361  0.4074 -1.3446
13830TIP3    H262906   0.268   2.535   5.258  0.7699 -0.0335 -0.1120
13831TIP3   OH262907   6.125   6.720   2.022  0.0400 -0.1589 -0.2940
13831TIP3    H162908   6.201   6.686   2.069  1.4975 -1.3175 -3.3359
13831TIP3    H262909   6.147   6.812   2.006 -0.2031  0.0856  0.7652
13832TIP3   OH262910   0.834   0.942   5.759  0.0628  0.1367 -0.2649
13832TIP3    H162911   0.776   0.905   5.826  1.7633  0.7247  1.6045
13832TIP3    H262912   0.815   1.035   5.760  0.1793  0.1626 -0.5228
13833TIP3   OH262913   4.037   1.668  16.618 -0.1680  0.2396  0.1729
13833TIP3    H162914   3.977   1.732  16.656 -0.5388  0.0943 -0.1632
13833TIP3    H262915   4.017   1.669  16.525 -0.4650 -0.6705  0.2232
13834TIP3   OH262916   2.557   4.176   5.100  0.7236  0.3363  0.1395
13834TIP3    H162917   2.635   4.225   5.128  1.3598  0.7471 -2.2697
13834TIP3    H262918   2.592   4.105   5.047 -0.2218 -2.5559  3.1979
13835TIP3   OH262919   0.979   5.357   0.371 -0.0136  0.3077  0.2465
13835TIP3    H162920   1.028   5.290   0.324  0.7310  0.5126  0.7196
13835TIP3    H262921   0.938   5.310   0.444  1.7322  0.6264  1.4522
13836TIP3   OH262922   5.531   1.506  13.629 -0.0583 -0.1612 -0.1974
13836TIP3    H162923   5.534   1.481  13.722  1.6157 -1.0860 -0.4899
13836TIP3    H262924   5.596   1.575  13.621 -0.6278  0.3410 -0.5763
13837TIP3   OH262925   3.434   0.961   2.699 -0.0270 -0.5968  0.0705
13837TIP3    H162926   3.528   0.963   2.716  0.0070  2.2483 -0.1897
13837TIP3    H262927   3.427   0.975   2.604 -0.7320 -1.0885  0.0455
13838TIP3   OH262928   6.227   3.477   0.406  0.0823 -0.2834 -0.0661
13838TIP3    H162929   6.162   3.425   0.453  1.4553 -0.8370  1.2426
13838TIP3    H262930   6.175   3.542   0.358 -1.3954 -0.1222  1.6857
13839TIP3   OH262931   1.644   0.489   4.891 -0.3899  0.1191 -0.2903
13839TIP3    H162932   1.688   0.404   4.886  0.3685  0.3111  2.0674
13839TIP3    H262933   1.598   0.498   4.808  1.9456 -1.2563 -1.7767
13840TIP3   OH262934   2.817   4.848   5.651 -0.6516 -0.3371  0.1749
13840TIP3    H162935   2.737   4.797   5.641 -0.9654  0.1636  0.1686
13840TIP3    H262936   2.884   4.782   5.670 -1.4268 -0.5747  2.2249
13841TIP3   OH262937   6.691   6.440   1.903  0.4952  0.7504 -0.1254
13841TIP3    H162938   6.709   6.527   1.939 -0.1357  0.7746  0.1415
13841TIP3    H262939   6.650   6.457   1.819 -2.1457  0.7767  1.1049
13842TIP3   OH262940   4.306   6.440   4.502  0.7555 -0.5490 -0.1391
13842TIP3    H162941   4.269   6.413   4.419 -0.9423 -0.7664  0.6758
13842TIP3    H262942   4.286   6.533   4.509  2.8780  0.0146 -0.9803
13843TIP3   OH262943   2.790   2.223  15.911 -0.1098 -0.4334 -0.2605
13843TIP3    H162944   2.840   2.167  15.970  1.1823  1.6936  0.7346
13843TIP3    H262945   2.766   2.166  15.838  1.3451 -2.1997  0.5982
13844TIP3   OH262946   0.958   3.506  16.069 -0.6342 -0.5953  0.4316
13844TIP3    H162947   0.880   3.461  16.035  0.0097 -2.2069  1.0276
13844TIP3    H262948   0.924   3.569  16.132 -1.3449 -2.7839  2.3085
13845TIP3   OH262949   2.869   0.263  14.295  0.3577  0.2034 -0.1431
13845TIP3    H162950   2.880   0.207  14.372  0.1622  0.1051 -0.1878
13845TIP3    H262951   2.822   0.208  14.232  1.3586 -0.0457 -0.6840
13846TIP3   OH262952   2.569   3.655  17.143 -0.3867 -0.1130  0.1360
13846TIP3    H162953   2.486   3.687  17.109 -0.2340  0.1798  0.0327
13846TIP3    H262954   2.635   3.713  17.104 -0.2890  0.9085  1.7591
13847TIP3   OH262955   5.561   1.153  16.321  0.1768 -0.4484 -0.6149
13847TIP3    H162956   5.469   1.178  16.332  0.0955 -0.6962 -0.7431
13847TIP3    H262957   5.568   1.124  16.230  0.1468 -1.4266 -0.3098
13848TIP3   OH262958   3.370   2.551  16.656  0.5622 -0.0360  0.2914
13848TIP3    H162959   3.377   2.646  16.641 -1.6337 -0.0068 -0.6916
13848TIP3    H262960   3.298   2.542  16.718  0.4092 -1.1085 -0.0481
13849TIP3   OH262961   6.642   4.738   3.319 -0.4853  0.4050 -0.5996
13849TIP3    H162962   6.603   4.770   3.399  0.6489  0.1405  0.0763
13849TIP3    H262963   6.618   4.802   3.252 -0.2096  1.3990  0.2494
13850TIP3   OH262964   2.895   0.705  13.489 -0.6041 -0.5031 -0.1336
13850TIP3    H162965   2.926   0.620  13.458  0.7548 -0.3143  0.6503
13850TIP3    H262966   2.807   0.714  13.452  0.3046 -1.0265 -2.5055
13851TIP3   OH262967   3.220   3.069   2.577  0.0025 -0.4095  0.1251
13851TIP3    H162968   3.152   3.121   2.620  0.7030 -0.5760  1.4875
13851TIP3    H262969   3.292   3.068   2.640  1.3517 -0.0624 -1.3838
13852TIP3   OH262970   5.178   1.069   5.538 -0.2306  0.2417 -0.4423
13852TIP3    H162971   5.204   1.055   5.447 -0.0557 -3.0064  0.0596
13852TIP3    H262972   5.090   1.032   5.544  0.0564 -0.2601  0.8650
13853TIP3   OH262973   5.307   5.865   4.727 -0.0477 -0.2044  0.6902
13853TIP3    H162974   5.283   5.901   4.641 -1.4789 -0.2338  1.0594
13853TIP3    H262975   5.318   5.771   4.712 -1.5351 -0.4103  0.7654
13854TIP3   OH262976   5.136   5.294  16.330 -0.1053  0.4518 -0.7504
13854TIP3    H162977   5.173   5.271  16.244  0.5345 -1.7021  0.0736
13854TIP3    H262978   5.049   5.254  16.331 -0.0694  0.3810 -0.3537
13855TIP3   OH262979   1.728   2.359  11.492  0.3950 -0.5496 -0.2469
13855TIP3    H162980   1.693   2.446  11.472  0.7761 -0.1941  0.6143
13855TIP3    H262981   1.779   2.371  11.572  1.4907 -1.3091 -0.8116
13856TIP3   OH262982   6.386   2.119  16.683  0.3023  0.2866 -0.5223
13856TIP3    H162983   6.344   2.140  16.766 -0.3790 -1.3583 -0.4268
13856TIP3    H262984   6.389   2.023  16.681 -0.3588  0.2729 -2.6884
13857TIP3   OH262985   1.652   3.606  14.209 -0.3240 -0.0852 -0.2124
13857TIP3    H162986   1.618   3.522  14.179  0.2562 -0.3455 -0.1371
13857TIP3    H262987   1.611   3.619  14.295  1.1919 -1.2785  0.7135
13858TIP3   OH262988   3.617   1.538   1.031  0.0060 -0.1535 -0.4417
13858TIP3    H162989   3.672   1.502   0.962  0.2755 -0.5336 -0.0389
13858TIP3    H262990   3.532   1.497   1.018  0.4244 -1.2937  0.2689
13859TIP3   OH262991   5.422   0.086  16.910 -0.3557 -0.8242 -0.1427
13859TIP3    H162992   5.505   0.059  16.949 -1.4508 -1.8222  1.5387
13859TIP3    H262993   5.443   0.167  16.863  1.1952 -0.0625  1.7889
13860TIP3   OH262994   3.961   2.274   3.059  0.2864 -0.1968 -0.6250
13860TIP3    H162995   3.924   2.193   3.095 -1.3767  1.1229  0.7245
13860TIP3    H262996   3.924   2.279   2.971 -0.8696 -0.1217 -0.1521
13861TIP3   OH262997   4.503   3.319  16.806 -0.1371  0.0226  0.3327
13861TIP3    H162998   4.453   3.384  16.757  0.6526  1.1529  0.9882
13861TIP3    H262999   4.438   3.265  16.849 -0.8030  1.3936  1.0747
13862TIP3   OH263000   0.957   2.242   1.369 -0.0750  0.3367 -0.5089
13862TIP3    H163001   1.010   2.315   1.338 -0.1741  0.5896 -0.0964
13862TIP3    H263002   0.996   2.218   1.453 -1.0019  0.9469  0.1077
13863TIP3   OH263003   1.835   2.285  12.247  0.5336 -0.0072 -0.4520
13863TIP3    H163004   1.903   2.337  12.291  0.5733 -0.6777  0.2986
13863TIP3    H263005   1.874   2.197  12.240  0.9762  0.3557 -2.8748
13864TIP3   OH263006   2.253   6.548  13.726 -0.2120 -0.2784 -0.2864
13864TIP3    H163007   2.236   6.586  13.640  1.3856 -0.6649 -0.7921
13864TIP3    H263008   2.347   6.560  13.739 -0.4309 -0.3112  1.3685
13865TIP3   OH263009   3.446   5.927   1.131 -0.3984 -0.1804  0.1205
13865TIP3    H163010   3.528   5.977   1.134 -0.1920 -0.4505 -0.7721
13865TIP3    H263011   3.378   5.993   1.120 -0.5508  0.2545  3.2865
13866TIP3   OH263012   0.303   6.012   6.464 -0.1643 -0.0325  0.6194
13866TIP3    H163013   0.236   5.968   6.411  0.2166 -0.3352  0.3825
13866TIP3    H263014   0.368   6.042   6.400  0.3311 -0.4588  0.9177
13867TIP3   OH263015   5.425   2.553  14.010  0.0845 -0.4183  0.0733
13867TIP3    H163016   5.398   2.481  13.953  0.2934 -0.0237 -0.5330
13867TIP3    H263017   5.482   2.512  14.075 -0.0854 -0.8593 -0.0568
13868TIP3   OH263018   4.174   4.071   3.019  0.5817 -0.1796  0.4328
13868TIP3    H163019   4.125   3.998   3.057 -1.9074  0.5412 -1.2910
13868TIP3    H263020   4.190   4.130   3.093 -1.5685 -0.2214  0.9449
13869TIP3   OH263021   2.264   5.045   3.181  0.5110  0.3555 -0.1129
13869TIP3    H163022   2.269   4.961   3.136  0.4038  0.1445  0.2693
13869TIP3    H263023   2.177   5.047   3.221  0.7241  0.3957  0.3609
13870TIP3   OH263024   0.663   5.229   4.880 -0.6832 -0.3213  0.6895
13870TIP3    H163025   0.588   5.170   4.870 -0.4198 -0.5682  0.1129
13870TIP3    H263026   0.728   5.178   4.926 -0.1645 -0.7549 -0.4981
13871TIP3   OH263027   1.246   0.043  14.138 -0.1349 -0.3957  0.2056
13871TIP3    H163028   1.329   0.013  14.174 -0.0081 -0.0369  0.2125
13871TIP3    H263029   1.190   0.057  14.214 -0.5069 -1.5193  0.1564
13872TIP3   OH263030   6.259   0.528   4.965 -0.5176 -0.5901 -0.0507
13872TIP3    H163031   6.354   0.536   4.963 -0.6472  1.0872  0.2071
13872TIP3    H263032   6.240   0.484   5.048 -0.0596  0.3071  0.5267
13873TIP3   OH263033   4.146   4.427  11.400 -0.1977  0.7725  0.0135
13873TIP3    H163034   4.056   4.395  11.399  0.3661 -0.8369 -1.0067
13873TIP3    H263035   4.160   4.457  11.490 -1.1432 -0.7247  0.6659
13874TIP3   OH263036   1.625   5.867   1.397 -0.1444  0.1837 -0.3167
13874TIP3    H163037   1.589   5.881   1.484 -0.8850 -0.3310 -0.5323
13874TIP3    H263038   1.634   5.955   1.360  0.0122  0.3931  0.2133
13875TIP3   OH263039   4.989   3.652  12.404 -0.1550 -0.3549  0.1062
13875TIP3    H163040   4.941   3.733  12.384  1.5626  0.7301  0.2522
13875TIP3    H263041   4.943   3.615  12.480 -0.9318  0.5082  0.0696
13876TIP3   OH263042   2.708   5.250  15.316 -1.0751 -0.2332  0.0711
13876TIP3    H163043   2.668   5.176  15.271 -1.6566  0.6042 -0.8150
13876TIP3    H263044   2.684   5.326  15.263  0.5733  0.4472  0.2753
13877TIP3   OH263045   3.406   3.914  16.422  0.3876 -0.3152 -0.5373
13877TIP3    H163046   3.367   3.828  16.406  1.0603 -1.1498  2.0803
13877TIP3    H263047   3.498   3.903  16.399  0.7672 -0.7306  1.0801
13878TIP3   OH263048   5.651   3.449  15.494 -0.3229 -0.5840  0.2637
13878TIP3    H163049   5.646   3.393  15.417  1.8524  1.6079 -1.5803
13878TIP3    H263050   5.592   3.522  15.475  0.0693 -0.1317  0.7477
13879TIP3   OH263051   0.879   6.586   3.441  0.0931 -0.0370 -0.4516
13879TIP3    H163052   0.933   6.577   3.362  0.3112  0.5307 -0.3641
13879TIP3    H263053   0.837   6.500   3.450 -1.3355  0.4641 -2.1977
13880TIP3   OH263054   0.479   0.977  16.094  1.0944  0.2059 -0.2016
13880TIP3    H163055   0.549   0.912  16.093 -0.5729 -1.6443 -3.0331
13880TIP3    H263056   0.401   0.929  16.121  0.2706  1.4980 -0.2273
13881TIP3   OH263057   3.987   0.492  15.494  0.0137 -0.0581  0.2304
13881TIP3    H163058   4.064   0.437  15.509 -1.0040 -1.6353 -0.1770
13881TIP3    H263059   3.924   0.463  15.560 -0.3700  0.9656  0.3237
13882TIP3   OH263060   3.398   0.219   5.487 -0.0837 -0.3617 -0.2798
13882TIP3    H163061   3.484   0.262   5.488 -1.3777  2.3252 -1.5248
13882TIP3    H263062   3.347   0.265   5.554 -0.8044 -1.4871 -0.0304
13883TIP3   OH263063   1.198   1.975   4.157  0.0807  0.4466 -0.4186
13883TIP3    H163064   1.275   1.924   4.131  2.2888  3.3267  0.1963
13883TIP3    H263065   1.153   1.992   4.075  1.4559  0.8156 -1.1191
13884TIP3   OH263066   3.071   0.147   4.683 -0.3393 -0.1065 -0.3153
13884TIP3    H163067   3.048   0.235   4.653 -0.7334 -0.4929 -1.1731
13884TIP3    H263068   3.062   0.151   4.778  0.0842  0.9016 -0.3161
13885TIP3   OH263069   3.087   4.780   0.811 -0.1261  0.0269 -0.1019
13885TIP3    H163070   3.143   4.705   0.791 -0.6697 -0.0049 -1.5723
13885TIP3    H263071   3.133   4.855   0.774 -0.2784  0.2252  0.1078
13886TIP3   OH263072   2.534   0.056   2.794 -0.5819  0.0400  0.2940
13886TIP3    H163073   2.586   0.030   2.718  1.0186 -0.7797  1.6370
13886TIP3    H263074   2.490   0.137   2.766  0.5479  0.1548 -1.2517
13887TIP3   OH263075   2.136   3.458   5.439 -0.0183  0.3135  0.3029
13887TIP3    H163076   2.069   3.456   5.508 -0.3754  1.7754  0.0233
13887TIP3    H263077   2.219   3.462   5.487 -0.2702  1.4733  0.6762
13888TIP3   OH263078   1.227   3.366  16.504 -0.5060 -0.1717 -0.2448
13888TIP3    H163079   1.301   3.326  16.457 -0.3675 -0.7972  0.4792
13888TIP3    H263080   1.245   3.460  16.502 -0.1166 -0.2537 -0.7900
13889TIP3   OH263081   0.840   5.345   2.595 -0.0266  0.0820  0.0239
13889TIP3    H163082   0.786   5.342   2.516 -0.2125  1.2852  0.1072
13889TIP3    H263083   0.783   5.384   2.662  1.1431  1.9682 -0.0496
13890TIP3   OH263084   3.070   4.387  16.006 -0.1525  0.0937  0.5968
13890TIP3    H163085   3.078   4.292  16.007  2.7374  0.2686 -0.4806
13890TIP3    H263086   3.116   4.416  16.084  0.0333  0.6768  0.2729
13891TIP3   OH263087   1.640   4.369   4.590  0.1102  0.3973 -0.2389
13891TIP3    H163088   1.670   4.459   4.600  0.8443  0.3271 -1.6829
13891TIP3    H263089   1.615   4.362   4.498 -2.2967 -0.1869  0.4302
13892TIP3   OH263090   2.536   1.237   3.593  0.4387  0.3905 -0.4272
13892TIP3    H163091   2.612   1.263   3.542 -0.1070  0.1502 -1.3801
13892TIP3    H263092   2.463   1.287   3.557 -0.2729 -1.0349 -1.0425
13893TIP3   OH263093   3.048   2.570  12.199 -0.3607  0.5940 -0.1280
13893TIP3    H163094   3.024   2.649  12.151 -0.3849  0.0154 -1.0666
13893TIP3    H263095   3.142   2.579  12.214  0.1200 -0.3534 -2.4012
13894TIP3   OH263096   5.054   0.232  11.293  0.0095 -0.2233  0.6176
13894TIP3    H163097   5.059   0.255  11.386 -0.5652 -0.3550  0.6848
13894TIP3    H263098   5.095   0.305  11.247 -0.7174  0.3739  0.9081
13895TIP3   OH263099   4.112   5.728   1.019 -0.0057 -0.5270 -0.3676
13895TIP3    H163100   4.021   5.730   1.049  0.1693 -0.5325  0.1690
13895TIP3    H263101   4.106   5.713   0.925 -0.6495  2.3085 -0.8202
13896TIP3   OH263102   2.260   1.164   3.803  0.6760 -0.1005  0.2187
13896TIP3    H163103   2.169   1.148   3.778  1.2006 -1.8677 -0.5648
13896TIP3    H263104   2.276   1.255   3.777 -0.3356 -0.3156 -1.1871
13897TIP3   OH263105   5.902   4.127   1.808 -0.3869  0.0703 -0.4688
13897TIP3    H163106   5.962   4.198   1.831 -0.3456 -0.8238  2.3176
13897TIP3    H263107   5.861   4.156   1.727  0.5237  2.7141 -0.0338
13898TIP3   OH263108   4.545   5.184   0.372  0.1715 -0.4155 -0.5048
13898TIP3    H163109   4.480   5.253   0.378 -0.1761 -0.5317 -2.5664
13898TIP3    H263110   4.510   5.123   0.308  0.4855 -2.5115  1.2521
13899TIP3   OH263111   6.519   1.766   0.691 -0.0137 -0.7552  0.3590
13899TIP3    H163112   6.452   1.801   0.633  1.5242  2.3129  0.3140
13899TIP3    H263113   6.557   1.693   0.643 -0.4140  0.2035 -1.4537
13900TIP3   OH263114   1.477   1.779  13.493 -0.2913  0.2933 -0.2252
13900TIP3    H163115   1.560   1.738  13.520  0.3546  0.7954 -1.4144
13900TIP3    H263116   1.485   1.869  13.524 -1.0033 -0.0274  0.9117
13901TIP3   OH263117   4.737   2.494   4.112 -0.2095 -0.2122 -0.2809
13901TIP3    H163118   4.712   2.405   4.091 -1.7212  0.1800 -0.1868
13901TIP3    H263119   4.830   2.499   4.088 -0.3089 -1.5719 -1.0093
13902TIP3   OH263120   6.409   0.845   1.055  0.0912  0.1708 -0.0232
13902TIP3    H163121   6.354   0.788   1.001  1.2494 -2.1479  1.1743
13902TIP3    H263122   6.389   0.820   1.145  1.8991  0.4708  0.4730
13903TIP3   OH263123   0.352   6.277   5.476 -0.6937  0.1968  0.1261
13903TIP3    H163124   0.264   6.267   5.512 -0.3424 -0.8449  0.7088
13903TIP3    H263125   0.408   6.283   5.553  0.2900 -3.9216 -0.1531
13904TIP3   OH263126   6.247   3.276  11.167 -0.7737  0.0375  0.5930
13904TIP3    H163127   6.309   3.329  11.117  1.3295 -2.2355  0.7127
13904TIP3    H263128   6.185   3.244  11.102 -0.2327  0.1109  0.0388
13905TIP3   OH263129   2.323   0.273   0.300 -0.3668  0.2071 -0.4158
13905TIP3    H163130   2.345   0.294   0.209 -0.5779 -0.2963 -0.5870
13905TIP3    H263131   2.405   0.286   0.349 -0.1689  0.1573 -0.7338
13906TIP3   OH263132   3.572   2.674   2.069 -0.2023  0.0280 -0.2956
13906TIP3    H163133   3.490   2.709   2.034  0.1898 -0.4613 -1.7527
13906TIP3    H263134   3.639   2.733   2.036  0.1261 -0.1197  0.1087
13907TIP3   OH263135   3.127   1.494  16.487  0.1443 -0.3185 -0.0713
13907TIP3    H163136   3.114   1.415  16.540 -2.5226 -0.2717 -0.5765
13907TIP3    H263137   3.158   1.460  16.403 -1.8362 -0.9574 -0.5819
13908TIP3   OH263138   4.800   5.128  13.754  0.0338 -0.0891  0.2480
13908TIP3    H163139   4.775   5.042  13.788  0.3521 -0.0230  0.6486
13908TIP3    H263140   4.717   5.176  13.748 -0.1223 -0.3636  0.1853
13909TIP3   OH263141   2.559   1.184  14.351  0.0210 -0.0393 -0.1906
13909TIP3    H163142   2.546   1.089  14.356  0.6367 -0.0894  0.5090
13909TIP3    H263143   2.593   1.209  14.437  0.3305  0.7424 -0.5274
13910TIP3   OH263144   1.598   1.915   5.888  0.1301 -0.3022 -0.0280
13910TIP3    H163145   1.522   1.960   5.924  1.4263  1.3236  0.7658
13910TIP3    H263146   1.593   1.827   5.925 -1.8282 -0.5003 -0.7104
13911TIP3   OH263147   5.491   5.142  14.095  0.3859 -0.5665 -0.4035
13911TIP3    H163148   5.569   5.145  14.039  0.3886 -2.3909 -0.5206
13911TIP3    H263149   5.436   5.213  14.062  2.1791  1.0562 -0.0204
13912TIP3   OH263150   1.875   1.366  15.399  0.0054  0.2852  0.0079
13912TIP3    H163151   1.790   1.375  15.443 -1.4316  4.0207 -3.2521
13912TIP3    H263152   1.938   1.405  15.460 -1.1724  0.8421  0.8889
13913TIP3   OH263153   2.480   6.627  16.862  0.0602 -0.2173 -0.4351
13913TIP3    H163154   2.441   6.704  16.902  1.1379  0.9913 -1.6867
13913TIP3    H263155   2.570   6.627  16.894  1.3270  1.5005 -3.8161
13914TIP3   OH263156   3.713   2.969   0.480  1.0854 -0.1842  0.8193
13914TIP3    H163157   3.701   2.888   0.431  2.4149 -0.7392  1.4058
13914TIP3    H263158   3.645   2.966   0.548  0.4164 -0.2754  0.1507
13915TIP3   OH263159   6.153   0.723  11.678 -0.7627  0.4047  0.1532
13915TIP3    H163160   6.155   0.627  11.683  1.2815  0.4340  0.5648
13915TIP3    H263161   6.072   0.743  11.631 -1.0200 -1.5445 -0.2953
13916TIP3   OH263162   6.208   3.379   3.882  0.6300  0.2748  0.3580
13916TIP3    H163163   6.162   3.382   3.799  0.7265 -0.1386  0.2896
13916TIP3    H263164   6.258   3.460   3.885 -1.1484  1.3683  1.0373
13917TIP3   OH263165   6.291   1.379   6.001 -0.1411  0.2900 -0.4006
13917TIP3    H163166   6.261   1.336   6.081  1.4060 -0.8539 -0.4064
13917TIP3    H263167   6.380   1.346   5.988 -0.6791 -0.2554 -3.0806
13918TIP3   OH263168   4.055   1.016   5.605 -0.3295 -0.2018  0.0354
13918TIP3    H163169   4.148   1.033   5.588 -0.5398  0.1897 -0.7666
13918TIP3    H263170   4.042   1.041   5.697  0.0111  1.2733 -0.2938
13919TIP3   OH263171   3.826   4.099  13.514 -0.1846 -0.2590 -0.2968
13919TIP3    H163172   3.861   4.130  13.430  0.3896 -0.1461 -0.0135
13919TIP3    H263173   3.735   4.128  13.514  0.6204  2.3436  0.4229
13920TIP3   OH263174   3.231   1.716  14.315 -0.2906 -0.1010  0.4010
13920TIP3    H163175   3.288   1.667  14.374 -1.2614  0.6922  2.0490
13920TIP3    H263176   3.149   1.726  14.363 -0.5683  1.9522 -0.4202
13921TIP3   OH263177   0.605   4.728   5.243 -0.2175  0.1877  0.0351
13921TIP3    H163178   0.612   4.637   5.275  2.9068  0.5987  0.6390
13921TIP3    H263179   0.625   4.781   5.320  1.1933  1.3168 -1.1003
13922TIP3   OH263180   4.702   4.874   5.693  0.3552  0.0605 -0.2304
13922TIP3    H163181   4.702   4.781   5.715 -1.4676  0.2330  0.5959
13922TIP3    H263182   4.733   4.918   5.772 -0.3137  0.2679 -0.0831
13923TIP3   OH263183   5.397   1.918  11.725 -0.3167 -0.4413  0.1587
13923TIP3    H163184   5.394   1.898  11.819  0.9081  0.1450  0.3329
13923TIP3    H263185   5.463   1.987  11.717 -1.9893  1.0810 -0.8684
13924TIP3   OH263186   2.926   1.185  15.122  0.0908  0.1186  0.8515
13924TIP3    H163187   2.887   1.195  15.209 -0.3047  0.8328  0.5889
13924TIP3    H263188   3.016   1.214  15.132 -0.3140  1.4198  0.7172
13925TIP3   OH263189   6.774   2.239  15.798 -0.1309 -0.1049  0.1101
13925TIP3    H163190   6.833   2.280  15.862  0.8664  0.0520 -0.8890
13925TIP3    H263191   6.697   2.213  15.849  1.1073 -0.9784  1.5744
13926TIP3   OH263192   2.640   4.519  16.423  0.5041 -0.2479 -0.5635
13926TIP3    H163193   2.577   4.464  16.377 -0.4981 -0.3678  0.9330
13926TIP3    H263194   2.663   4.469  16.501  0.5696  0.8853  0.1485
13927TIP3   OH263195   2.408   5.802  12.728 -0.0970 -0.0124  0.2942
13927TIP3    H163196   2.418   5.750  12.648 -0.3346 -0.8462  0.8003
13927TIP3    H263197   2.323   5.775  12.763  0.1603  0.1029  1.0056
13928TIP3   OH263198   5.831   4.635  10.822 -0.0907 -0.1118  0.1657
13928TIP3    H163199   5.867   4.603  10.905 -0.2292 -2.1294 -0.5350
13928TIP3    H263200   5.755   4.688  10.847  0.3557 -0.0182  1.3576
13929TIP3   OH263201   5.690   1.108  10.380 -0.8761 -0.3773  0.5540
13929TIP3    H163202   5.711   1.199  10.357 -0.6952 -0.5576  0.0023
13929TIP3    H263203   5.616   1.085  10.324 -1.2878 -0.3899  1.0986
13930TIP3   OH263204   3.033   0.165  14.787 -0.6317  0.4839 -0.4835
13930TIP3    H163205   3.112   0.161  14.841 -0.6641 -2.3292 -0.5369
13930TIP3    H263206   3.028   0.256  14.757  0.6428  1.5478  2.3652
13931TIP3   OH263207   2.290   6.097  13.883  0.3999 -0.0112  0.0480
13931TIP3    H163208   2.363   6.119  13.942 -0.0765  3.2528 -0.5255
13931TIP3    H263209   2.324   6.114  13.795 -0.3195 -0.7154 -0.3774
13932TIP3   OH263210   2.301   3.790  11.540  0.4386  0.1637 -0.2820
13932TIP3    H163211   2.329   3.809  11.630 -1.1013 -1.9125  0.6877
13932TIP3    H263212   2.358   3.718  11.513  0.3848  0.2762 -0.6929
13933TIP3   OH263213   2.886   1.899   5.851  0.5497 -0.8548 -0.5489
13933TIP3    H163214   2.817   1.954   5.889  0.7187 -1.6119  0.8903
13933TIP3    H263215   2.935   1.957   5.794  1.1193  0.6600  1.4318
13934TIP3   OH263216   1.626   4.239  12.614 -0.5738 -0.4206  0.3614
13934TIP3    H163217   1.639   4.180  12.540  1.5912 -0.9901  1.1684
13934TIP3    H263218   1.588   4.318  12.575  2.4335  0.1019 -1.7003
13935TIP3   OH263219   2.716   1.724  13.960  0.3179  0.1770 -0.3155
13935TIP3    H163220   2.733   1.651  13.901  0.3105 -0.4487  0.4525
13935TIP3    H263221   2.738   1.802  13.908 -0.1448 -0.3394 -1.2978
13936TIP3   OH263222   6.077   4.580   4.449  0.1138 -0.1625  0.0811
13936TIP3    H163223   6.093   4.525   4.526 -0.0279 -0.5630 -0.1713
13936TIP3    H263224   6.151   4.640   4.446  0.8724 -1.1113 -0.3031
13937TIP3   OH263225   6.480   0.190  12.255 -0.5733  0.4760  0.1404
13937TIP3    H163226   6.546   0.215  12.320  1.2283 -0.4037 -1.2837
13937TIP3    H263227   6.507   0.236  12.175 -1.5358 -0.1357 -0.5443
13938TIP3   OH263228   4.658   5.200  15.172  0.5174 -0.3174  0.6509
13938TIP3    H163229   4.655   5.122  15.116 -0.4675 -1.0933  1.7591
13938TIP3    H263230   4.729   5.182  15.234  0.4806 -0.1993  0.7276
13939TIP3   OH263231   1.891   3.360   0.911 -0.2465  0.2209 -0.2950
13939TIP3    H163232   1.870   3.267   0.899  2.5452 -0.5705  0.6196
13939TIP3    H263233   1.821   3.393   0.968 -0.5790 -1.6172  0.3929
13940TIP3   OH263234   1.276   1.504  16.687  0.3514  0.0347  0.2680
13940TIP3    H163235   1.321   1.581  16.723 -1.7642  0.6268  1.7778
13940TIP3    H263236   1.188   1.536  16.666 -0.3047 -1.7920  0.1693
13941TIP3   OH263237   0.134   6.587  17.040  0.1028 -0.1608  0.1430
13941TIP3    H163238   0.111   6.502  17.004  1.7027  0.1439 -1.6741
13941TIP3    H263239   0.065   6.646  17.008  0.7095 -0.1856 -1.2782
13942TIP3   OH263240   6.626   6.427   2.317  0.3029 -0.3452 -0.1054
13942TIP3    H163241   6.714   6.393   2.333 -0.5872 -2.3088  0.8138
13942TIP3    H263242   6.640   6.514   2.280  2.6992 -1.7803 -2.7447
13943TIP3   OH263243   6.526   0.563   3.600 -0.2112 -0.5750 -0.0242
13943TIP3    H163244   6.539   0.542   3.507 -0.9422 -1.7304  0.1196
13943TIP3    H263245   6.605   0.531   3.643 -0.6376 -1.6723 -0.0230
13944TIP3   OH263246   6.335   4.367   5.372  0.1621 -0.1362  0.0329
13944TIP3    H163247   6.390   4.367   5.450  3.0941 -0.4968 -1.9369
13944TIP3    H263248   6.267   4.302   5.391 -0.4216  1.2878  3.0547
13945TIP3   OH263249   5.935   1.459   0.027  0.1756 -0.2863  0.0392
13945TIP3    H163250   5.852   1.437  -0.016  0.7082  0.9303 -1.6862
13945TIP3    H263251   5.980   1.376   0.037 -0.9078 -0.8549  0.2426
13946TIP3   OH263252   0.180   5.593   5.401 -0.5444 -0.5366 -0.1861
13946TIP3    H163253   0.198   5.683   5.373 -0.7646 -0.1291  0.9692
13946TIP3    H263254   0.092   5.597   5.438 -0.1066 -0.9874  0.9132
13947TIP3   OH263255   4.132   0.865  14.786  0.0389  0.3117  0.4735
13947TIP3    H163256   4.097   0.776  14.794  1.2256 -0.0602  1.7430
13947TIP3    H263257   4.222   0.853  14.758  0.3076  1.0925  0.9738
13948TIP3   OH263258   5.732   0.058   3.397 -0.4953  0.7855 -0.3961
13948TIP3    H163259   5.762   0.045   3.487  1.6318 -3.4049 -1.6079
13948TIP3    H263260   5.778   0.137   3.367 -0.2074  1.4487  1.7273
13949TIP3   OH263261   5.616   2.948  16.703 -0.2529 -0.2517  1.2744
13949TIP3    H163262   5.709   2.924  16.707  0.2443  1.7682  2.4009
13949TIP3    H263263   5.609   3.026  16.758 -2.4069  0.2952  0.2674
13950TIP3   OH263264   4.473   6.387   3.203 -0.3236  0.4011  0.5289
13950TIP3    H163265   4.431   6.311   3.244  0.0186 -0.3538 -0.4983
13950TIP3    H263266   4.466   6.456   3.269 -0.9758 -0.4089  1.3339
13951TIP3   OH263267   0.870   4.200  10.617  0.3728 -0.1431 -0.1627
13951TIP3    H163268   0.892   4.177  10.527  1.0234  0.1427 -0.0769
13951TIP3    H263269   0.775   4.191  10.621  0.1014  1.7542 -1.4430
13952TIP3   OH263270   6.187   2.551  11.374 -0.0484  0.2661 -0.0427
13952TIP3    H163271   6.238   2.491  11.319  0.5347  0.8989 -0.2061
13952TIP3    H263272   6.218   2.534  11.463 -0.3590 -0.1341 -0.0080
13953TIP3   OH263273   1.154   0.158  12.582 -0.5079 -0.1171 -0.3946
13953TIP3    H163274   1.076   0.126  12.535 -1.3335  0.5976  0.4601
13953TIP3    H263275   1.220   0.091  12.568 -1.0358 -0.3578 -1.8014
13954TIP3   OH263276   4.214   6.539   3.035  0.0511  0.2777  0.4152
13954TIP3    H163277   4.297   6.495   3.056 -0.3668 -1.0307 -0.6407
13954TIP3    H263278   4.232   6.585   2.953 -0.2705  0.0229  0.2051
13955TIP3   OH263279   5.230   5.519  12.566 -0.3463  0.5019 -0.8748
13955TIP3    H163280   5.205   5.438  12.522 -0.5826 -0.5129  1.0584
13955TIP3    H263281   5.149   5.569  12.574 -0.9827 -0.8564  1.4875
13956TIP3   OH263282   2.771   3.966   2.571 -0.1405  0.4522  0.3476
13956TIP3    H163283   2.767   4.054   2.608 -1.1923  0.3035  0.5960
13956TIP3    H263284   2.832   3.919   2.629  0.5933  1.0726  0.0835
13957TIP3   OH263285   1.170   1.817  13.346 -0.2178 -0.1434 -0.7891
13957TIP3    H163286   1.091   1.785  13.389 -0.7611 -0.4490 -2.0150
13957TIP3    H263287   1.197   1.746  13.289 -0.1262  0.6819 -1.7959
13958TIP3   OH263288   1.581   1.467  10.849  0.4338 -0.6917 -0.2314
13958TIP3    H163289   1.574   1.398  10.914  0.2400 -0.4518  0.0043
13958TIP3    H263290   1.675   1.478  10.834  0.5054 -0.2423  0.5427
13959TIP3   OH263291   0.308   3.182   6.471  0.4241 -0.0245 -0.1288
13959TIP3    H163292   0.232   3.148   6.424  0.7617 -1.1639  0.1390
13959TIP3    H263293   0.357   3.104   6.498  2.3802  0.6962 -1.4283
13960TIP3   OH263294   6.232   6.154   5.379 -0.5165 -0.7606  0.1293
13960TIP3    H163295   6.230   6.171   5.474 -2.8184  2.6545 -0.4324
13960TIP3    H263296   6.145   6.120   5.360 -0.6931  0.2801 -0.9966
13961TIP3   OH263297   3.837   1.136  11.567 -0.0312  0.1319  0.5866
13961TIP3    H163298   3.789   1.085  11.632  0.2628  0.6026  1.1791
13961TIP3    H263299   3.889   1.072  11.518 -0.2826 -0.2248  0.7883
13962TIP3   OH263300   6.103   4.608  11.682 -0.3648 -0.1959 -0.3593
13962TIP3    H163301   6.196   4.585  11.683  0.6882  3.7158 -1.2801
13962TIP3    H263302   6.066   4.553  11.613  1.2608 -1.7355 -0.0567
13963TIP3   OH263303   1.193   4.633  11.602 -0.0299 -0.1418 -0.3407
13963TIP3    H163304   1.263   4.609  11.663  0.9210 -0.0480 -1.3691
13963TIP3    H263305   1.123   4.570  11.620  1.1008 -1.5082 -0.6371
13964TIP3   OH263306   2.442   0.246  16.218  0.1812  0.3961 -0.6061
13964TIP3    H163307   2.494   0.227  16.139  0.4951  1.9427 -0.7959
13964TIP3    H263308   2.498   0.303  16.270  0.5261 -1.7583  1.4150
13965TIP3   OH263309   0.750   6.232   1.247  0.4568 -0.7853  0.1577
13965TIP3    H163310   0.774   6.227   1.340 -0.2909  1.0345  0.4644
13965TIP3    H263311   0.656   6.250   1.247  0.6968  0.5558 -0.9156
13966TIP3   OH263312   4.508   1.063  16.887  0.0826 -0.0417 -0.8325
13966TIP3    H163313   4.438   1.055  16.951 -1.3777 -0.6233 -2.4737
13966TIP3    H263314   4.500   1.152  16.853 -0.0228 -0.1952 -1.2105
13967TIP3   OH263315   0.197   6.033  12.193 -0.0217 -0.5228 -0.4876
13967TIP3    H163316   0.290   6.045  12.175  0.1211  0.0882  0.6251
13967TIP3    H263317   0.186   5.939  12.203  0.6266 -0.5356  0.1238
13968TIP3   OH263318   5.656   5.084   3.091  0.8326 -0.4414 -0.1937
13968TIP3    H163319   5.701   5.022   3.034  0.0952  0.2928 -1.6020
13968TIP3    H263320   5.595   5.130   3.033  1.2566  1.4913  0.8419
13969TIP3   OH263321   3.847   1.997   3.565  0.1486 -0.3478  0.1197
13969TIP3    H163322   3.924   2.026   3.516 -1.2413  1.5375 -1.0565
13969TIP3    H263323   3.780   1.984   3.498 -0.3694 -2.7064  1.0493
13970TIP3   OH263324   0.224   1.694   4.347  0.3404  0.0835 -0.0101
13970TIP3    H163325   0.310   1.731   4.368  0.6750 -1.7741  2.0383
13970TIP3    H263326   0.243   1.607   4.313 -0.7252 -0.1291 -0.0817
13971TIP3   OH263327   3.980   5.805  13.585 -0.3343  0.4324 -0.2832
13971TIP3    H163328   4.014   5.716  13.573  0.7501  0.4967  1.9415
13971TIP3    H263329   4.056   5.861  13.573 -0.5939  0.9021  0.2278
13972TIP3   OH263330   4.693   5.258  11.023 -0.7440 -0.2074 -0.4330
13972TIP3    H163331   4.660   5.320  11.088 -2.5540 -0.0038 -1.5111
13972TIP3    H263332   4.785   5.245  11.046 -0.9979  0.9657  1.2898
13973TIP3   OH263333   5.139   1.404  13.198  0.0412  1.1042 -0.2357
13973TIP3    H163334   5.138   1.347  13.121 -3.1975  2.1789 -1.0605
13973TIP3    H263335   5.078   1.363  13.259 -0.9463  2.7162 -0.1077
13974TIP3   OH263336   5.782   3.516   2.711  0.0954 -0.0231 -0.0059
13974TIP3    H163337   5.815   3.531   2.622 -2.0503 -2.2631 -1.2352
13974TIP3    H263338   5.691   3.548   2.708  0.3684  0.9680  1.7360
13975TIP3   OH263339   6.151   0.998   5.099  0.6775  0.1094  0.1294
13975TIP3    H163340   6.145   0.936   5.172 -0.8421 -0.0628 -0.1333
13975TIP3    H263341   6.217   0.961   5.041  0.6322 -0.6467  0.5611
13976TIP3   OH263342   4.129   1.370   0.717  0.1922 -0.4140 -0.6784
13976TIP3    H163343   4.085   1.313   0.780  1.7664 -1.0072 -0.0794
13976TIP3    H263344   4.122   1.458   0.755 -2.4148 -0.1480 -1.7007
13977TIP3   OH263345   5.901   0.378  16.016 -0.2093  0.4722 -0.0054
13977TIP3    H163346   5.842   0.362  16.090  0.8521 -2.7692  0.2117
13977TIP3    H263347   5.935   0.291  15.993  0.5197  1.5829 -3.4462
13978TIP3   OH263348   4.351   1.952   2.103  0.6379  0.1440 -0.2058
13978TIP3    H163349   4.372   2.041   2.075  1.8196 -0.0027  0.1483
13978TIP3    H263350   4.415   1.933   2.172  1.8984 -1.8006 -1.8411
13979TIP3   OH263351   6.774   4.178  11.149  0.1685 -0.3059 -0.0878
13979TIP3    H163352   6.722   4.234  11.092  1.5198  0.6067 -0.4397
13979TIP3    H263353   6.836   4.134  11.090  0.2611 -0.8533  0.4141
13980TIP3   OH263354   1.447   6.639   4.207 -0.2038 -0.3725 -0.3161
13980TIP3    H163355   1.392   6.714   4.184  0.1008 -0.1571 -0.3453
13980TIP3    H263356   1.395   6.562   4.182 -0.6785 -0.1834  0.0662
13981TIP3   OH263357   5.921   6.052  13.654 -0.0932  0.0419  0.2849
13981TIP3    H163358   5.995   6.030  13.599 -0.3208 -1.3548  0.5178
13981TIP3    H263359   5.915   6.148  13.650  1.9566  0.1965  0.6020
13982TIP3   OH263360   1.432   5.261   4.645  0.1522 -0.2505  0.2260
13982TIP3    H163361   1.486   5.236   4.570 -0.0623 -2.9241  0.8975
13982TIP3    H263362   1.488   5.318   4.698  0.0970  2.1475 -2.2121
13983TIP3   OH263363   3.776   4.811  14.305  0.1547  0.4840 -0.0401
13983TIP3    H163364   3.744   4.723  14.328 -0.5599  0.4269 -1.2214
13983TIP3    H263365   3.739   4.828  14.219 -0.0998  2.1527  0.3861
13984TIP3   OH263366   3.961   0.137   4.184 -0.2319 -0.2591 -0.2792
13984TIP3    H163367   3.869   0.163   4.189 -0.0145  0.3724  0.5299
13984TIP3    H263368   4.004   0.187   4.253  0.8885  0.1608 -1.2657
13985TIP3   OH263369   3.141   4.844   4.751  0.4979 -0.3083 -0.3785
13985TIP3    H163370   3.155   4.916   4.813  0.6798 -1.3006  0.7577
13985TIP3    H263371   3.213   4.784   4.767  2.0766  0.6537 -3.4178
13986TIP3   OH263372   0.988   3.867  13.039  1.0340 -0.4132 -0.2506
13986TIP3    H163373   0.912   3.843  13.093  2.3044  0.6626  2.0937
13986TIP3    H263374   1.063   3.833  13.087  2.2893  1.6179 -0.7206
13987TIP3   OH263375   6.679   2.239   4.191  0.7772  0.4851 -0.2516
13987TIP3    H163376   6.724   2.281   4.118 -0.1851 -1.3811 -1.9679
13987TIP3    H263377   6.586   2.257   4.176  0.4217 -1.3901 -0.4989
13988TIP3   OH263378   0.197   5.618  14.795  0.2122  0.3256 -0.0338
13988TIP3    H163379   0.231   5.648  14.880 -0.5305  2.2703 -0.4023
13988TIP3    H263380   0.145   5.692  14.763 -4.3684 -2.4848  0.5084
13989TIP3   OH263381   5.478   1.345   5.485  0.5115 -0.0377 -0.0023
13989TIP3    H163382   5.441   1.259   5.505 -0.5784  0.8232  1.7854
13989TIP3    H263383   5.427   1.376   5.409  0.2248 -0.5353 -0.0134
13990TIP3   OH263384   5.931   2.158   2.096  0.3570 -0.3419  0.1104
13990TIP3    H163385   5.968   2.238   2.133 -1.9883  1.7191 -1.8912
13990TIP3    H263386   5.998   2.092   2.112  1.4543  1.5002  3.7034
13991TIP3   OH263387   5.548   6.430  16.418  0.4748 -0.2811 -0.2300
13991TIP3    H163388   5.462   6.459  16.388 -0.3493 -2.1766  0.2086
13991TIP3    H263389   5.606   6.447  16.344 -0.1446  1.6173 -0.2840
13992TIP3   OH263390   6.620   2.427  13.900 -0.5513 -0.0595 -0.0088
13992TIP3    H163391   6.662   2.348  13.867 -1.0297  0.2403 -1.3780
13992TIP3    H263392   6.617   2.415  13.995  2.0310 -0.3527  0.0625
13993TIP3   OH263393   4.094   4.336  16.296 -0.4031 -0.3641 -0.7836
13993TIP3    H163394   4.139   4.259  16.332  0.1645  0.3731  0.0895
13993TIP3    H263395   4.130   4.410  16.345 -0.7502  0.4925 -1.8082
13994TIP3   OH263396   2.616   5.706  12.501  0.1494 -0.6401 -0.5197
13994TIP3    H163397   2.626   5.736  12.410  1.5760 -1.5164 -0.6767
13994TIP3    H263398   2.543   5.644  12.498  0.1141 -0.5742 -1.0500
13995TIP3   OH263399   4.798   2.730   0.270 -0.2419 -0.2806 -0.5471
13995TIP3    H163400   4.864   2.794   0.246 -0.9427  0.2327 -1.1218
13995TIP3    H263401   4.731   2.781   0.317 -0.8716 -0.5641 -1.1338
13996TIP3   OH263402   0.794   1.452   5.094  0.1318  0.0758  0.0694
13996TIP3    H163403   0.778   1.544   5.115 -2.0862 -0.3099  0.1339
13996TIP3    H263404   0.723   1.428   5.034  1.5469 -1.1929 -1.1463
13997TIP3   OH263405   2.551   1.390   6.258  0.5015  0.6626 -0.0606
13997TIP3    H163406   2.617   1.356   6.197 -0.3962  1.1386 -1.3112
13997TIP3    H263407   2.484   1.322   6.261  0.4727  0.7063  0.2998
13998TIP3   OH263408   1.916   4.607  16.460 -0.4443 -0.0279 -0.5219
13998TIP3    H163409   1.999   4.634  16.498  0.4394 -1.7094 -1.2115
13998TIP3    H263410   1.860   4.587  16.535  0.0845  0.2265 -0.0600
13999TIP3   OH263411   1.025   0.048  14.393 -0.3486  0.4806  0.1922
13999TIP3    H163412   0.947   0.079  14.347  0.0303  3.3625  1.3718
13999TIP3    H263413   1.047  -0.035  14.350 -3.4960  0.0776 -0.7724
14000TIP3   OH263414   3.092   3.838   3.576  0.1920  0.2135  0.1360
14000TIP3    H163415   3.171   3.818   3.627  0.3039 -0.0526 -0.1363
14000TIP3    H263416   3.125   3.875   3.494  0.1355 -1.6552 -0.7768
14001TIP3   OH263417   0.203   1.884  12.452  0.2049  0.6405 -0.2722
14001TIP3    H163418   0.122   1.840  12.477  1.4032 -1.8299 -0.6631
14001TIP3    H263419   0.189   1.975  12.479 -2.0270 -0.0900  1.2169
14002TIP3   OH263420   5.720   6.403   3.603 -0.0270 -0.5523 -0.0906
14002TIP3    H163421   5.808   6.413   3.640 -0.3005 -2.5675  1.1952
14002TIP3    H263422   5.707   6.308   3.599 -2.3434 -0.2776  0.2292
14003TIP3   OH263423   2.870   0.771  13.763  0.5030  0.4879 -0.1101
14003TIP3    H163424   2.790   0.751  13.811  1.0605  0.7213  0.9199
14003TIP3    H263425   2.875   0.702  13.696 -0.3897  0.2967  0.0032
14004TIP3   OH263426   0.325   3.073  15.246 -0.1098 -0.3510  0.6050
14004TIP3    H163427   0.404   3.038  15.207 -0.1185  0.3303 -0.0403
14004TIP3    H263428   0.259   3.067  15.177 -0.2703  0.3389  0.6956
14005TIP3   OH263429   3.178   2.968  15.291 -0.4688 -0.1217 -0.2399
14005TIP3    H163430   3.116   2.923  15.348  0.6116 -0.9710  0.2905
14005TIP3    H263431   3.224   3.030  15.348  1.0698 -1.4307 -0.0074
14006TIP3   OH263432   4.079   5.971  15.954 -0.6249  0.1812 -0.5227
14006TIP3    H163433   4.134   5.955  15.878  0.0400  0.6070 -0.1395
14006TIP3    H263434   4.114   6.051  15.993 -3.2134  2.0126 -1.8219
14007TIP3   OH263435   2.660   3.003  15.426  0.2121 -0.8989  0.1729
14007TIP3    H163436   2.662   3.099  15.427  2.4914 -0.9323  1.4395
14007TIP3    H263437   2.700   2.980  15.342  0.5599 -0.7286  0.2873
14008TIP3   OH263438   1.494   1.463   2.059 -1.0032  0.0835 -0.2550
14008TIP3    H163439   1.510   1.369   2.061  1.0599  0.4131  0.1494
14008TIP3    H263440   1.475   1.486   2.150  0.1065  0.2847 -0.0570
14009TIP3   OH263441   4.451   1.110   0.489 -0.5060 -0.3315 -0.6563
14009TIP3    H163442   4.374   1.150   0.450 -0.0410  1.1488 -0.1112
14009TIP3    H263443   4.417   1.038   0.543 -1.4190 -0.2314 -1.0948
14010TIP3   OH263444   0.319   2.769  14.440 -0.4158  0.1964  0.1890
14010TIP3    H163445   0.399   2.717  14.429  0.1832  0.9225  1.0303
14010TIP3    H263446   0.308   2.776  14.535 -1.2317  0.4910  0.0764
14011TIP3   OH263447   2.597   3.250  16.768 -0.0939 -0.0916 -0.2068
14011TIP3    H163448   2.632   3.331  16.805 -0.1342  1.0257 -2.5773
14011TIP3    H263449   2.595   3.189  16.843 -2.4906  2.8033  2.1972
14012TIP3   OH263450   5.610   0.479  14.777  0.1841  0.5921  0.6029
14012TIP3    H163451   5.670   0.473  14.702 -0.4861 -1.9728  0.2036
14012TIP3    H263452   5.666   0.467  14.854  0.4412  0.0979  0.3372
14013TIP3   OH263453   6.349   5.333   6.933 -0.0872  0.0762  0.1640
14013TIP3    H163454   6.328   5.242   6.953  0.2242  0.0817  0.5338
14013TIP3    H263455   6.430   5.329   6.883 -0.7446  0.0790 -0.9053
14014TIP3   OH263456   1.360   6.209   5.507  0.0488 -0.1820 -0.0846
14014TIP3    H163457   1.389   6.298   5.528 -1.0302  0.1273  0.1298
14014TIP3    H263458   1.361   6.163   5.590  1.6749 -0.6846 -0.3801
14015TIP3   OH263459   0.331   4.331  13.960 -0.1907 -0.2562  0.5028
14015TIP3    H163460   0.321   4.366  14.048 -0.7573  0.9707 -0.0371
14015TIP3    H263461   0.285   4.393  13.904  1.7190 -0.0291 -0.8669
14016TIP3   OH263462   5.115   1.430   1.496  0.4483 -0.0416 -0.4773
14016TIP3    H163463   5.069   1.503   1.538 -0.8302 -1.2964  0.3786
14016TIP3    H263464   5.165   1.470   1.425 -0.4990  1.6205 -0.2296
14017TIP3   OH263465   2.293   5.831   5.031 -1.1217 -0.0191  0.1062
14017TIP3    H163466   2.327   5.913   5.064  1.3647  0.3757 -3.1540
14017TIP3    H263467   2.369   5.772   5.028 -2.1645 -1.3716 -0.6749
14018TIP3   OH263468   1.448   5.377   2.360  0.4007  0.3257 -0.0592
14018TIP3    H163469   1.448   5.310   2.428  0.9797 -0.6663 -1.0148
14018TIP3    H263470   1.526   5.429   2.379  0.1521  0.5071  0.4741
14019TIP3   OH263471   1.541   0.535  12.599  0.1080  0.1587 -0.5570
14019TIP3    H163472   1.598   0.515  12.674  1.5672 -0.6260 -1.8589
14019TIP3    H263473   1.499   0.618  12.622  2.1722  1.0028  0.1997
14020TIP3   OH263474   2.859   5.607   1.676  0.5436  0.2109 -0.8892
14020TIP3    H163475   2.826   5.696   1.687  0.6723 -0.0671  2.3033
14020TIP3    H263476   2.798   5.566   1.615 -0.2609  2.1019 -1.3929
14021TIP3   OH263477   2.668   0.944   3.026  0.5117 -0.1978 -0.4670
14021TIP3    H163478   2.691   1.034   3.004  0.0217  0.3439  1.1348
14021TIP3    H263479   2.581   0.932   2.989  0.4766  0.0709 -0.4733
14022TIP3   OH263480   1.247   6.433   2.185 -1.0197 -0.2449 -0.6056
14022TIP3    H163481   1.256   6.480   2.102 -0.3174  0.5068 -0.1198
14022TIP3    H263482   1.281   6.494   2.250 -0.4611 -1.2807  0.0881
14023TIP3   OH263483   6.212   6.123   1.639 -1.1198 -0.6776  0.4146
14023TIP3    H163484   6.302   6.131   1.670 -0.5887 -0.6848 -1.0852
14023TIP3    H263485   6.159   6.119   1.719  0.0740  0.7413  1.2917
14024TIP3   OH263486   3.320   4.709   3.044 -0.1505  0.0657 -0.1633
14024TIP3    H163487   3.235   4.749   3.060  0.0211  0.4574 -0.2247
14024TIP3    H263488   3.372   4.778   3.004  1.1184  0.7335  2.5474
14025TIP3   OH263489   6.463   2.979  15.906 -0.0046 -0.2267 -0.4362
14025TIP3    H163490   6.493   2.888  15.917 -1.2295 -0.6409 -0.4272
14025TIP3    H263491   6.416   2.999  15.987 -0.3619  0.1691 -0.7386
14026TIP3   OH263492   0.314   5.145  13.687  0.5392  0.2385 -0.4535
14026TIP3    H163493   0.304   5.049  13.692 -0.6094  0.2266 -2.2009
14026TIP3    H263494   0.235   5.179  13.729 -0.1759  0.3678 -1.8715
14027TIP3   OH263495   0.816   5.469   6.934 -0.2935 -0.4016 -0.0454
14027TIP3    H163496   0.793   5.484   6.843  0.0017 -0.3113 -0.1046
14027TIP3    H263497   0.799   5.552   6.978  0.4594 -0.1620 -0.1979
14028TIP3   OH263498   2.131   3.124   2.944  0.0161  0.0869 -0.0861
14028TIP3    H163499   2.205   3.074   2.980 -1.2400 -2.9239 -1.4472
14028TIP3    H263500   2.068   3.130   3.015  0.7865  1.0525  0.5261
14029TIP3   OH263501   0.274   1.598   2.079  0.1182  0.3632  0.2661
14029TIP3    H163502   0.222   1.518   2.085  0.0611  0.2719 -1.3678
14029TIP3    H263503   0.211   1.665   2.052  0.3722  0.7509  0.6364
14030TIP3   OH263504   3.388   5.647  11.432 -0.1140 -0.6207  0.1142
14030TIP3    H163505   3.340   5.644  11.515 -0.6469 -2.2393 -0.2421
14030TIP3    H263506   3.322   5.633  11.365  0.3862  0.2382 -0.5611
14031TIP3   OH263507   2.073   4.852  11.458 -0.1382  0.3337  0.6287
14031TIP3    H163508   2.156   4.807  11.477  0.1098  1.2970  1.9138
14031TIP3    H263509   2.009   4.807  11.512 -0.3923 -0.1809 -0.0963
14032TIP3   OH263510   6.622   0.325   1.913 -0.0688  0.2213 -0.3393
14032TIP3    H163511   6.604   0.419   1.901 -1.5942  0.2640  1.9041
14032TIP3    H263512   6.709   0.322   1.954  0.2822  0.6122 -1.0474
14033TIP3   OH263513   4.970   4.260   5.759 -0.0381  0.1126 -0.2121
14033TIP3    H163514   4.979   4.173   5.719  2.0939 -0.0431  0.5405
14033TIP3    H263515   5.037   4.313   5.716 -2.0690  1.7583 -1.5021
14034TIP3   OH263516   3.429   1.131  14.592 -0.0287  0.5196  0.2503
14034TIP3    H163517   3.474   1.048  14.578 -0.8572 -0.1747  1.5833
14034TIP3    H263518   3.395   1.125  14.682 -2.8718  0.9624 -0.7569
14035TIP3   OH263519   6.282   4.507  11.223  0.6944 -0.6107  0.3922
14035TIP3    H163520   6.223   4.433  11.205 -0.1856  0.5053 -1.5201
14035TIP3    H263521   6.344   4.473  11.287 -0.3132 -2.7003  0.3170
14036TIP3   OH263522   0.537   4.588   1.408 -0.2428 -0.1860  0.1480
14036TIP3    H163523   0.528   4.499   1.373 -0.0105  0.5926 -1.9632
14036TIP3    H263524   0.609   4.581   1.472 -0.2523 -1.5102  0.0248
14037TIP3   OH263525   4.916   0.681   5.649 -0.3739 -0.5333 -0.2948
14037TIP3    H163526   4.932   0.587   5.654 -0.5441 -0.5146  0.7240
14037TIP3    H263527   4.821   0.689   5.638 -0.1048 -0.5414 -2.7429
14038TIP3   OH263528   6.356   4.526  11.843 -0.4405  0.3498  0.2275
14038TIP3    H163529   6.335   4.510  11.935 -1.1224  0.6892  0.1347
14038TIP3    H263530   6.440   4.571  11.846 -0.3332  0.1269  0.6722
14039TIP3   OH263531   0.970   5.258   2.874 -1.1816  0.6335  0.1267
14039TIP3    H163532   1.045   5.204   2.851  1.2231  2.8837  2.3732
14039TIP3    H263533   0.896   5.197   2.875  1.1842 -2.3377  1.2736
14040TIP3   OH263534   0.122   4.533  12.392 -0.3560 -0.3730 -0.4534
14040TIP3    H163535   0.074   4.484  12.460  0.1879 -1.0075 -0.5224
14040TIP3    H263536   0.054   4.581  12.345 -0.7241  0.2123  0.6549
14041TIP3   OH263537   5.540   2.565   4.858 -0.1420  0.7075 -0.1934
14041TIP3    H163538   5.555   2.649   4.902  1.1458  0.1269  0.4902
14041TIP3    H263539   5.627   2.538   4.828 -0.5984 -0.2468 -0.6580
14042TIP3   OH263540   3.454   3.281   0.693 -0.6466  0.8131 -0.3379
14042TIP3    H163541   3.522   3.253   0.754  0.2867  2.7933 -0.4211
14042TIP3    H263542   3.407   3.351   0.739 -0.6382  1.5728 -1.4555
14043TIP3   OH263543   3.043   4.740   1.769  0.0624 -0.5428  0.3956
14043TIP3    H163544   3.042   4.766   1.861  0.9838 -2.2890  0.9073
14043TIP3    H263545   3.051   4.823   1.721  1.0180  0.2705  1.9231
14044TIP3   OH263546   1.245   4.419  12.773  0.0468 -1.2734  0.3757
14044TIP3    H163547   1.307   4.479  12.815 -1.2931  0.6041 -0.2644
14044TIP3    H263548   1.275   4.414  12.682 -0.3404 -0.8711  0.2222
14045TIP3   OH263549   3.223   2.088  14.784 -0.0649 -0.6877  0.1336
14045TIP3    H163550   3.200   2.138  14.862 -0.4606 -0.5634 -0.0614
14045TIP3    H263551   3.287   2.143  14.739  1.5742 -1.5954  1.3109
14046TIP3   OH263552   2.295   6.266   4.913  0.1813 -0.5856 -0.1881
14046TIP3    H163553   2.301   6.295   4.822  0.4505 -0.4175 -0.1154
14046TIP3    H263554   2.352   6.325   4.962 -0.6792 -0.0903  0.2278
14047TIP3   OH263555   0.369   5.698   3.664 -0.1939 -0.5206  0.2805
14047TIP3    H163556   0.433   5.728   3.728 -0.2440 -2.3967  1.2610
14047TIP3    H263557   0.393   5.607   3.647 -1.0522 -0.4730 -1.2960
14048TIP3   OH263558   3.208   2.810  14.519  0.1991 -0.4071  0.2722
14048TIP3    H163559   3.165   2.873  14.578 -0.7421  0.5914 -1.4231
14048TIP3    H263560   3.275   2.769  14.573 -0.0757  1.0818  1.8085
14049TIP3   OH263561   2.672   2.564   5.421  0.0736  0.2037  0.1223
14049TIP3    H163562   2.768   2.570   5.428 -0.0778  2.6950  0.7384
14049TIP3    H263563   2.643   2.550   5.511 -0.2750  2.3291  0.3616
14050TIP3   OH263564   4.609   6.026  16.036  0.3944  0.0777 -0.9810
14050TIP3    H163565   4.676   6.062  16.094  1.3132  0.2304 -2.1028
14050TIP3    H263566   4.577   6.102  15.987  1.1020 -0.3487 -2.1253
14051TIP3   OH263567   4.506   1.887  15.772 -0.1471  0.4306 -0.4152
14051TIP3    H163568   4.598   1.913  15.768 -0.1624  0.6694  0.6268
14051TIP3    H263569   4.508   1.792  15.757  0.5093  0.0493  1.8619
14052TIP3   OH263570   2.026   4.487   4.207  0.4218  0.0147 -0.1199
14052TIP3    H163571   1.942   4.443   4.212 -0.9425  2.2597 -2.4423
14052TIP3    H263572   2.091   4.416   4.211 -1.5861 -1.8625 -0.1329
14053TIP3   OH263573   1.455   1.940   4.884 -0.0935 -0.1808 -0.6368
14053TIP3    H163574   1.461   1.978   4.972 -0.9275  1.3786 -1.2485
14053TIP3    H263575   1.530   1.977   4.837 -1.7905  1.9618 -1.6959
14054TIP3   OH263576   0.864   3.222   2.587  0.0389 -0.0391 -0.0390
14054TIP3    H163577   0.793   3.278   2.555 -0.3776 -0.5307  0.0248
14054TIP3    H263578   0.844   3.208   2.679 -0.1770 -0.7655 -0.1878
14055TIP3   OH263579   6.047   5.605  12.509  0.4905  0.1349  0.0476
14055TIP3    H163580   5.958   5.579  12.532 -0.0346  1.9080  0.1161
14055TIP3    H263581   6.061   5.688  12.556  1.6917  0.5534 -1.0138
14056TIP3   OH263582   4.195   5.430   3.835  0.2918  0.6696  0.2619
14056TIP3    H163583   4.280   5.405   3.872 -0.3430 -0.7781  0.7731
14056TIP3    H263584   4.136   5.434   3.910 -0.6816 -0.9280 -0.3776
14057TIP3   OH263585   5.289   3.949   3.601 -0.1642 -0.7318  0.1383
14057TIP3    H163586   5.362   4.011   3.603 -1.9295  1.3677  2.2068
14057TIP3    H263587   5.282   3.918   3.691 -3.3646  1.0020  0.5614
14058TIP3   OH263588   1.152   3.960   3.010  0.1095  0.0461 -0.1188
14058TIP3    H163589   1.220   4.014   3.051  0.6741 -0.4081 -0.4412
14058TIP3    H263590   1.112   3.913   3.083  0.2501  0.2052  0.0607
14059TIP3   OH263591   0.318   3.637   0.451  0.2264 -0.5279  0.0451
14059TIP3    H163592   0.405   3.629   0.412 -0.0866 -1.3339 -0.5169
14059TIP3    H263593   0.281   3.716   0.412  1.2713  0.6529  1.4250
14060TIP3   OH263594   3.581   5.450   2.253  0.0481  0.3863 -0.2935
14060TIP3    H163595   3.588   5.503   2.332  1.8511  2.1718 -1.6149
14060TIP3    H263596   3.495   5.473   2.216 -0.3180  0.3684  0.5275
14061TIP3   OH263597   1.696   2.200  10.967 -0.3602 -0.3247 -0.1431
14061TIP3    H163598   1.604   2.225  10.957 -0.2017  1.3170  2.1593
14061TIP3    H263599   1.693   2.108  10.993 -1.3865 -0.0313  0.8013
14062TIP3   OH263600   4.044   0.705   2.325 -0.5494  0.6729  0.1347
14062TIP3    H163601   4.133   0.685   2.297 -0.6495  0.0167  0.2721
14062TIP3    H263602   3.988   0.656   2.265 -0.8375  1.6304 -0.3840
14063TIP3   OH263603   3.622   0.558  15.146 -0.2885 -0.1510 -0.1641
14063TIP3    H163604   3.712   0.525  15.145  0.0021  0.6080  0.6609
14063TIP3    H263605   3.632   0.653  15.154 -1.1617 -0.0488 -0.2751
14064TIP3   OH263606   5.716   6.441   1.788  0.3026  0.4158  0.0594
14064TIP3    H163607   5.663   6.493   1.728  0.1658  0.5089  0.2592
14064TIP3    H263608   5.784   6.502   1.818  0.3824  0.3638 -0.0142
14065TIP3   OH263609   1.316   1.425  12.101 -0.3550 -0.0283 -0.0695
14065TIP3    H163610   1.272   1.340  12.106 -0.9977  0.2508 -0.8993
14065TIP3    H263611   1.377   1.416  12.028  0.1136 -0.0183  0.3188
14066TIP3   OH263612   6.547   4.915  13.525  0.2232 -0.2883 -0.3384
14066TIP3    H163613   6.480   4.936  13.459  1.2714  2.2435 -0.6472
14066TIP3    H263614   6.498   4.904  13.606 -0.6199  1.3718 -0.5953
14067TIP3   OH263615   3.933   5.237  13.401  0.0853  0.3581 -0.2936
14067TIP3    H163616   3.947   5.313  13.458  1.1243 -0.3023  0.3701
14067TIP3    H263617   3.998   5.173  13.431 -1.7724 -1.3643  0.1632
14068TIP3   OH263618   0.362   4.603   3.267  0.4131 -0.3487 -0.9047
14068TIP3    H163619   0.367   4.514   3.303  0.6243  0.6413  1.6776
14068TIP3    H263620   0.270   4.616   3.246  0.3568 -1.1258 -1.1415
14069TIP3   OH263621   5.928   1.908  12.861 -0.2006  0.1887 -0.5902
14069TIP3    H163622   5.839   1.925  12.829 -0.1790 -0.3986 -0.9771
14069TIP3    H263623   5.923   1.821  12.900  0.3420 -0.1026 -1.1504
14070TIP3   OH263624   6.686   5.656  15.832  0.7704 -0.0919 -0.3011
14070TIP3    H163625   6.628   5.693  15.898  1.6972  0.5627  0.1622
14070TIP3    H263626   6.739   5.592  15.880  1.1316  0.0581 -0.4983
14071TIP3   OH263627   2.251   1.537   4.532 -0.0923  0.2618 -0.6515
14071TIP3    H163628   2.309   1.477   4.484  2.4295  1.5201  0.7218
14071TIP3    H263629   2.291   1.624   4.519 -2.0559  1.2516 -0.2087
14072TIP3   OH263630   1.554   0.437  13.086 -0.0999  0.4295  0.2909
14072TIP3    H163631   1.462   0.415  13.102 -0.1570  0.4943  0.0539
14072TIP3    H263632   1.597   0.353  13.073 -0.1818  0.4146  0.1099
14073TIP3   OH263633   6.386   4.960  14.674  0.5670  0.1916 -0.0971
14073TIP3    H163634   6.297   4.990  14.690  0.7345 -0.0070  1.3101
14073TIP3    H263635   6.411   5.000  14.591 -1.2679 -0.7629 -1.1107
14074TIP3   OH263636   5.032   0.175   1.475  0.2963  0.0393  0.1637
14074TIP3    H163637   4.972   0.130   1.415  0.4604  0.9955 -0.7358
14074TIP3    H263638   4.990   0.168   1.561 -0.1861 -0.9120 -0.1463
14075TIP3   OH263639   5.562   3.166   5.767 -0.0586  0.2116 -0.0581
14075TIP3    H163640   5.547   3.233   5.833  3.1221  1.4105 -0.4179
14075TIP3    H263641   5.507   3.192   5.693 -0.1429  1.5038  0.4486
14076TIP3   OH263642   3.006   2.274   3.954 -0.3682  0.1643  0.0455
14076TIP3    H163643   2.989   2.325   3.875  1.5324 -0.7790 -0.9916
14076TIP3    H263644   3.078   2.320   3.998  0.3160 -0.7516 -0.1020
14077TIP3   OH263645   4.481   4.030  12.885  0.2718 -0.1208 -0.4133
14077TIP3    H163646   4.439   3.960  12.834  2.7922 -1.4093 -0.7655
14077TIP3    H263647   4.501   3.989  12.969  1.9471  0.0973 -0.6936
14078TIP3   OH263648   6.674   0.860   1.051  0.3024  0.2504  0.4765
14078TIP3    H163649   6.580   0.857   1.032  0.1717  1.1142  0.9690
14078TIP3    H263650   6.684   0.932   1.113  1.4082  0.6745 -0.1882
14079TIP3   OH263651   6.209   1.881  12.860 -0.1529 -0.0979 -0.0851
14079TIP3    H163652   6.134   1.939  12.870 -2.4000 -2.6640 -1.6075
14079TIP3    H263653   6.195   1.812  12.925  0.6512 -0.8636 -0.7114
14080TIP3   OH263654   2.016   2.765  14.222  0.0497 -0.0639  0.7871
14080TIP3    H163655   1.965   2.745  14.300  1.5146 -2.0278  1.2864
14080TIP3    H263656   2.103   2.787  14.256  1.1534 -2.4916 -0.3123
14081TIP3   OH263657   4.931   6.619   4.647  0.2753 -0.2940  0.2914
14081TIP3    H163658   4.995   6.608   4.577 -0.1907 -0.8296 -0.0538
14081TIP3    H263659   4.982   6.648   4.722  0.5271  2.4939 -0.8566
14082TIP3   OH263660   4.505   4.462   6.314  0.1913  0.5875 -0.3625
14082TIP3    H163661   4.474   4.519   6.244  0.3129  2.9259  1.4242
14082TIP3    H263662   4.600   4.479   6.318  0.1722  0.5235  0.4180
14083TIP3   OH263663   4.324   2.146  12.554  0.3601  0.3097  0.1786
14083TIP3    H163664   4.408   2.190  12.538  0.1992  0.7005  0.4114
14083TIP3    H263665   4.266   2.215  12.586 -0.2388  0.1784 -0.5977
14084TIP3   OH263666   5.342   6.470  11.690  0.4131  0.1503 -0.0595
14084TIP3    H163667   5.283   6.543  11.672  1.0147  0.9862  1.2541
14084TIP3    H263668   5.371   6.484  11.781 -0.6735 -2.5902  0.7541
14085TIP3   OH263669   0.422   4.753   4.590  0.7628 -1.1418 -0.6885
14085TIP3    H163670   0.458   4.767   4.503  2.2217  1.3413  0.2587
14085TIP3    H263671   0.378   4.835   4.612 -1.2584 -2.3894  0.1928
14086TIP3   OH263672   1.931   0.556  11.934 -0.1648 -0.4413 -0.1369
14086TIP3    H163673   1.901   0.625  11.875 -2.5228 -2.1369 -0.9745
14086TIP3    H263674   2.026   0.553  11.922 -0.3213  1.0205 -1.8506
14087TIP3   OH263675   3.834   4.160   1.356 -0.2781 -0.0584  0.3097
14087TIP3    H163676   3.867   4.215   1.427 -1.9306 -0.4976  1.4470
14087TIP3    H263677   3.909   4.107   1.330  0.7359  1.1401  0.7217
14088TIP3   OH263678   0.774   0.736   1.373 -0.0438  0.1306 -0.0024
14088TIP3    H163679   0.807   0.654   1.407  1.8388  1.0954  0.5274
14088TIP3    H263680   0.850   0.781   1.337 -1.1319  1.3975 -0.8127
14089TIP3   OH263681   0.398   3.211   1.066 -0.2217  0.3453 -0.3105
14089TIP3    H163682   0.351   3.227   1.149  0.1852 -0.2398  0.0325
14089TIP3    H263683   0.328   3.204   1.001 -0.6488 -0.9257  0.2673
14090TIP3   OH263684   2.508   2.505  11.043  0.1101 -0.2997 -0.0757
14090TIP3    H163685   2.466   2.421  11.024  2.0233 -1.2990 -0.0202
14090TIP3    H263686   2.591   2.501  10.997  0.7697  1.0613  0.9529
14091TIP3   OH263687   0.600   0.795  15.252  0.1113 -0.1247 -0.5843
14091TIP3    H163688   0.507   0.776  15.262  0.2463 -0.1290  0.6939
14091TIP3    H263689   0.621   0.766  15.163 -1.3378  0.8328 -1.2558
14092TIP3   OH263690   4.523   2.807   5.587 -0.0419 -0.5145  0.8388
14092TIP3    H163691   4.557   2.888   5.625  0.4961 -0.2370 -0.2031
14092TIP3    H263692   4.541   2.740   5.653 -0.1207  0.1422  1.5377
14093TIP3   OH263693   6.635   4.092  13.426 -0.4014  0.2820 -0.1781
14093TIP3    H163694   6.657   4.064  13.337 -0.2219  0.9063 -0.3332
14093TIP3    H263695   6.596   4.015  13.467  2.2257 -0.9022  0.1594
14094TIP3   OH263696   4.033   5.728  16.071  0.1900  0.2240 -0.0446
14094TIP3    H163697   3.942   5.740  16.097  0.2218  2.6808 -1.0218
14094TIP3    H263698   4.047   5.789  16.000  2.3306 -0.8849 -0.6269
14095TIP3   OH263699   3.364   0.823   3.307 -0.1107 -0.2896  0.4655
14095TIP3    H163700   3.370   0.819   3.402  0.9985  0.9781  0.4594
14095TIP3    H263701   3.363   0.731   3.279  0.8335 -0.6648  1.6333
14096TIP3   OH263702   5.085   0.613  14.292  0.1325 -0.3417 -0.1938
14096TIP3    H163703   5.099   0.699  14.331 -0.9754 -0.7976  1.2295
14096TIP3    H263704   5.150   0.556  14.335  0.4927 -0.3537 -0.7370
14097TIP3   OH263705   4.883   1.927  15.105 -0.1753  0.1726 -0.0318
14097TIP3    H163706   4.844   1.944  15.191 -0.8369 -0.1439 -0.2678
14097TIP3    H263707   4.932   1.846  15.116  0.3578  0.5248  0.2403
14098TIP3   OH263708   0.405   6.545  11.978  0.4602 -0.5189 -0.2656
14098TIP3    H163709   0.401   6.640  11.971  0.0737 -0.4494  0.7475
14098TIP3    H263710   0.498   6.524  11.974  0.4769 -0.1999 -1.6703
14099TIP3   OH263711   0.869   1.118   1.407 -0.1066 -0.2890 -0.0140
14099TIP3    H163712   0.781   1.156   1.407 -0.5394 -1.2746  0.0262
14099TIP3    H263713   0.927   1.192   1.387 -0.9888  0.2566 -0.5890
14100TIP3   OH263714   3.128   4.361  11.344 -0.3280 -0.1079 -0.2839
14100TIP3    H163715   3.066   4.413  11.292  0.7703 -0.7624 -2.2988
14100TIP3    H263716   3.088   4.274  11.349 -0.7559  0.1304  0.5720
14101TIP3   OH263717   2.996   0.718  12.532  0.5223 -0.1582 -0.2449
14101TIP3    H163718   3.079   0.753  12.564  0.3025 -0.9693  1.2982
14101TIP3    H263719   2.930   0.775  12.569  0.3259 -0.3070 -0.3643
14102TIP3   OH263720   1.601   6.639  15.608  0.2814  0.3204 -0.0298
14102TIP3    H163721   1.605   6.663  15.515 -0.1994 -2.3012 -0.7591
14102TIP3    H263722   1.514   6.668  15.636 -0.3183 -0.5958 -0.9123
14103TIP3   OH263723   2.901   0.800  14.168  0.0055 -0.2608 -0.3105
14103TIP3    H163724   2.942   0.759  14.244 -0.4168 -0.8467 -0.4006
14103TIP3    H263725   2.975   0.823  14.111  0.3286  0.2728  0.3145
14104TIP3   OH263726   3.365   3.125  14.506 -0.5855  0.6611 -0.6564
14104TIP3    H163727   3.357   3.220  14.502 -2.8415  0.4559 -2.1082
14104TIP3    H263728   3.307   3.099  14.577 -1.3247  0.2492 -1.4064
14105TIP3   OH263729   0.531   3.673  13.153 -0.0065  0.2350 -0.3123
14105TIP3    H163730   0.442   3.697  13.181  0.1543  0.5388 -0.0561
14105TIP3    H263731   0.543   3.584  13.186  0.2835  0.6888  0.8409
14106TIP3   OH263732   2.017   1.563   1.569  0.2934  0.4640 -0.3561
14106TIP3    H163733   2.077   1.512   1.514 -1.8238 -1.6487 -0.8322
14106TIP3    H263734   2.017   1.518   1.653 -1.0541  0.0590 -0.5532
14107TIP3   OH263735   6.579   4.206  15.177  0.0840  0.2801 -0.0313
14107TIP3    H163736   6.613   4.117  15.170  0.7222  0.4938  0.3950
14107TIP3    H263737   6.617   4.241  15.257 -0.4398  0.8231 -0.0112
14108TIP3   OH263738   5.980   5.477  13.289 -0.3397 -0.0033  0.3431
14108TIP3    H163739   6.013   5.426  13.215 -0.6171  1.4326 -0.8052
14108TIP3    H263740   5.887   5.490  13.270  0.1535  2.6847 -0.4834
14109TIP3   OH263741   4.643   4.228   5.059 -0.1573  0.4030 -0.2753
14109TIP3    H163742   4.629   4.229   4.964 -0.0415  0.0938 -0.2971
14109TIP3    H263743   4.737   4.239   5.069  0.0655 -1.3133 -0.2621
14110TIP3   OH263744   1.312   5.507  15.386 -0.0370  0.2780 -0.5595
14110TIP3    H163745   1.307   5.603  15.388  0.9426  0.3950 -2.3324
14110TIP3    H263746   1.377   5.488  15.318 -1.4971 -1.6923 -1.4523
14111TIP3   OH263747   1.963   3.370  13.192  0.5622 -0.4885  0.2288
14111TIP3    H163748   2.036   3.429  13.213  0.6988 -0.7207  0.4150
14111TIP3    H263749   1.956   3.313  13.269  0.5150 -0.7982 -0.0044
14112TIP3   OH263750   1.802   0.988   5.550  0.3470 -0.2278 -0.1000
14112TIP3    H163751   1.859   0.914   5.525 -0.4493 -1.0029  0.3488
14112TIP3    H263752   1.809   0.992   5.645 -0.8627 -0.7567  0.0175
14113TIP3   OH263753   0.066   0.648  16.277 -0.0054 -0.0148  0.2225
14113TIP3    H163754   0.041   0.592  16.203 -0.6621  0.4490  0.0961
14113TIP3    H263755   0.030   0.604  16.354 -1.8370  1.0236 -0.0266
14114TIP3   OH263756   2.421   3.808   5.423 -0.4219  0.3469 -0.1247
14114TIP3    H163757   2.371   3.728   5.434  0.5466 -0.4152 -1.1000
14114TIP3    H263758   2.493   3.800   5.487 -1.1926  1.1660  0.8633
14115TIP3   OH263759   3.831   3.723  16.282 -0.5483  0.2909  0.0107
14115TIP3    H163760   3.887   3.726  16.360 -1.0442 -3.5407  0.6011
14115TIP3    H263761   3.892   3.730  16.209  0.5892 -2.0197  0.6857
14116TIP3   OH263762   2.074   4.893  16.914 -0.0499  0.0057  0.2249
14116TIP3    H163763   2.026   4.880  16.833  0.9489 -2.1428 -0.0537
14116TIP3    H263764   2.011   4.933  16.974 -1.1926  0.3050 -1.1563
14117TIP3   OH263765   6.027   3.032   5.434 -0.4522 -0.2656  0.6178
14117TIP3    H163766   5.953   2.988   5.477  0.8932 -1.6429  1.5525
14117TIP3    H263767   6.091   3.045   5.504  0.1925  0.9436 -0.1850
14118TIP3   OH263768   6.620   0.098  15.584 -0.1531  0.1286  0.2174
14118TIP3    H163769   6.563   0.029  15.618 -1.4298 -0.2615 -2.5516
14118TIP3    H263770   6.583   0.179  15.618 -1.0952 -0.2819  0.1937
14119TIP3   OH263771   3.742   0.436   0.145  0.7290  0.5141 -0.4073
14119TIP3    H163772   3.732   0.477   0.059  1.6135 -1.0540 -1.2892
14119TIP3    H263773   3.672   0.372   0.149  0.4122  0.8943  0.2463
14120TIP3   OH263774   6.181   4.035  16.852  0.3786 -0.2270  0.2917
14120TIP3    H163775   6.096   4.066  16.822  1.2139 -1.0499 -3.1391
14120TIP3    H263776   6.164   3.949  16.888  0.0195 -1.3590 -2.4525
14121TIP3   OH263777   5.526   6.613   2.967  0.5158 -0.0857  0.2342
14121TIP3    H163778   5.563   6.554   2.902 -0.9459 -0.5247 -0.2103
14121TIP3    H263779   5.462   6.560   3.015 -0.1692  0.8864  0.4103
14122TIP3   OH263780   0.698   5.689  15.366 -0.0918  0.1348  0.2050
14122TIP3    H163781   0.667   5.632  15.436 -2.3832  0.2545 -0.6628
14122TIP3    H263782   0.733   5.629  15.300 -0.3607 -0.1286  0.3018
14123TIP3   OH263783   4.290   0.265   2.660  0.6159 -0.2700  0.2287
14123TIP3    H163784   4.292   0.268   2.756 -1.1546 -0.2408  0.2876
14123TIP3    H263785   4.238   0.341   2.635 -0.1567 -1.0833 -0.6756
14124TIP3   OH263786   6.534   6.379  13.980  0.1725 -0.2397  0.2490
14124TIP3    H163787   6.565   6.369  13.890 -0.3712 -1.3214  0.1763
14124TIP3    H263788   6.442   6.353  13.977 -0.4072  1.6811  0.7273
14125TIP3   OH263789   0.082   4.996   0.425 -0.1197 -0.0143 -0.3726
14125TIP3    H163790   0.145   5.031   0.362 -1.4840  0.2583 -1.6109
14125TIP3    H263791   0.011   5.059   0.426 -1.3121 -1.3311 -0.5065
14126TIP3   OH263792   1.873   4.487  14.440 -0.3264 -0.2568 -0.4340
14126TIP3    H163793   1.884   4.547  14.513 -3.9746 -0.5474  0.4581
14126TIP3    H263794   1.928   4.523  14.371  0.3492  2.0775  1.2712
14127TIP3   OH263795   2.554   4.982  16.072  0.3199  0.4354  0.3228
14127TIP3    H163796   2.571   4.949  15.984  0.8002  0.6112  0.3532
14127TIP3    H263797   2.551   4.904  16.127 -0.0004  0.3243  0.1525
14128TIP3   OH263798   0.784   4.314   2.272 -0.2789  0.4788  0.0556
14128TIP3    H163799   0.834   4.332   2.351 -0.9450  0.5436  0.4697
14128TIP3    H263800   0.796   4.220   2.258 -1.9962  0.0084  1.5365
14129TIP3   OH263801   5.340   4.670  13.958 -0.3239 -0.4959  0.6620
14129TIP3    H163802   5.328   4.695  13.867 -0.1391  0.3672  0.8716
14129TIP3    H263803   5.375   4.748  14.001 -1.4288 -0.5574  1.7054
14130TIP3   OH263804   5.989   2.969  13.857 -0.3376  0.4919  0.0426
14130TIP3    H163805   6.078   2.990  13.829  0.0343 -0.9963  0.0916
14130TIP3    H263806   5.993   2.967  13.953 -0.3350  0.0947  0.0377
14131TIP3   OH263807   2.223   4.659  14.358  0.5029  0.6618 -0.2554
14131TIP3    H163808   2.289   4.591  14.374 -1.4447 -0.7845  1.8647
14131TIP3    H263809   2.199   4.648  14.266 -1.5991 -3.2134  0.6721
14132TIP3   OH263810   2.241   6.278  15.698  0.1560 -0.2578  0.1466
14132TIP3    H163811   2.315   6.333  15.719  0.5506 -0.3126 -1.0731
14132TIP3    H263812   2.260   6.194  15.740 -0.3701  0.4716  1.8607
14133TIP3   OH263813   2.959   5.619  14.334 -0.0666 -0.1803 -0.1774
14133TIP3    H163814   3.010   5.689  14.374  0.5230 -0.5757 -0.2280
14133TIP3    H263815   2.937   5.651  14.247 -0.8122  0.4234  0.2266
14134TIP3   OH263816   0.839   1.175  14.790 -0.2910  0.1851  0.1870
14134TIP3    H163817   0.828   1.152  14.882 -1.1835 -2.1071 -0.4481
14134TIP3    H263818   0.879   1.098  14.750 -1.9113  0.2878 -1.7515
14135TIP3   OH263819   5.597   4.946   3.348  0.0057 -0.3056 -0.1259
14135TIP3    H163820   5.647   4.869   3.373 -0.6507 -0.8533 -0.4822
14135TIP3    H263821   5.639   4.977   3.267 -0.2890 -0.8248 -0.4810
14136TIP3   OH263822   4.833   3.037  15.333 -0.1982  0.1773  0.9613
14136TIP3    H163823   4.848   3.131  15.322 -0.6546  0.1983  0.4793
14136TIP3    H263824   4.916   2.997  15.308 -0.8522  0.3047 -1.5483
14137TIP3   OH263825   6.782   1.441  14.492 -0.3938  0.5887  0.4908
14137TIP3    H163826   6.768   1.395  14.575 -0.0753  0.0556  0.2491
14137TIP3    H263827   6.708   1.416  14.438 -1.0841  1.6590  0.9279
14138TIP3   OH263828   0.440   0.974   0.055 -0.1546 -0.3738  0.4120
14138TIP3    H163829   0.349   0.977   0.083 -0.5394 -1.2972 -0.7105
14138TIP3    H263830   0.490   0.974   0.137 -1.2467 -2.4152  1.1230
14139TIP3   OH263831   4.671   2.349   3.327 -0.6456  0.4232  0.5483
14139TIP3    H163832   4.675   2.267   3.277 -0.1307  0.7197  0.1030
14139TIP3    H263833   4.642   2.322   3.414  0.9616 -0.4357  0.8396
14140TIP3   OH263834   2.068   2.413  14.313  0.1692 -0.3076 -0.4172
14140TIP3    H163835   2.004   2.452  14.253  1.2401  0.4713 -1.0736
14140TIP3    H263836   2.109   2.488  14.356  0.8626 -0.7959 -0.2268
14141TIP3   OH263837   2.410   2.871   3.499  0.0797  0.5158  0.1727
14141TIP3    H163838   2.352   2.888   3.425 -0.0992 -2.6534 -0.4915
14141TIP3    H263839   2.352   2.868   3.575  0.1141  2.6390  0.3063
14142TIP3   OH263840   4.685   0.426  16.704 -0.1646  0.3499  0.0385
14142TIP3    H163841   4.781   0.419  16.708 -0.2353 -1.0247 -0.5509
14142TIP3    H263842   4.660   0.456  16.791  0.7421 -0.0699  0.4530
14143TIP3   OH263843   0.914   3.448  13.549  0.1879 -0.1400  0.1410
14143TIP3    H163844   0.912   3.510  13.477 -0.1751  0.1321  0.3858
14143TIP3    H263845   0.865   3.490  13.620  0.4309 -0.4559  0.5049
14144TIP3   OH263846   2.959   3.928  12.455 -0.0280 -0.2321  0.1405
14144TIP3    H163847   3.049   3.945  12.428  0.0578 -0.2850  0.3936
14144TIP3    H263848   2.965   3.847  12.506 -0.0940  0.2430  0.8930
14145TIP3   OH263849   3.475   5.522   1.766 -0.2119  0.1106 -0.4925
14145TIP3    H163850   3.429   5.601   1.738  2.9818  0.7697 -4.3128
14145TIP3    H263851   3.534   5.552   1.835  0.4757  0.9608 -1.4400
14146TIP3   OH263852   3.386   0.890  10.544 -0.0103  0.6689 -0.1195
14146TIP3    H163853   3.308   0.897  10.489  0.8268  1.0112 -1.2685
14146TIP3    H263854   3.457   0.868  10.484  0.9199  1.0686  0.8054
14147TIP3   OH263855   1.179   3.459   3.128  0.0796  0.1260 -0.0413
14147TIP3    H163856   1.116   3.511   3.178 -1.2891 -1.5570  0.0288
14147TIP3    H263857   1.126   3.395   3.081  1.6336 -0.4383 -1.0749
14148TIP3   OH263858   1.298   3.896   0.631 -0.1072 -0.0653 -0.8943
14148TIP3    H163859   1.293   3.928   0.540 -3.7507  0.8113 -0.4641
14148TIP3    H263860   1.274   3.971   0.684  1.6478 -0.6837  0.8356
14149TIP3   OH263861   6.698   2.503   0.589  0.0760 -0.2072 -0.2566
14149TIP3    H163862   6.692   2.526   0.497 -0.0516 -1.5623 -0.5907
14149TIP3    H263863   6.790   2.480   0.602 -0.0003 -0.4538 -0.1517
14150TIP3   OH263864   2.389   4.250   2.202  0.3937 -0.1568 -0.0096
14150TIP3    H163865   2.393   4.154   2.197 -1.8086 -0.2467 -0.6092
14150TIP3    H263866   2.377   4.278   2.111  2.2887  0.7921  0.0020
14151TIP3   OH263867   0.489   6.328   5.722  0.0080  0.1020  0.6110
14151TIP3    H163868   0.461   6.418   5.705  2.2122  0.6275 -0.4731
14151TIP3    H263869   0.507   6.325   5.816 -0.9766  0.5255  0.8129
14152TIP3   OH263870   1.685   4.224   5.682 -0.5269  0.1817  0.0839
14152TIP3    H163871   1.750   4.209   5.750  0.3161  1.7473 -0.3416
14152TIP3    H263872   1.668   4.318   5.685 -1.6036  0.0330 -0.8652
14153TIP3   OH263873   5.341   6.322  13.379 -0.0699  0.3957 -0.7136
14153TIP3    H163874   5.395   6.287  13.307  1.2120  2.3872 -0.7562
14153TIP3    H263875   5.400   6.320  13.455 -1.4045 -1.6542  0.3161
14154TIP3   OH263876   3.501   4.800   2.361 -0.0572  0.0733 -0.1366
14154TIP3    H163877   3.464   4.797   2.449  2.1287 -0.9901  0.7790
14154TIP3    H263878   3.457   4.874   2.319 -0.6094  1.0587  2.0948
14155TIP3   OH263879   0.015   1.691   2.722 -0.2562 -0.5962 -0.3953
14155TIP3    H163880   0.061   1.608   2.724 -0.2118 -0.5826 -0.9965
14155TIP3    H263881  -0.077   1.668   2.711 -0.7253 -0.7489  3.0875
14156TIP3   OH263882   2.735   1.214   2.807  0.5471 -0.1090 -0.0393
14156TIP3    H163883   2.657   1.246   2.852  0.2599  0.4385 -0.9061
14156TIP3    H263884   2.744   1.272   2.731  2.3952  0.4879  0.6083
14157TIP3   OH263885   6.096   5.505  11.507  0.4825  0.2052 -0.0679
14157TIP3    H163886   6.050   5.431  11.547  1.3566  1.0728  2.6452
14157TIP3    H263887   6.179   5.468  11.477  1.4328  0.2365  2.3457
14158TIP3   OH263888   4.759   5.390   3.720 -0.8837  0.3229  0.8079
14158TIP3    H163889   4.843   5.349   3.698  0.4694  2.3483  1.9849
14158TIP3    H263890   4.731   5.432   3.639 -2.0582 -2.4395 -0.2871
14159TIP3   OH263891   1.453   5.631   1.393 -0.4266  0.5207  0.3410
14159TIP3    H163892   1.391   5.705   1.391 -1.4790 -0.3329  0.8230
14159TIP3    H263893   1.539   5.672   1.382 -0.9490  1.8737  1.1089
14160TIP3   OH263894   6.483   3.441  13.715  0.1951 -0.1698 -0.1208
14160TIP3    H163895   6.430   3.520  13.701  0.7922  0.1666 -0.4949
14160TIP3    H263896   6.474   3.392  13.634  1.5650  0.5449 -0.7154
14161TIP3   OH263897   0.509   1.313   5.395  0.3371  0.0262  0.6295
14161TIP3    H163898   0.534   1.390   5.343 -0.2557 -1.8940 -2.6056
14161TIP3    H263899   0.592   1.275   5.423  0.6742  0.7108  0.5722
14162TIP3   OH263900   2.553   5.336  11.344  0.0081  0.1458  0.5357
14162TIP3    H163901   2.564   5.243  11.325 -0.6530  0.1269  0.2520
14162TIP3    H263902   2.638   5.375  11.320  0.2716 -0.3714  0.6157
14163TIP3   OH263903   5.048   6.249  12.735  0.5891 -0.1157 -0.7532
14163TIP3    H163904   5.021   6.189  12.665  1.4916  1.2905 -2.3271
14163TIP3    H263905   4.975   6.310  12.744  1.1869  0.7402 -1.6572
14164TIP3   OH263906   2.579   5.043   4.905 -0.0847  0.0206 -0.6369
14164TIP3    H163907   2.574   5.003   4.992  0.5046 -0.5204 -0.8484
14164TIP3    H263908   2.510   5.109   4.905  1.0018  1.1870  0.8386
14165TIP3   OH263909   1.418   6.421  13.780 -0.7596 -0.2328 -0.2220
14165TIP3    H163910   1.433   6.436  13.874  0.3587 -0.1390 -0.4092
14165TIP3    H263911   1.479   6.480  13.736 -0.9923 -0.5750 -1.0120
14166TIP3   OH263912   4.144   5.120   5.250  0.6329 -0.0312  0.4663
14166TIP3    H163913   4.181   5.199   5.290 -0.2739 -0.1754  1.5964
14166TIP3    H263914   4.050   5.128   5.264  0.2391  0.0797 -1.9473
14167TIP3   OH263915   6.475   5.910  17.100  0.3162  0.3550  0.6769
14167TIP3    H163916   6.483   5.992  17.148  1.7143  0.3209  0.5359
14167TIP3    H263917   6.398   5.921  17.044 -1.1061  0.5411  2.6080
14168TIP3   OH263918   4.394   5.597   1.450 -0.1214  0.0630 -0.1046
14168TIP3    H163919   4.380   5.692   1.454 -0.7644  0.0110 -0.9085
14168TIP3    H263920   4.372   5.574   1.359 -0.6387 -0.9568  0.2705
14169TIP3   OH263921   5.348   6.011  13.323  0.1005  0.6891 -0.6069
14169TIP3    H163922   5.305   6.047  13.400 -0.5024  1.2469 -1.1967
14169TIP3    H263923   5.440   6.003  13.348 -0.0274  1.2068  0.0380
14170TIP3   OH263924   4.681   1.999   0.823 -0.1030  0.3319 -0.0479
14170TIP3    H163925   4.614   1.943   0.784 -1.0570  0.9885  0.6107
14170TIP3    H263926   4.685   1.971   0.915  1.7155 -0.8180 -0.4583
14171TIP3   OH263927   5.461   6.229   4.512  0.0410  0.1177 -0.7277
14171TIP3    H163928   5.371   6.262   4.510 -0.1537 -0.4164 -0.8301
14171TIP3    H263929   5.512   6.301   4.548 -0.4957  0.2592 -0.2506
14172TIP3   OH263930   2.153   2.059  15.590  0.0318  0.1344 -0.8764
14172TIP3    H163931   2.066   2.036  15.558  0.1107  1.9505 -2.5395
14172TIP3    H263932   2.138   2.116  15.665 -0.1915 -0.6796 -0.2983
14173TIP3   OH263933   4.516   2.833   3.167 -0.0718  0.1711 -0.2622
14173TIP3    H163934   4.426   2.799   3.161  0.3686 -1.1839  0.5200
14173TIP3    H263935   4.510   2.906   3.229 -0.3870 -0.8184  0.8797
14174TIP3   OH263936   4.111   5.484  16.162 -0.0994  0.0049  0.0093
14174TIP3    H163937   4.029   5.435  16.157 -0.1782 -0.1331  2.3176
14174TIP3    H263938   4.084   5.576  16.155 -0.3559 -0.0768 -0.0779
14175TIP3   OH263939   5.976   4.233  12.784 -0.2545  0.2782 -0.0748
14175TIP3    H163940   5.971   4.160  12.845  0.6111  0.6357  0.4308
14175TIP3    H263941   5.885   4.265  12.776 -0.1687  1.2060  2.2142
14176TIP3   OH263942   0.130   2.328  13.772 -0.5481  0.3745 -0.5545
14176TIP3    H163943   0.082   2.265  13.826  0.1587 -0.7945 -1.2506
14176TIP3    H263944   0.173   2.386  13.835 -0.2867 -0.5460  0.1365
14177TIP3   OH263945   6.179   4.546   5.541 -0.5720  0.4972  0.4001
14177TIP3    H163946   6.266   4.518   5.572  0.1002  1.0259 -0.9827
14177TIP3    H263947   6.155   4.617   5.600 -0.4400 -0.1841  1.3015
14178TIP3   OH263948   0.387   1.619  17.116 -0.8101  0.6051 -0.2648
14178TIP3    H163949   0.396   1.647  17.207 -0.6646 -0.8332  0.1746
14178TIP3    H263950   0.296   1.589  17.110 -0.3654 -0.7494 -0.1836
14179TIP3   OH263951   6.479   5.629  12.688 -0.1919  0.2347 -0.1145
14179TIP3    H163952   6.547   5.565  12.711 -0.6159 -0.0087  0.4414
14179TIP3    H263953   6.520   5.683  12.620  0.3247 -0.3392 -0.2626
14180TIP3   OH263954   4.316   0.643  11.121  0.6479 -0.5705 -0.0822
14180TIP3    H163955   4.271   0.614  11.042  0.8480 -0.0847 -0.3749
14180TIP3    H263956   4.365   0.566  11.150  2.4438 -0.0942 -1.7435
14181TIP3   OH263957   0.593   1.443  14.386  0.3417  0.3293 -0.0166
14181TIP3    H163958   0.650   1.370  14.359 -0.0061  0.2493 -0.5361
14181TIP3    H263959   0.527   1.449  14.317  0.6230  1.4235 -0.2116
14182TIP3   OH263960   5.838   4.153   4.958  0.0108 -0.3886  0.4613
14182TIP3    H163961   5.915   4.178   5.010  0.2937 -0.1257 -0.0851
14182TIP3    H263962   5.863   4.071   4.916  0.1640 -0.0574 -0.0918
14183TIP3   OH263963   1.670   4.558   1.872 -0.1866  0.0576  0.1700
14183TIP3    H163964   1.681   4.513   1.956  0.0508 -1.6354 -0.7421
14183TIP3    H263965   1.699   4.648   1.889  2.0409 -0.8357  1.3398
14184TIP3   OH263966   1.286   5.497   5.566 -0.6587  0.8625  0.4229
14184TIP3    H163967   1.216   5.432   5.560  0.8138 -0.4526 -3.9370
14184TIP3    H263968   1.254   5.572   5.515  0.3128  0.9954 -0.0024
14185TIP3   OH263969   3.065   0.820  15.937  0.0147  0.1419  0.9692
14185TIP3    H163970   2.986   0.854  15.895 -0.3721 -0.3973  1.2413
14185TIP3    H263971   3.087   0.885  16.004 -0.3742  0.1465  1.0916
14186TIP3   OH263972   1.432   4.238  11.416  0.0866  0.0452 -0.5411
14186TIP3    H163973   1.521   4.217  11.444  0.6362  1.8593 -0.8308
14186TIP3    H263974   1.395   4.154  11.387  2.0786 -0.5582 -1.4533
14187TIP3   OH263975   3.333   1.834   3.831 -0.5427 -0.1546  0.1896
14187TIP3    H163976   3.379   1.860   3.751 -0.1404 -1.0230  0.1301
14187TIP3    H263977   3.297   1.915   3.866  1.0495  0.5454  0.2377
14188TIP3   OH263978   1.501   0.119   4.740 -0.3730  0.3487  0.3208
14188TIP3    H163979   1.406   0.117   4.729 -0.1643  1.9146 -2.1262
14188TIP3    H263980   1.515   0.099   4.833 -3.0650  0.0085  0.6897
14189TIP3   OH263981   6.222   3.195  16.409 -0.7720  0.0692  0.2337
14189TIP3    H163982   6.262   3.281  16.395 -0.5798 -0.0338  0.1494
14189TIP3    H263983   6.234   3.148  16.327  0.4502 -0.5718  0.7640
14190TIP3   OH263984   3.169   3.040  14.670 -0.4654  0.3953 -0.2675
14190TIP3    H163985   3.078   3.049  14.695 -0.7631 -2.0519 -0.3010
14190TIP3    H263986   3.216   3.032  14.753 -0.8479 -2.7094 -0.2945
14191TIP3   OH263987   3.055   3.024   0.707 -0.1952 -0.3078 -0.2260
14191TIP3    H163988   3.059   3.103   0.761 -1.4131  1.4315 -2.5648
14191TIP3    H263989   3.122   3.037   0.640  0.1427 -1.6279 -0.1552
14192TIP3   OH263990   2.219   6.407  11.070 -0.0097  0.1970  0.2744
14192TIP3    H163991   2.258   6.468  11.133  1.6427 -0.0131 -0.5015
14192TIP3    H263992   2.244   6.442  10.985  2.5217 -2.4749 -0.1894
14193TIP3   OH263993   5.309   6.352  12.725 -0.3379 -0.1187 -0.5074
14193TIP3    H163994   5.334   6.356  12.817  1.4807  1.0227 -1.0162
14193TIP3    H263995   5.221   6.314  12.725 -0.7365  0.7481  1.7558
14194TIP3   OH263996   6.564   1.559   2.691  0.1258 -0.5381  0.0001
14194TIP3    H163997   6.513   1.479   2.679 -0.8578 -0.5927  3.8329
14194TIP3    H263998   6.529   1.597   2.772  1.8513  2.8025 -0.7489
14195TIP3   OH263999   6.087   3.854  14.488 -0.1697  0.2627  0.2516
14195TIP3    H164000   6.177   3.859  14.455 -0.3441  0.6345 -0.1623
14195TIP3    H264001   6.045   3.934  14.458 -1.0081 -0.4984 -0.6472
14196TIP3   OH264002   2.176   3.277   4.251  0.0799 -0.3658 -0.2494
14196TIP3    H164003   2.227   3.196   4.244  0.8246  0.1711 -1.2407
14196TIP3    H264004   2.146   3.295   4.161  0.1250  0.5737 -0.0853
14197TIP3   OH264005   6.663   2.329  12.781  0.4150 -0.1445 -0.3948
14197TIP3    H164006   6.641   2.280  12.860  1.3623 -0.0846 -0.0895
14197TIP3    H264007   6.675   2.419  12.812 -1.6432  0.3583 -1.0016
14198TIP3   OH264008   6.038   3.297   0.564 -0.5396  1.0875  0.6125
14198TIP3    H164009   6.118   3.246   0.578 -1.7126 -0.7378  0.8020
14198TIP3    H264010   6.004   3.313   0.652 -0.2515  2.0816  0.5447
14199TIP3   OH264011   3.296   5.964  11.345 -0.2832  0.0431  0.4450
14199TIP3    H164012   3.389   5.965  11.371  0.2079 -2.6639 -1.0159
14199TIP3    H264013   3.293   6.014  11.264 -0.0811  0.0823  0.4607
14200TIP3   OH264014   4.658   5.142  13.180  0.3632  0.1745 -0.8304
14200TIP3    H164015   4.619   5.133  13.267  0.8851 -2.6465 -0.8368
14200TIP3    H264016   4.587   5.175  13.125 -1.3433 -2.3652 -0.2774
14201TIP3   OH264017   2.374   3.023   5.763 -0.3766 -0.4884  0.2744
14201TIP3    H164018   2.375   3.061   5.851 -0.3168  0.9129 -0.3075
14201TIP3    H264019   2.297   2.967   5.762 -0.1550 -0.8249  1.3474
14202TIP3   OH264020   1.181   0.541   5.242  0.4262  0.3533 -0.5860
14202TIP3    H164021   1.204   0.581   5.158  1.2581  0.3681 -0.3637
14202TIP3    H264022   1.257   0.487   5.264 -0.2987 -0.5975 -0.4230
14203TIP3   OH264023   1.934   6.446   6.247 -0.5617  0.8277  0.6188
14203TIP3    H164024   1.912   6.412   6.334 -0.2053  2.3353  1.3206
14203TIP3    H264025   2.017   6.405   6.226  0.6356  2.4006  2.1318
14204TIP3   OH264026   4.717   6.281  14.693 -0.4976  0.6974 -0.1091
14204TIP3    H164027   4.711   6.199  14.643  0.2215  1.3768 -1.3491
14204TIP3    H264028   4.798   6.322  14.661  0.3555  0.8333  2.1216
14205TIP3   OH264029   2.972   5.533   1.369  0.0489  0.1173  0.0152
14205TIP3    H164030   2.957   5.543   1.275 -2.7607  3.0570  0.6679
14205TIP3    H264031   2.884   5.520   1.406  1.0814 -0.6909  2.2592
14206TIP3   OH264032   6.664   2.327  13.101  0.2723 -0.0754  0.2054
14206TIP3    H164033   6.754   2.294  13.105  0.7523  1.3437  1.7689
14206TIP3    H264034   6.611   2.255  13.134  0.9598 -0.5464  0.3106
14207TIP3   OH264035   2.183   1.206   1.704 -0.1597  0.0419 -0.4487
14207TIP3    H164036   2.256   1.189   1.644 -0.5296 -1.1035 -0.5809
14207TIP3    H264037   2.210   1.167   1.787 -0.2612  0.3634 -0.2633
14208TIP3   OH264038   5.024   6.256  16.988 -0.4123  0.7776 -0.2810
14208TIP3    H164039   4.968   6.333  16.974 -3.2061 -1.2920 -1.0220
14208TIP3    H264040   5.036   6.219  16.901  1.8530  0.9726 -0.0634
14209TIP3   OH264041   4.555   5.358  11.934 -0.3212 -0.1108 -0.6031
14209TIP3    H164042   4.568   5.399  11.849  0.2958  0.7362 -0.1102
14209TIP3    H264043   4.462   5.334  11.935 -1.2145  3.1192 -0.1279
14210TIP3   OH264044   4.510   1.201  11.989  0.5104  0.1343 -0.3212
14210TIP3    H164045   4.524   1.277  11.933  2.1189  0.4146  0.4370
14210TIP3    H264046   4.507   1.127  11.928 -0.1799  0.7018 -0.9840
14211TIP3   OH264047   3.850   5.554   1.487  0.0354 -0.4879 -0.0651
14211TIP3    H164048   3.876   5.498   1.414 -0.4220 -0.2295 -0.4276
14211TIP3    H264049   3.769   5.516   1.519  0.2599 -0.6297  0.3449
14212TIP3   OH264050   2.507   1.773   1.466  0.6140  0.1448  0.6188
14212TIP3    H164051   2.446   1.742   1.534 -0.0582  0.6921  0.2725
14212TIP3    H264052   2.546   1.852   1.503  0.3069  0.3986  0.4060
14213TIP3   OH264053   4.821   1.799   5.332  0.5102  0.1055 -0.2390
14213TIP3    H164054   4.829   1.726   5.272 -0.0282 -0.6452  0.5949
14213TIP3    H264055   4.895   1.855   5.312  0.0781  0.0990 -1.9181
14214TIP3   OH264056   2.635   4.395  13.810 -0.3423  0.1872  0.0397
14214TIP3    H164057   2.558   4.413  13.863 -1.1537  1.8107 -1.6362
14214TIP3    H264058   2.602   4.348  13.734  0.1757  1.5415 -1.0586
14215TIP3   OH264059   4.903   4.891  15.911 -0.0799 -0.2738  0.2918
14215TIP3    H164060   4.849   4.936  15.976  0.8814  0.5309  0.5524
14215TIP3    H264061   4.991   4.894  15.947  0.1597 -1.5058 -0.1692
14216TIP3   OH264062   0.660   1.605  14.921 -0.2862 -0.3019  0.2182
14216TIP3    H164063   0.648   1.540  14.852  0.0823 -0.1912  0.0505
14216TIP3    H264064   0.663   1.555  15.002  1.2915 -0.6119 -0.0162
14217TIP3   OH264065   3.057   0.004   5.591 -0.0513  0.2571  0.2544
14217TIP3    H164066   3.037  -0.009   5.684 -0.7053 -1.7475 -0.1336
14217TIP3    H264067   3.110  -0.072   5.567  1.2685  1.4454 -0.7125
14218TIP3   OH264068   2.410   0.381   0.798  0.3204  0.4840 -0.0461
14218TIP3    H164069   2.344   0.434   0.754  0.4265  0.9189  0.3197
14218TIP3    H264070   2.493   0.418   0.769  0.4300 -0.7817 -1.4041
14219TIP3   OH264071   6.221   6.181  11.957 -0.7659  0.2536  0.0430
14219TIP3    H164072   6.190   6.117  12.021  0.8118 -0.7684 -0.2035
14219TIP3    H264073   6.214   6.137  11.873 -0.1746  0.5944 -0.1893
14220TIP3   OH264074   5.595   2.506  11.340  0.3817 -0.2082 -0.8327
14220TIP3    H164075   5.568   2.509  11.432 -0.1725  0.2807 -1.0067
14220TIP3    H264076   5.529   2.453  11.297  0.5801 -0.3426 -0.9760
14221TIP3   OH264077   3.751   4.141   2.740  0.4166 -0.0062 -0.0715
14221TIP3    H164078   3.733   4.124   2.647  1.0409  1.8611 -0.5571
14221TIP3    H264079   3.846   4.139   2.747  0.3477 -0.9866  0.7150
14222TIP3   OH264080   5.792   2.093  15.277 -0.9205 -0.0771 -0.0649
14222TIP3    H164081   5.747   2.008  15.276 -0.1124 -0.6276  3.2087
14222TIP3    H264082   5.788   2.121  15.369  0.5410  2.5005 -0.7415
14223TIP3   OH264083   2.056   4.207  12.505 -0.1263 -0.5327  0.8331
14223TIP3    H164084   2.026   4.120  12.478  0.6637 -0.5106 -0.1551
14223TIP3    H264085   2.033   4.264  12.431  1.7106 -0.3983  0.3475
14224TIP3   OH264086   2.846   0.394  17.030 -0.4862 -0.1881 -0.5996
14224TIP3    H164087   2.780   0.454  17.065  1.1758  1.4208 -0.1181
14224TIP3    H264088   2.813   0.307  17.050 -1.6238  0.6276  1.2034
14225TIP3   OH264089   1.404   3.321  12.855 -0.0922 -0.1116  0.2029
14225TIP3    H164090   1.344   3.254  12.887  0.6086 -0.7621  0.1814
14225TIP3    H264091   1.357   3.403  12.866 -0.9659 -0.6103  0.2208
14226TIP3   OH264092   2.774   5.403   5.266 -0.1484 -0.2123 -0.0378
14226TIP3    H164093   2.688   5.440   5.283 -0.5893 -0.6155 -1.3314
14226TIP3    H264094   2.831   5.444   5.331 -1.2512  0.2887  0.6208
14227TIP3   OH264095   3.803   5.485   0.061  0.3899 -0.6030  0.1387
14227TIP3    H164096   3.801   5.406   0.007  2.4614 -0.9928  0.6126
14227TIP3    H264097   3.722   5.531   0.039  0.7740 -1.1939 -2.6278
14228TIP3   OH264098   4.634   4.387  11.536 -0.1417  0.6236  0.0777
14228TIP3    H164099   4.595   4.466  11.574 -0.2304  0.0341  1.2429
14228TIP3    H264100   4.582   4.370  11.457  0.4147  2.2009 -0.6304
14229TIP3   OH264101   0.860   5.678   5.339  0.2920  0.4909  0.2986
14229TIP3    H164102   0.878   5.770   5.355 -2.3329  1.1742 -0.3777
14229TIP3    H264103   0.773   5.677   5.298  0.2641 -2.2719  0.2909
14230TIP3   OH264104   0.217   2.299   1.702 -0.3934 -0.8077 -0.2804
14230TIP3    H164105   0.143   2.246   1.731 -0.0225 -0.2957  1.6905
14230TIP3    H264106   0.235   2.357   1.776 -0.5256  1.7968 -2.1995
14231TIP3   OH264107   0.680   5.547   3.764 -0.1292 -0.7244  0.0624
14231TIP3    H164108   0.643   5.628   3.797  0.1811 -0.1770 -0.9204
14231TIP3    H264109   0.772   5.550   3.790  0.0498 -0.4242 -0.6050
14232TIP3   OH264110   4.243   6.290  11.996  0.2954 -0.4743 -0.6186
14232TIP3    H164111   4.157   6.249  11.996  0.5033 -0.9046 -0.3287
14232TIP3    H264112   4.225   6.381  12.019 -0.1200 -0.4801 -0.8998
14233TIP3   OH264113   5.790   6.388   2.185  0.2365 -0.0441  0.7180
14233TIP3    H164114   5.802   6.334   2.107 -1.1494  1.0520 -0.2994
14233TIP3    H264115   5.802   6.478   2.153 -1.3605  0.4846  1.5342
14234TIP3   OH264116   1.456   2.695   3.728  0.2724  0.8065  0.0199
14234TIP3    H164117   1.390   2.724   3.791 -0.3881  0.3051 -0.4307
14234TIP3    H264118   1.507   2.773   3.709  1.1426  0.7378  1.9714
14235TIP3   OH264119   6.522   4.640   0.765 -0.1349 -0.2128  0.0193
14235TIP3    H164120   6.563   4.697   0.700  0.3058 -0.7682 -0.1991
14235TIP3    H264121   6.444   4.688   0.794  0.7057  0.8841  0.4919
14236TIP3   OH264122   1.716   6.295  10.750 -0.2809 -0.0974  0.5160
14236TIP3    H164123   1.802   6.268  10.716  0.2024  1.9214  0.0416
14236TIP3    H264124   1.732   6.317  10.841 -0.2815  0.3349  0.4115
14237TIP3   OH264125   2.387   0.381  14.164  0.0886  0.5527  0.3018
14237TIP3    H164126   2.337   0.462  14.172  2.0151  1.7983 -0.0766
14237TIP3    H264127   2.475   0.403  14.195  0.9463 -1.0661 -0.8883
14238TIP3   OH264128   3.728   3.438  14.413  0.1950  0.3365 -0.1092
14238TIP3    H164129   3.786   3.454  14.488 -1.1043  0.5116  0.8846
14238TIP3    H264130   3.787   3.428  14.339  1.5090  0.3271  0.9094
14239TIP3   OH264131   5.256   6.594   5.688  0.1048  0.2518 -0.1476
14239TIP3    H164132   5.317   6.668   5.691 -0.5559  0.7517  1.7116
14239TIP3    H264133   5.195   6.611   5.760  0.8940 -2.9078  1.3644
14240TIP3   OH264134   1.123   1.327  11.668 -0.0946 -0.2781 -0.1912
14240TIP3    H164135   1.049   1.373  11.630  0.6260 -2.1411 -4.1784
14240TIP3    H264136   1.142   1.373  11.749 -3.1087  2.6528 -1.0648
14241TIP3   OH264137   4.387   5.388   4.406 -0.0329  0.1254  0.2431
14241TIP3    H164138   4.314   5.407   4.465  0.2141  0.1122  0.5525
14241TIP3    H264139   4.367   5.439   4.327  0.5838  1.6157  1.0242
14242TIP3   OH264140   0.290   6.141   5.898  0.1887  0.8130  0.3289
14242TIP3    H164141   0.321   6.230   5.912  1.2410  0.2161  1.8493
14242TIP3    H264142   0.368   6.091   5.874 -0.3206  0.1993 -0.0884
14243TIP3   OH264143   0.116   1.126   5.091 -0.2443  0.0478 -0.1393
14243TIP3    H164144   0.194   1.079   5.120 -0.4831  0.7876  1.8149
14243TIP3    H264145   0.135   1.218   5.110 -0.8559  0.4396 -1.3798
14244TIP3   OH264146   2.860   5.747   0.860  0.3079 -0.3138 -0.1835
14244TIP3    H164147   2.896   5.748   0.771  0.6025  2.8536 -0.0714
14244TIP3    H264148   2.771   5.783   0.850  0.3854  0.1536  0.8195
14245TIP3   OH264149   2.078   5.326   5.576 -0.3914 -0.3811  0.0622
14245TIP3    H164150   2.131   5.247   5.567  0.9120  0.3099  1.4389
14245TIP3    H264151   2.072   5.340   5.671  0.2072  1.6837 -0.1724
14246TIP3   OH264152   2.249   5.906   1.357  0.6392 -0.4340 -0.6565
14246TIP3    H164153   2.216   5.991   1.329  0.9927  0.0058  0.2226
14246TIP3    H264154   2.342   5.921   1.375  0.7249 -1.0258 -0.5836
14247TIP3   OH264155   1.076   5.122  17.096  0.0697 -0.2102  0.5868
14247TIP3    H164156   1.148   5.179  17.123 -0.3383  1.1587 -1.1301
14247TIP3    H264157   1.010   5.132  17.165  0.8156 -0.1876  1.3074
14248TIP3   OH264158   2.583   5.380   2.023  0.4063 -0.3223  0.0141
14248TIP3    H164159   2.664   5.329   2.030  0.3168 -0.2216  1.8456
14248TIP3    H264160   2.571   5.418   2.110 -1.9943 -0.8957 -0.0582
14249TIP3   OH264161   6.227   2.598   1.170  0.6779  0.8726  0.8115
14249TIP3    H164162   6.208   2.676   1.223  1.1503  2.1267 -0.8244
14249TIP3    H264163   6.306   2.562   1.210  0.6895  1.4591  1.3374
14250TIP3   OH264164   0.201   3.307  10.864 -0.0238 -0.0309  0.1091
14250TIP3    H164165   0.164   3.391  10.835 -0.8115 -0.5863 -0.5128
14250TIP3    H264166   0.195   3.251  10.787  0.9753 -0.5051  0.3775
14251TIP3   OH264167   3.244   2.505   3.562  0.0509 -0.1153 -0.3430
14251TIP3    H164168   3.248   2.517   3.467  1.4639 -2.1013 -0.5585
14251TIP3    H264169   3.199   2.421   3.574 -1.4050  0.8058  0.8116
14252TIP3   OH264170   3.597   3.320   4.723  1.2683  0.2368  0.3436
14252TIP3    H164171   3.668   3.299   4.663  0.4055 -1.6270 -0.0661
14252TIP3    H264172   3.631   3.297   4.809  1.5041  0.2518  0.2554
14253TIP3   OH264173   0.194   1.247  12.819 -0.1601 -0.3132 -0.1477
14253TIP3    H164174   0.152   1.263  12.903  2.9779 -0.5240  1.5462
14253TIP3    H264175   0.211   1.334  12.783 -1.9497 -0.2262 -0.8554
14254TIP3   OH264176   6.761   3.166  11.333  0.2472  0.5993 -0.1523
14254TIP3    H164177   6.727   3.253  11.311  0.9273  0.4431 -1.9294
14254TIP3    H264178   6.702   3.134  11.401 -1.9011  1.2000 -1.6445
14255TIP3   OH264179   5.700   4.751  11.623 -0.1892 -0.2383 -0.0094
14255TIP3    H164180   5.668   4.832  11.663  1.2293  0.6153 -0.5517
14255TIP3    H264181   5.732   4.778  11.537  0.8659 -1.2630  0.0422
14256TIP3   OH264182   0.760   2.737   0.955  0.0186 -0.3900  0.2565
14256TIP3    H164183   0.830   2.713   1.017 -0.0720  1.7069  1.2221
14256TIP3    H264184   0.796   2.811   0.906 -1.2235  0.1833  0.1936
14257TIP3   OH264185   1.145   2.267   1.819  0.8026 -0.2275 -0.4829
14257TIP3    H164186   1.145   2.360   1.797  2.2084 -0.0064  0.3922
14257TIP3    H264187   1.131   2.264   1.913 -1.5384 -1.0180 -0.8176
14258TIP3   OH264188   0.701   1.058   0.873 -0.1917  0.3271 -0.8370
14258TIP3    H164189   0.794   1.042   0.885  0.2206  1.0903 -2.9638
14258TIP3    H264190   0.660   1.014   0.948  2.0100  1.7801  1.3095
14259TIP3   OH264191   4.147   3.519   5.327  0.0641  0.0160  0.4345
14259TIP3    H164192   4.224   3.490   5.278 -0.4902  0.6326 -0.8291
14259TIP3    H264193   4.073   3.493   5.272 -0.6220 -0.5271  1.6175
14260TIP3   OH264194   6.405   5.795  14.489  0.2271 -0.1413  0.0093
14260TIP3    H164195   6.374   5.880  14.519 -0.4068  0.4389 -2.2489
14260TIP3    H264196   6.399   5.799  14.394  0.6788 -2.5321 -0.1444
14261TIP3   OH264197   1.978   1.940   5.021 -0.0075  0.2695  0.3568
14261TIP3    H164198   2.050   1.939   4.958 -0.9926 -0.0819 -0.7758
14261TIP3    H264199   1.957   1.848   5.036 -1.2754  0.3974 -0.5575
14262TIP3   OH264200   2.712   3.671  14.245  0.3973 -0.5951 -0.0142
14262TIP3    H164201   2.652   3.637  14.179 -0.2128  1.3885 -0.4874
14262TIP3    H264202   2.792   3.620  14.232 -0.5018 -1.8603 -0.6965
14263TIP3   OH264203   4.045   1.815  16.172  0.6005 -0.5047  0.3486
14263TIP3    H164204   4.125   1.842  16.218 -1.1630  2.3354  1.8424
14263TIP3    H264205   4.043   1.869  16.093  2.3518 -3.6691 -1.9797
14264TIP3   OH264206   2.678   1.887  16.856  0.5523 -1.0330 -0.3916
14264TIP3    H164207   2.633   1.838  16.925 -0.0817 -0.6020 -0.4929
14264TIP3    H264208   2.766   1.850  16.854  1.0403 -0.1012  1.6303
14265TIP3   OH264209   0.472   5.187  16.199  0.5783  0.0915  0.0395
14265TIP3    H164210   0.554   5.144  16.176  1.8237  1.5330  1.6621
14265TIP3    H264211   0.404   5.131  16.161  2.2114 -2.2036  0.3926
14266TIP3   OH264212   0.741   0.473   6.380 -0.1341  0.8342  0.4347
14266TIP3    H164213   0.805   0.540   6.358 -1.3993  0.9973 -2.9618
14266TIP3    H264214   0.675   0.519   6.431  1.3497  1.0998  2.1727
14267TIP3   OH264215   5.530   1.237   5.199  0.1075 -0.0396 -0.0179
14267TIP3    H164216   5.502   1.165   5.142  0.7454  0.5931 -1.1386
14267TIP3    H264217   5.450   1.288   5.212 -0.1577 -0.4738  0.0804
14268TIP3   OH264218   4.958   0.723   0.685  0.2921  0.0631 -0.0025
14268TIP3    H164219   4.957   0.769   0.601 -0.2305  0.1131  0.0319
14268TIP3    H264220   4.981   0.791   0.749  0.2646  0.1159 -0.0486
14269TIP3   OH264221   5.640   6.244   0.030  0.3016  0.5139  0.2638
14269TIP3    H164222   5.566   6.212   0.080  1.7826  0.0097  2.1979
14269TIP3    H264223   5.688   6.165   0.004  0.2155  0.8313 -0.9238
14270TIP3   OH264224   2.351   1.145   3.119  0.1404  0.3375 -0.2893
14270TIP3    H164225   2.269   1.136   3.071 -0.1188  0.5691  0.1088
14270TIP3    H264226   2.337   1.095   3.200  0.5565 -0.0130 -0.4317
14271TIP3   OH264227   5.823   6.578  13.856  0.3414  0.3027  0.0411
14271TIP3    H164228   5.887   6.639  13.821 -2.5537  2.3024 -2.0240
14271TIP3    H264229   5.765   6.632  13.909 -2.2229 -0.5645 -1.7652
14272TIP3   OH264230   3.759   0.984   1.921  0.2410 -0.2868  0.0495
14272TIP3    H164231   3.664   0.995   1.928  0.1857  0.0103 -1.0202
14272TIP3    H264232   3.771   0.890   1.910  0.0461 -0.2998 -0.0620
14273TIP3   OH264233   3.215   2.637  13.477  0.3310  0.4896  1.2403
14273TIP3    H164234   3.176   2.663  13.560 -0.7323  0.6967  0.6803
14273TIP3    H264235   3.252   2.718  13.441 -0.9185  0.7865  0.6030
14274TIP3   OH264236   4.903   4.862  12.893 -0.5671  0.4533 -0.2934
14274TIP3    H164237   4.876   4.774  12.867 -0.9528 -0.3540  2.6967
14274TIP3    H264238   4.999   4.856  12.901 -0.1992  1.2827 -3.4673
14275TIP3   OH264239   6.537   1.595  13.444  0.1745 -0.7447  0.8410
14275TIP3    H164240   6.484   1.671  13.468  2.0218  1.0656 -0.6102
14275TIP3    H264241   6.502   1.568  13.359  0.7347 -0.3139  0.4651
14276TIP3   OH264242   4.789   3.226  10.881  0.2886 -0.0933 -0.4034
14276TIP3    H164243   4.706   3.248  10.838 -0.1567 -0.8823  0.0438
14276TIP3    H264244   4.763   3.181  10.961  1.1829 -1.0538 -0.6494
14277TIP3   OH264245   6.231   5.199  13.619 -0.3107 -0.3689 -0.4258
14277TIP3    H164246   6.222   5.290  13.588 -2.0053  0.1099  1.3941
14277TIP3    H264247   6.150   5.157  13.592 -1.1891 -0.3164  2.0321
14278TIP3   OH264248   3.526   4.246  12.242 -0.4440  0.5623 -0.2315
14278TIP3    H164249   3.451   4.305  12.237 -0.6161  0.2781 -1.1412
14278TIP3    H264250   3.596   4.292  12.195 -1.3904 -1.1408 -3.4877
14279TIP3   OH264251   3.550   2.291   5.861 -0.1370 -0.0574 -0.9814
14279TIP3    H164252   3.460   2.322   5.865  0.1278  0.8889 -2.0698
14279TIP3    H264253   3.573   2.271   5.952 -1.1470  0.5626 -0.5830
14280TIP3   OH264254   6.644   0.666   3.152  0.4429 -0.5315  0.0916
14280TIP3    H164255   6.646   0.594   3.089 -1.0831 -0.2230 -0.3496
14280TIP3    H264256   6.625   0.743   3.098  3.0186  0.3723  0.4236
14281TIP3   OH264257   6.085   0.551  16.169  0.1667  0.1213  0.7353
14281TIP3    H164258   6.119   0.585  16.252 -0.6127  0.1064  1.0631
14281TIP3    H264259   5.990   0.555  16.179  0.0779  0.7539 -0.4252
14282TIP3   OH264260   5.910   0.365   0.296  0.6175  0.0981 -0.1655
14282TIP3    H164261   5.947   0.277   0.285  1.8132  0.7919 -1.9588
14282TIP3    H264262   5.828   0.361   0.247 -0.2180 -0.5305  1.2528
14283TIP3   OH264263   3.799   6.329   2.478 -0.1874 -0.2638  0.1254
14283TIP3    H164264   3.725   6.388   2.487 -0.2650 -0.2723 -0.4255
14283TIP3    H264265   3.760   6.245   2.454 -0.0174 -0.3319  0.0884
14284TIP3   OH264266   0.186   3.464   1.048 -0.2129 -0.3091  0.7661
14284TIP3    H164267   0.105   3.480   1.000 -0.4222  0.0553  1.2314
14284TIP3    H264268   0.236   3.545   1.040  1.9720 -1.8714 -3.0132
14285TIP3   OH264269   5.257   5.033   2.605 -0.3566  0.4012 -0.1189
14285TIP3    H164270   5.337   5.019   2.654 -0.4991  0.6349  0.1804
14285TIP3    H264271   5.275   5.112   2.553  0.2813 -0.6112 -1.4648
14286TIP3   OH264272   3.700   2.913  16.774  0.3276  0.1104 -0.6425
14286TIP3    H164273   3.698   2.846  16.706 -0.3629 -0.9415  0.3931
14286TIP3    H264274   3.728   2.867  16.853 -0.3393  0.9879  0.1334
14287TIP3   OH264275   0.113   2.856  14.863  0.0258  0.0104 -0.2719
14287TIP3    H164276   0.072   2.888  14.783 -2.8881  2.0252  1.9026
14287TIP3    H264277   0.207   2.854  14.844 -0.2433  4.1520 -2.4842
14288TIP3   OH264278   0.723   1.823  12.997 -0.1304 -0.6648 -0.4906
14288TIP3    H164279   0.747   1.814  13.089 -0.8238  0.3866 -0.1929
14288TIP3    H264280   0.807   1.824  12.951  0.3082  0.3553  0.2916
14289TIP3   OH264281   4.921   2.840  13.771  0.3603  0.1260 -0.1394
14289TIP3    H164282   4.851   2.905  13.780  1.6197  1.0832  3.4492
14289TIP3    H264283   4.998   2.891  13.746  0.6745 -0.4010 -0.2563
14290TIP3   OH264284   6.425   1.391   3.658  0.0891 -0.7375  0.2101
14290TIP3    H164285   6.386   1.316   3.703  2.9239 -2.9344 -0.8667
14290TIP3    H264286   6.426   1.366   3.566 -2.1526  2.1525 -0.6746
14291TIP3   OH264287   1.861   6.573   4.617  0.1196 -0.4859 -0.8486
14291TIP3    H164288   1.860   6.636   4.545 -1.4888 -0.5946 -0.9354
14291TIP3    H264289   1.947   6.533   4.612 -0.0805 -0.7437 -2.9427
14292TIP3   OH264290   3.162   0.637   6.052 -0.2701  0.3551 -0.2733
14292TIP3    H164291   3.067   0.635   6.066 -0.2723 -1.1462 -0.4112
14292TIP3    H264292   3.190   0.546   6.066  1.0414  0.6450 -0.9488
14293TIP3   OH264293   3.728   1.391  13.784 -0.6296  0.9893  0.3486
14293TIP3    H164294   3.675   1.311  13.791  0.4284  0.2044 -0.4662
14293TIP3    H264295   3.750   1.413  13.874 -0.1695 -0.1512  0.5239
14294TIP3   OH264296   2.759   2.853  15.675  0.8253  0.0721  0.1578
14294TIP3    H164297   2.688   2.873  15.614  1.6241 -1.6467 -1.4002
14294TIP3    H264298   2.839   2.880  15.629  1.4443 -1.3662  0.3632
14295TIP3   OH264299   1.102   3.836  17.126 -0.3820  0.7146 -0.0901
14295TIP3    H164300   1.186   3.791  17.122 -0.9507 -0.4197  0.3044
14295TIP3    H264301   1.046   3.786  17.066 -1.2609  0.3824  0.9936
14296TIP3   OH264302   4.899   0.713   4.200 -0.1548  0.1320  0.2762
14296TIP3    H164303   4.981   0.697   4.247  0.0612  0.4285  0.0020
14296TIP3    H264304   4.835   0.732   4.268 -0.3711 -1.6572  0.6152
14297TIP3   OH264305   0.876   5.775  15.138 -0.0939 -0.0524  0.5778
14297TIP3    H164306   0.899   5.711  15.071  0.8422 -0.0399  0.8759
14297TIP3    H264307   0.844   5.851  15.089  1.4279  0.2925  0.0962
14298TIP3   OH264308   6.487   1.007  13.516  0.6577  0.1954 -0.4575
14298TIP3    H164309   6.391   1.007  13.514  0.6493  0.2737 -0.1054
14298TIP3    H264310   6.509   1.016  13.609  1.0024 -0.5049 -0.4697
14299TIP3   OH264311   3.710   0.827  15.142 -0.0027 -0.0904 -0.3363
14299TIP3    H164312   3.694   0.826  15.236 -1.7624 -1.9339 -0.6283
14299TIP3    H264313   3.685   0.916  15.114  1.3247  0.7264  1.0377
14300TIP3   OH264314   5.762   3.944  10.775 -0.0955 -0.0270 -0.5012
14300TIP3    H164315   5.760   4.037  10.798  1.0404 -0.2917  0.7387
14300TIP3    H264316   5.680   3.930  10.727 -0.4100  1.5494 -0.4703
14301TIP3   OH264317   2.042   1.867   4.134  0.5855  0.6165  0.0889
14301TIP3    H164318   1.966   1.878   4.077 -0.0305  1.1677  0.9954
14301TIP3    H264319   2.092   1.796   4.094 -1.4547 -1.1508  0.5720
14302TIP3   OH264320   2.983   3.476  14.052  0.3490  0.7504  0.2792
14302TIP3    H164321   3.050   3.421  14.091 -0.8056 -0.8899 -0.0167
14302TIP3    H264322   2.995   3.562  14.094  2.1267  0.2867  0.7682
14303TIP3   OH264323   4.093   5.372   0.123 -0.6246  0.6783  0.1846
14303TIP3    H164324   4.083   5.412   0.210 -0.9690 -0.5129  0.7093
14303TIP3    H264325   4.007   5.379   0.083 -1.3365 -1.6691  1.2293
14304TIP3   OH264326   4.167   5.305   5.839  0.4469 -0.0233  0.2572
14304TIP3    H164327   4.094   5.365   5.828  0.5169  0.2105  1.0386
14304TIP3    H264328   4.142   5.228   5.788  0.2187  0.5384 -0.4922
14305TIP3   OH264329   5.648   6.389   5.191  0.1988  0.3725  0.2853
14305TIP3    H164330   5.685   6.452   5.253  0.6589 -0.5285  0.9269
14305TIP3    H264331   5.585   6.338   5.242 -0.4104  0.5130 -0.3111
14306TIP3   OH264332   0.757   5.966   5.850  0.5590  0.1536  0.4609
14306TIP3    H164333   0.800   6.014   5.920 -0.0406  0.0774  0.8847
14306TIP3    H264334   0.784   5.875   5.863  0.6539  0.1792  0.4426
14307TIP3   OH264335   5.431   2.255   5.987 -0.4460 -0.7261  0.3793
14307TIP3    H164336   5.451   2.348   5.985 -0.3601 -0.6086  3.6641
14307TIP3    H264337   5.452   2.223   5.899 -1.5260  2.5236 -1.1048
14308TIP3   OH264338   4.019   3.761  16.496  0.5669 -0.3227 -0.6764
14308TIP3    H164339   3.945   3.817  16.519 -0.4676 -1.4843 -1.0908
14308TIP3    H264340   4.093   3.821  16.488 -0.1453  0.7604  0.5467
14309TIP3   OH264341   2.978   5.626  12.600  0.1898  0.0197 -0.0068
14309TIP3    H164342   2.995   5.604  12.509 -1.6409 -0.0703 -0.3505
14309TIP3    H264343   2.883   5.636  12.605  0.3375  0.7680  1.7259
14310TIP3   OH264344   3.158   4.140  15.207  0.2548  0.6421  0.4281
14310TIP3    H164345   3.121   4.112  15.123  2.2767 -1.2964  0.1342
14310TIP3    H264346   3.221   4.208  15.183  0.3513  0.5571  0.4421
14311TIP3   OH264347   2.775   3.357   1.328 -0.4298  0.1446  0.3120
14311TIP3    H164348   2.831   3.283   1.353 -0.0335  0.4675  0.3996
14311TIP3    H264349   2.832   3.434   1.337 -1.6593  0.7993  3.0849
14312TIP3   OH264350   2.685   6.576   0.070 -0.1628 -0.1415  0.3409
14312TIP3    H164351   2.702   6.554   0.161  0.9012 -3.6386 -0.6113
14312TIP3    H264352   2.652   6.495   0.031  0.1101  1.0619 -2.5744
14313TIP3   OH264353   3.783   4.394  12.822  0.0847  0.4951 -0.0561
14313TIP3    H164354   3.757   4.349  12.742  0.0411 -0.6147  0.5777
14313TIP3    H264355   3.738   4.347  12.893  1.4858  0.3678  0.7777
14314TIP3   OH264356   3.426   6.558  12.318  0.1140 -0.0413 -0.1952
14314TIP3    H164357   3.365   6.501  12.271  1.2758  0.4124 -2.2978
14314TIP3    H264358   3.481   6.497  12.367  1.0079 -0.7370 -2.0047
14315TIP3   OH264359   3.919   5.372   0.714 -0.1967 -0.0578 -0.2478
14315TIP3    H164360   3.974   5.304   0.751 -0.3289 -0.5256 -0.9039
14315TIP3    H264361   3.981   5.438   0.681 -0.0206 -0.5335 -0.8915
14316TIP3   OH264362   6.368   6.447  12.589 -0.5539 -0.4102 -0.0898
14316TIP3    H164363   6.402   6.517  12.645 -0.3869 -1.1143  0.6999
14316TIP3    H264364   6.407   6.464  12.503 -0.9297  0.7617 -0.0401
14317TIP3   OH264365   2.411   5.680  10.291  0.4721  0.4884 -0.5278
14317TIP3    H164366   2.504   5.661  10.298  0.2742 -0.3381 -0.0912
14317TIP3    H264367   2.398   5.707  10.200  0.8432 -0.9824 -1.0243
14318TIP3   OH264368   3.770   1.700  15.869  0.4475 -0.4459  0.1348
14318TIP3    H164369   3.735   1.722  15.955  2.2209  0.9246  0.5332
14318TIP3    H264370   3.853   1.657  15.887  0.0635 -1.6376 -0.8635
14319TIP3   OH264371   3.562   3.639  11.635 -0.0964  0.7823 -0.8293
14319TIP3    H164372   3.626   3.704  11.606 -0.5871  0.7963 -1.8942
14319TIP3    H264373   3.477   3.677  11.614 -0.3988 -0.0883 -1.2094
14320TIP3   OH264374   4.895   3.306  15.277 -0.4046 -0.3011  0.2740
14320TIP3    H164375   4.963   3.370  15.256 -0.0614 -0.7725 -0.0474
14320TIP3    H264376   4.835   3.309  15.202  0.2572 -1.2197 -0.3121
14321TIP3   OH264377   4.479   0.948   2.835  0.2046 -0.1479 -0.8885
14321TIP3    H164378   4.432   0.957   2.918  2.0681 -2.6349  0.5431
14321TIP3    H264379   4.478   0.853   2.818 -0.1657  0.3423 -3.7175
14322TIP3   OH264380   5.042   1.602  11.580 -0.1989  0.4907 -0.2703
14322TIP3    H164381   5.116   1.637  11.630 -1.1350  2.1405 -0.0227
14322TIP3    H264382   5.082   1.567  11.500  1.4429 -3.0075  1.9457
14323TIP3   OH264383   4.983   6.314  15.728  0.7538  0.3338 -0.7644
14323TIP3    H164384   5.021   6.263  15.799  1.0484  0.7792 -0.5992
14323TIP3    H264385   5.036   6.293  15.651 -1.0521 -2.0179 -1.4193
14324TIP3   OH264386   5.232   3.513   3.400 -0.6172 -0.4400 -0.1126
14324TIP3    H164387   5.295   3.574   3.438  1.7333 -3.0107  0.2434
14324TIP3    H264388   5.225   3.443   3.465 -0.4350 -2.3760 -2.1532
14325TIP3   OH264389   2.697   1.497   1.733  0.0134  0.3255  0.5820
14325TIP3    H164390   2.656   1.543   1.660 -2.3213 -3.7968 -0.9215
14325TIP3    H264391   2.765   1.443   1.692  0.0258 -0.5114  1.6870
14326TIP3   OH264392   0.943   4.667  16.757  0.0630 -0.1560 -0.8307
14326TIP3    H164393   0.848   4.659  16.763 -0.0780  1.4790 -0.6275
14326TIP3    H264394   0.975   4.642  16.844 -0.4180  2.3397  0.0948
14327TIP3   OH264395   5.285   3.732   1.355  0.1045 -0.1549  0.1154
14327TIP3    H164396   5.272   3.730   1.450 -0.3643  0.0182  0.0563
14327TIP3    H264397   5.196   3.738   1.319  0.0965 -2.7838 -0.4151
14328TIP3   OH264398   6.409   0.993  12.900 -0.1253 -0.0976 -0.7322
14328TIP3    H164399   6.325   1.033  12.923  0.2822  0.1547  0.3413
14328TIP3    H264400   6.421   0.924  12.965  0.2519 -0.4853 -1.2092
14329TIP3   OH264401   3.557   5.532  11.220  0.3158 -0.0123 -0.2068
14329TIP3    H164402   3.628   5.475  11.249  0.2974  0.0318 -0.0801
14329TIP3    H264403   3.563   5.609  11.277 -0.1871 -0.2570  0.1724
14330TIP3   OH264404   6.317   2.381   3.916  0.1095 -0.0364 -0.3419
14330TIP3    H164405   6.225   2.354   3.916  0.6193 -1.9226 -2.5083
14330TIP3    H264406   6.316   2.467   3.873 -0.7162  0.3144  0.3638
14331TIP3   OH264407   1.571   4.430  13.783 -0.4142 -0.4477  0.3381
14331TIP3    H164408   1.497   4.445  13.841  0.4112 -0.1568  1.3185
14331TIP3    H264409   1.577   4.335  13.775 -0.2802 -0.4950  1.0392
14332TIP3   OH264410   2.562   3.424  16.044 -0.3801 -0.2242 -0.1536
14332TIP3    H164411   2.476   3.395  16.015 -0.4743 -0.4519  0.3407
14332TIP3    H264412   2.588   3.359  16.110  0.1276 -0.1089 -0.2349
14333TIP3   OH264413   0.242   2.724  15.958 -1.0200 -0.0511  0.4943
14333TIP3    H164414   0.160   2.760  15.924 -0.3597  0.4550 -0.5918
14333TIP3    H264415   0.287   2.692  15.880  0.9353  1.9790  0.7414
14334TIP3   OH264416   1.611   3.784   6.122  0.0048 -0.4758 -0.2207
14334TIP3    H164417   1.537   3.825   6.077 -1.1463 -1.8380  0.3965
14334TIP3    H264418   1.673   3.856   6.136 -1.1557  0.6686 -0.8287
14335TIP3   OH264419   4.028   5.848   2.645  0.2152 -0.2401  0.2101
14335TIP3    H164420   4.117   5.814   2.653  0.0011 -0.5860  1.2296
14335TIP3    H264421   4.029   5.930   2.694 -0.6954 -1.5532  2.4942
14336TIP3   OH264422   4.735   1.098  13.969 -0.2988 -0.1934  0.1541
14336TIP3    H164423   4.665   1.158  13.996 -0.7212  0.5129 -2.4373
14336TIP3    H264424   4.689   1.018  13.944  0.1310 -1.0010  1.8363
14337TIP3   OH264425   4.414   5.897  12.820  0.1711  0.1102  0.2746
14337TIP3    H164426   4.363   5.978  12.818  0.4179  0.2857  0.8447
14337TIP3    H264427   4.421   5.870  12.728 -0.4031  0.4249  0.1343
14338TIP3   OH264428   5.310   6.403  16.598  0.4011 -0.1971 -0.0241
14338TIP3    H164429   5.303   6.437  16.687 -0.1338 -2.0753  0.6945
14338TIP3    H264430   5.401   6.416  16.573 -0.1897  3.4584 -0.5410
14339TIP3   OH264431   0.966   2.834   5.614  0.0246  0.2858  0.4170
14339TIP3    H164432   0.895   2.771   5.617  0.0203  0.3710  4.0561
14339TIP3    H264433   0.934   2.909   5.663  1.6869  1.3705 -0.0889
14340TIP3   OH264434   6.413   0.165  14.384  0.0056 -0.0295 -0.2030
14340TIP3    H164435   6.462   0.215  14.319 -1.1003  0.3769 -0.7447
14340TIP3    H264436   6.394   0.228  14.454  1.0172 -0.4147  0.4370
14341TIP3   OH264437   1.032   1.981   3.643  0.2752  0.3173 -0.2351
14341TIP3    H164438   1.022   1.886   3.631  1.0032  0.3367 -1.0394
14341TIP3    H264439   1.023   2.017   3.555  0.5834  0.9452 -0.0074
14342TIP3   OH264440   0.453   3.435   5.749  0.0972  0.1123  0.2247
14342TIP3    H164441   0.509   3.507   5.721 -0.6766  1.0161  0.9582
14342TIP3    H264442   0.502   3.356   5.727  0.7769  0.8455 -0.9681
14343TIP3   OH264443   2.640   5.028   2.113 -0.3502 -0.4520 -0.0986
14343TIP3    H164444   2.669   5.007   2.024  0.6615  0.9637 -0.1184
14343TIP3    H264445   2.714   5.004   2.168 -1.5228 -2.7331  0.5647
14344TIP3   OH264446   5.021   3.385  12.057 -0.0091 -0.1019  0.2590
14344TIP3    H164447   5.056   3.465  12.096  1.0593  0.1157 -1.1336
14344TIP3    H264448   5.042   3.392  11.964 -1.3019 -1.2691 -0.1318
14345TIP3   OH264449   5.758   5.551  13.864  0.0577  0.0539  0.0779
14345TIP3    H164450   5.783   5.601  13.786 -1.1633 -1.5089 -1.3472
14345TIP3    H264451   5.666   5.531  13.851 -0.0468 -0.6013  1.7424
14346TIP3   OH264452   0.311   3.218   2.043 -0.3595  0.0223 -0.7075
14346TIP3    H164453   0.229   3.255   2.011  0.1078  1.4938 -0.2506
14346TIP3    H264454   0.286   3.173   2.124 -0.6294  1.0305 -0.2102
14347TIP3   OH264455   1.109   2.455   3.980  0.2097 -1.1077 -0.7510
14347TIP3    H164456   1.049   2.382   3.989  0.0134 -0.8357  0.2358
14347TIP3    H264457   1.064   2.529   4.020  1.3809 -1.0107  0.4517
14348TIP3   OH264458   5.322   0.767   1.599  0.0279  0.5840  0.0941
14348TIP3    H164459   5.387   0.708   1.638  0.5704  0.8388 -0.4152
14348TIP3    H264460   5.304   0.831   1.668 -0.3340  0.0078  0.5391
14349TIP3   OH264461   0.309   0.346  12.657 -0.1526 -0.2606 -0.7685
14349TIP3    H164462   0.365   0.299  12.596  1.0581  0.3513 -0.1486
14349TIP3    H264463   0.290   0.429  12.614 -1.1435 -0.7377 -1.2634
14350TIP3   OH264464   4.352   1.663   4.464 -0.2480 -0.3797 -0.2178
14350TIP3    H164465   4.283   1.646   4.399 -0.4262 -1.9364  0.3345
14350TIP3    H264466   4.433   1.658   4.414 -0.3247 -2.5141 -0.2038
14351TIP3   OH264467   4.311   4.095   0.490 -0.2156 -0.8899  0.4173
14351TIP3    H164468   4.389   4.127   0.444 -0.3031 -1.0285  0.1706
14351TIP3    H264469   4.251   4.170   0.490  0.3217 -0.4413  1.5425
14352TIP3   OH264470   3.920   0.728   1.645  0.3312 -0.3776 -0.3668
14352TIP3    H164471   3.850   0.788   1.621 -0.3504 -0.6912  0.7831
14352TIP3    H264472   3.897   0.699   1.733  1.9006 -0.4952  0.0201
14353TIP3   OH264473   2.088   2.178  11.611 -0.7165 -0.1015 -0.0735
14353TIP3    H164474   2.094   2.268  11.577  1.8011  0.1483  0.9176
14353TIP3    H264475   2.135   2.181  11.694 -0.2876 -2.4223 -0.1982
14354TIP3   OH264476   6.133   0.196  15.655 -0.7282 -0.2286  0.7658
14354TIP3    H164477   6.113   0.283  15.688  1.3131  0.0387  1.3299
14354TIP3    H264478   6.136   0.206  15.560  2.0326  0.8933  0.9411
14355TIP3   OH264479   3.205   3.956   4.262  0.0037  0.2092 -0.3497
14355TIP3    H164480   3.231   3.976   4.172 -0.2729 -0.3691 -0.5640
14355TIP3    H264481   3.282   3.915   4.301 -0.6171 -1.6614 -1.0349
14356TIP3   OH264482   2.448   1.365   3.321 -0.1695 -0.2780 -0.1749
14356TIP3    H164483   2.518   1.414   3.279  1.8892 -1.6209  1.5722
14356TIP3    H264484   2.448   1.280   3.277 -1.1602 -0.0591 -0.6153
14357TIP3   OH264485   0.573   5.797   3.802  0.3962 -0.6168  0.0098
14357TIP3    H164486   0.595   5.877   3.755  2.2942 -1.0245  0.1722
14357TIP3    H264487   0.576   5.822   3.895 -1.4529 -0.2851 -0.0011
14358TIP3   OH264488   4.813   1.446   0.389 -0.5307  0.2695  0.1802
14358TIP3    H164489   4.766   1.432   0.307 -0.0680 -1.3514  0.1736
14358TIP3    H264490   4.905   1.436   0.366 -0.1718  3.0599  0.2750
14359TIP3   OH264491   5.263   4.544  14.308  0.1677 -0.8876  0.3238
14359TIP3    H164492   5.313   4.621  14.282 -0.1058 -1.2106 -1.2223
14359TIP3    H264493   5.184   4.579  14.348  0.5162 -0.3621  0.5512
14360TIP3   OH264494   3.719   4.901  14.559  0.1409 -0.7938  0.2696
14360TIP3    H164495   3.655   4.849  14.608  1.3928 -0.5427  2.2252
14360TIP3    H264496   3.750   4.842  14.490  0.4187 -2.1391  1.5089
14361TIP3   OH264497   3.241   0.298   5.283 -0.8023  0.2442  0.1542
14361TIP3    H164498   3.286   0.257   5.209 -2.2554  1.7999 -1.6456
14361TIP3    H264499   3.281   0.258   5.361  0.6094 -1.5751 -1.4579
14362TIP3   OH264500   5.446   3.736  14.592  0.0561  0.0515  0.6472
14362TIP3    H164501   5.530   3.767  14.623  0.0817 -1.1850  1.8164
14362TIP3    H264502   5.382   3.778  14.650 -0.2157  1.5341 -0.6575
14363TIP3   OH264503   3.463   0.879  14.011 -0.2303 -0.1365  0.2972
14363TIP3    H164504   3.389   0.820  14.028  1.3355 -2.2017  0.1012
14363TIP3    H264505   3.474   0.928  14.093 -0.9604 -0.7550  0.7698
14364TIP3   OH264506   6.507   5.894  12.566 -0.5857 -0.4197 -0.3116
14364TIP3    H164507   6.487   5.985  12.545  0.1686 -0.3214 -0.6233
14364TIP3    H264508   6.492   5.846  12.484  1.2109 -0.2188 -0.7817
14365TIP3   OH264509   2.508   2.161   3.969  0.4152 -0.0525  0.3432
14365TIP3    H164510   2.545   2.181   3.883 -0.7329  1.0519  0.0956
14365TIP3    H264511   2.485   2.247   4.006  0.5482 -0.5451  1.5945
14366TIP3   OH264512   6.395   3.103   4.248  0.5678 -0.7206 -0.1395
14366TIP3    H164513   6.393   3.180   4.191  0.1449 -0.9530 -0.4461
14366TIP3    H264514   6.304   3.071   4.248  0.6163 -0.8665  0.4680
14367TIP3   OH264515   4.346   3.801   2.274  0.0935  0.0605 -0.0564
14367TIP3    H164516   4.275   3.865   2.280 -0.5374 -0.5180 -1.1500
14367TIP3    H264517   4.308   3.721   2.312 -0.1624 -0.5044 -1.4719
14368TIP3   OH264518   6.778   0.030  16.935 -0.2516 -0.3762  0.5967
14368TIP3    H164519   6.706   0.037  16.872  1.1250  0.4113 -0.9277
14368TIP3    H264520   6.771   0.109  16.989 -1.8326 -1.3756  1.9080
14369TIP3   OH264521   3.421   3.049  14.821  0.0543  0.1123 -0.1102
14369TIP3    H164522   3.513   3.075  14.814  0.1055 -0.1228 -0.3196
14369TIP3    H264523   3.411   3.020  14.912 -0.4005  2.3846  0.5806
14370TIP3   OH264524   0.120   1.087  13.425 -0.2328 -0.0734  0.5224
14370TIP3    H164525   0.104   1.033  13.347 -0.5498 -0.0251  0.5552
14370TIP3    H264526   0.203   1.131  13.407 -0.3923  0.0698  0.1362
14371TIP3   OH264527   3.229   2.148   4.294  0.2604 -0.2148 -0.2772
14371TIP3    H164528   3.186   2.073   4.254 -1.2357  0.5686 -0.1513
14371TIP3    H264529   3.174   2.222   4.273  0.8385  0.6089  1.0130
14372TIP3   OH264530   1.758   5.112  12.131  0.5579  0.1956  0.3691
14372TIP3    H164531   1.812   5.085  12.205  0.1130  1.2745  1.1043
14372TIP3    H264532   1.668   5.107  12.164  0.3534  0.6042 -0.1103
14373TIP3   OH264533   4.299   4.464   1.563 -0.0381 -0.3040 -0.4349
14373TIP3    H164534   4.339   4.465   1.650 -0.3901  2.2635 -0.2688
14373TIP3    H264535   4.205   4.467   1.580 -0.0687  2.7413 -0.8736
14374TIP3   OH264536   2.817   0.248   3.540 -0.2545 -0.5412  0.4806
14374TIP3    H164537   2.774   0.169   3.510 -1.7709 -0.2470  1.7837
14374TIP3    H264538   2.769   0.319   3.498  1.2673 -0.2893 -0.8960
14375TIP3   OH264539   2.627   5.365  11.061 -0.4803 -0.0522  1.0833
14375TIP3    H164540   2.674   5.316  10.993 -0.9846  1.5805 -0.4975
14375TIP3    H264541   2.683   5.358  11.139  1.9909  1.1001 -0.5190
14376TIP3   OH264542   1.384   4.276   2.758 -0.5696  0.0317  0.2111
14376TIP3    H164543   1.442   4.348   2.735 -0.5476 -0.4149 -1.1680
14376TIP3    H264544   1.336   4.257   2.678 -0.1532 -1.8897  0.3884
14377TIP3   OH264545   2.506   4.582   4.100 -0.4616 -0.4211 -0.1018
14377TIP3    H164546   2.565   4.657   4.090 -0.6995 -0.2281 -0.0487
14377TIP3    H264547   2.561   4.506   4.080 -0.1936 -0.2410 -0.0511
14378TIP3   OH264548   2.778   5.340  15.889 -0.2283  0.3241 -0.0733
14378TIP3    H164549   2.712   5.330  15.821  0.3354 -1.8850 -0.3211
14378TIP3    H264550   2.860   5.351  15.841  0.0693 -0.4852  0.2496
14379TIP3   OH264551   1.746   1.570   5.197 -0.1344 -0.3289  0.4997
14379TIP3    H164552   1.830   1.561   5.241 -0.6175 -0.1242  1.4814
14379TIP3    H264553   1.725   1.481   5.167  0.3785 -0.3998  0.3517
14380TIP3   OH264554   5.115   4.539   4.378  0.2495 -0.1738  0.4337
14380TIP3    H164555   5.192   4.493   4.345  0.8153  0.1756  1.2552
14380TIP3    H264556   5.042   4.506   4.325  1.3527  1.4766 -2.1896
14381TIP3   OH264557   4.600   0.331   2.502  0.3815  0.2213  0.1030
14381TIP3    H164558   4.582   0.382   2.581  0.7858 -1.3238  1.2148
14381TIP3    H264559   4.694   0.341   2.488  0.5814 -0.7557  0.7147
14382TIP3   OH264560   1.139   5.777   1.642 -0.6575  0.2949 -0.2179
14382TIP3    H164561   1.130   5.846   1.707 -0.2306 -0.1000  0.2607
14382TIP3    H264562   1.174   5.821   1.564 -0.7680  0.6833 -0.0497
14383TIP3   OH264563   3.680   3.967   1.535 -0.1885 -0.0161 -0.0846
14383TIP3    H164564   3.748   4.025   1.502  0.5049 -1.2455 -0.8714
14383TIP3    H264565   3.728   3.901   1.585 -0.9414 -0.0396  0.6109
14384TIP3   OH264566   2.786   3.534  15.202  0.2861  0.0157  0.0138
14384TIP3    H164567   2.750   3.606  15.150  1.3725 -1.1061 -2.3696
14384TIP3    H264568   2.771   3.560  15.293 -0.6159  2.5790 -0.8313
14385TIP3   OH264569   3.876   6.172   1.908  0.1877  0.3940 -0.4961
14385TIP3    H164570   3.909   6.140   1.992  1.5147 -0.2419 -1.2459
14385TIP3    H264571   3.881   6.097   1.849 -1.1189  0.7283 -1.0481
14386TIP3   OH264572   3.008   3.573  15.009  0.1737 -0.3632 -0.2190
14386TIP3    H164573   3.089   3.527  15.029 -1.4878 -4.0257 -1.6015
14386TIP3    H264574   2.943   3.537  15.070 -1.6953 -1.6074 -2.8485
14387TIP3   OH264575   4.918   5.631  16.066 -0.2615  0.1107 -0.2803
14387TIP3    H164576   4.977   5.627  16.141 -0.5354 -0.8877 -0.1167
14387TIP3    H264577   4.854   5.699  16.089 -1.1006 -1.0692  0.9478
14388TIP3   OH264578   1.983   3.941   2.141  0.0415 -0.0365  0.3823
14388TIP3    H164579   2.009   3.997   2.214  4.4279  0.5259 -1.5075
14388TIP3    H264580   2.020   3.856   2.162 -2.0264 -0.9292  0.6020
14389TIP3   OH264581   3.284   1.877   5.373  0.3830  0.1267  0.1334
14389TIP3    H164582   3.271   1.786   5.345 -0.5497  0.3991 -0.3537
14389TIP3    H264583   3.363   1.875   5.427  1.1716 -0.7420 -1.0190
14390TIP3   OH264584   6.435   5.451  14.012  0.1708 -0.2734 -0.0369
14390TIP3    H164585   6.518   5.493  13.988 -0.7834  1.1915 -0.8294
14390TIP3    H264586   6.432   5.372  13.958  0.6065  0.1750 -0.7271
14391TIP3   OH264587   0.326   4.870   0.802 -0.6731  0.2339  0.1928
14391TIP3    H164588   0.297   4.958   0.780  2.0967  1.1561  0.1129
14391TIP3    H264589   0.250   4.815   0.784 -2.1157  2.4583 -0.7082
14392TIP3   OH264590   1.914   5.000  17.098 -0.6086  0.3310  0.2018
14392TIP3    H164591   1.946   4.988  17.188  1.3537  2.2621 -0.2160
14392TIP3    H264592   1.906   5.095  17.088 -0.7208  0.1334 -1.7033
14393TIP3   OH264593   0.530   5.304  17.205 -0.4309  0.3998 -0.2121
14393TIP3    H164594   0.586   5.246  17.256 -2.6808 -0.1908  1.6592
14393TIP3    H264595   0.455   5.250  17.181 -0.8957  1.5810 -1.4545
14394TIP3   OH264596   0.725   6.569  12.276 -0.3689 -0.5625  0.2236
14394TIP3    H164597   0.820   6.560  12.284 -0.3747 -1.2565 -0.3532
14394TIP3    H264598   0.709   6.568  12.181 -1.1497 -2.9152  0.3237
14395TIP3   OH264599   2.005   6.727  14.138  0.2958 -0.4488  0.0378
14395TIP3    H164600   1.965   6.771  14.213  0.6427  0.4205 -0.2805
14395TIP3    H264601   2.078   6.679  14.176  0.0781 -0.5385  0.3522
14396TIP3   OH264602   3.939   2.364   5.319  0.4971  0.1783 -0.1295
14396TIP3    H164603   3.994   2.357   5.241  2.4535 -0.4442  1.2711
14396TIP3    H264604   3.850   2.377   5.284  1.2521 -0.5478 -2.4485
14397TIP3   OH264605   3.253   4.465  15.813 -0.0418  0.2550  0.0962
14397TIP3    H164606   3.193   4.426  15.877 -0.6133  0.8705 -0.0538
14397TIP3    H264607   3.273   4.394  15.753  0.2064 -0.2295  0.7476
14398TIP3   OH264608   3.515   1.248   0.126  0.1077  0.3605  0.6126
14398TIP3    H164609   3.479   1.253   0.038 -3.1971  0.2060  1.8965
14398TIP3    H264610   3.541   1.337   0.147 -1.4663  0.8780  0.4120
14399TIP3   OH264611   6.733   4.533   5.463  0.2382 -0.2200  0.9662
14399TIP3    H164612   6.822   4.565   5.476  0.2057  0.2544  0.0216
14399TIP3    H264613   6.709   4.496   5.548  1.7055 -1.2858  0.9421
14400TIP3   OH264614   3.981   1.344  15.583  1.1873  0.3161  0.4432
14400TIP3    H164615   4.016   1.280  15.521  0.1459  1.5917 -1.5182
14400TIP3    H264616   3.891   1.316  15.597  0.7347  1.3094 -0.4040
14401TIP3   OH264617   0.297   1.216   6.100  0.8261  0.3680 -0.3134
14401TIP3    H164618   0.336   1.146   6.153  0.8661  0.1542 -0.6228
14401TIP3    H264619   0.372   1.258   6.058  0.9162  1.5059  0.9834
14402TIP3   OH264620   3.153   0.139  12.477 -0.1802 -0.6997 -0.4128
14402TIP3    H164621   3.145   0.098  12.563 -1.7504  1.0138  0.2941
14402TIP3    H264622   3.230   0.098  12.438  0.9762 -0.9977  2.0949
14403TIP3   OH264623   2.135   3.513  11.009  0.4160 -0.1059 -0.0367
14403TIP3    H164624   2.167   3.597  11.043 -0.7323  0.2853  0.0923
14403TIP3    H264625   2.170   3.448  11.070 -0.7991  0.5113  1.3446
14404TIP3   OH264626   2.384   4.612   5.830  0.2337  0.0861  0.5298
14404TIP3    H164627   2.423   4.530   5.861  0.4905  0.7005  1.8415
14404TIP3    H264628   2.300   4.586   5.793  0.2919 -0.7626  0.9850
14405TIP3   OH264629   0.793   2.770   3.830 -0.1933  0.7073  0.4580
14405TIP3    H164630   0.763   2.682   3.854  1.7788 -0.0672  0.1790
14405TIP3    H264631   0.836   2.803   3.909 -0.1099  1.0454  0.2722
14406TIP3   OH264632   3.911   4.082   3.537  0.2334  0.4236 -0.0627
14406TIP3    H164633   3.939   4.033   3.460 -0.7892 -0.6349  0.2261
14406TIP3    H264634   3.887   4.015   3.601  0.2577  1.2988  0.8699
14407TIP3   OH264635   0.977   6.699   4.446  0.0169  0.0748  0.9067
14407TIP3    H164636   0.968   6.744   4.362 -0.0055 -1.7638 -0.1206
14407TIP3    H264637   0.888   6.695   4.480 -0.0029  0.6535  0.9261
14408TIP3   OH264638   5.690   1.865  14.932 -0.4208 -0.5353 -0.4422
14408TIP3    H164639   5.755   1.934  14.914 -0.4735 -0.8869 -2.1201
14408TIP3    H264640   5.714   1.830  15.017  1.2762 -0.2797 -0.7998
14409TIP3   OH264641   0.352   1.055   4.811 -0.0606  0.3546  0.1335
14409TIP3    H164642   0.430   1.110   4.798  0.8421 -1.0244 -0.4965
14409TIP3    H264643   0.279   1.116   4.808  0.7877  1.3481 -2.2680
14410TIP3   OH264644   0.035   6.427  10.765 -0.4108 -0.5353  0.1345
14410TIP3    H164645   0.035   6.344  10.716 -0.4415 -0.4074 -0.0826
14410TIP3    H264646  -0.027   6.482  10.718 -2.7489 -1.4299  2.0682
14411TIP3   OH264647   3.998   0.949  13.598 -0.4492  0.0316 -0.1117
14411TIP3    H164648   4.008   1.043  13.611  1.0664 -0.2018  0.5889
14411TIP3    H264649   4.070   0.911  13.648 -0.7382 -1.4709 -0.8249
14412TIP3   OH264650   2.172   1.075  11.062 -0.0948 -0.2018 -0.0263
14412TIP3    H164651   2.175   1.023  10.982 -1.9475 -0.1602 -0.1441
14412TIP3    H264652   2.231   1.030  11.123  1.7311  0.0535 -1.5425
14413TIP3   OH264653   1.736   3.342   1.912  0.1112 -0.2930 -0.1377
14413TIP3    H164654   1.813   3.290   1.890 -0.1473 -0.4715 -0.6223
14413TIP3    H264655   1.760   3.432   1.889 -0.4048 -0.5686 -1.8174
14414TIP3   OH264656   1.128   4.651   3.881 -0.2765  0.0443 -0.1702
14414TIP3    H164657   1.064   4.597   3.835 -0.0249  0.0527 -0.5306
14414TIP3    H264658   1.185   4.685   3.812 -0.7293  1.1741  0.0148
14415TIP3   OH264659   1.135   3.309   3.790 -0.4708 -0.0161  0.0935
14415TIP3    H164660   1.230   3.317   3.794 -0.4894 -0.2116  1.0223
14415TIP3    H264661   1.117   3.281   3.700  0.0690  3.5759 -1.1842
14416TIP3   OH264662   3.649   0.073   3.312  0.0430 -0.2586  0.5572
14416TIP3    H164663   3.559   0.064   3.344 -0.1954  0.7747  0.1868
14416TIP3    H264664   3.695   0.121   3.381 -0.1568  0.8468 -0.0621
14417TIP3   OH264665   3.634   1.659   1.652 -0.0354 -0.3432 -0.2085
14417TIP3    H164666   3.625   1.591   1.585  1.8935  0.6753 -1.5490
14417TIP3    H264667   3.722   1.648   1.687 -0.4145  0.2195  0.9887
14418TIP3   OH264668   6.342   5.351   4.347  0.5059  0.0921  0.4370
14418TIP3    H164669   6.247   5.364   4.348  0.7398  2.2820 -1.4507
14418TIP3    H264670   6.362   5.328   4.257  1.8130 -0.0421  0.7556
14419TIP3   OH264671   0.422   5.480  14.226  0.2676  0.2073 -0.4483
14419TIP3    H164672   0.377   5.398  14.243  1.2216 -0.1147  0.6402
14419TIP3    H264673   0.494   5.457  14.167  0.9781  0.1044  0.4359
14420TIP3   OH264674   3.519   2.131  14.050 -0.1259 -0.1021 -0.0851
14420TIP3    H164675   3.584   2.172  14.109  0.1034  0.7117 -0.8844
14420TIP3    H264676   3.443   2.189  14.056 -0.3806 -0.4489  0.0028
14421TIP3   OH264677   5.281   1.462  12.590  0.6619  0.1088  0.2460
14421TIP3    H164678   5.235   1.389  12.632 -0.8129  1.3883  0.9325
14421TIP3    H264679   5.214   1.504  12.536  1.9614 -0.1142 -1.5955
14422TIP3   OH264680   2.878   2.713   1.416  0.2920  0.0789 -0.2190
14422TIP3    H164681   2.860   2.767   1.339  0.7711  1.7824  0.8351
14422TIP3    H264682   2.875   2.623   1.384 -1.7677  0.6706 -1.7587
14423TIP3   OH264683   1.363   5.725  15.025 -1.0797 -0.4845  0.4199
14423TIP3    H164684   1.410   5.797  14.983 -0.9767 -1.0821 -0.5111
14423TIP3    H264685   1.306   5.767  15.089 -1.2396  0.4427 -0.3350
14424TIP3   OH264686   2.520   4.385   5.905 -0.0804  0.6254  0.6156
14424TIP3    H164687   2.516   4.291   5.887 -0.0373  0.7043  0.1931
14424TIP3    H264688   2.526   4.391   6.001 -0.1983  0.2025  0.6487
14425TIP3   OH264689   4.168   4.246  12.574  0.0085 -0.4547  0.0815
14425TIP3    H164690   4.124   4.322  12.536  2.5357 -0.1335 -2.2973
14425TIP3    H264691   4.162   4.261  12.669 -1.1460  1.7647 -0.3023
14426TIP3   OH264692   1.663   0.728  13.138  0.0871 -0.2471 -0.2917
14426TIP3    H164693   1.719   0.661  13.177  0.7139  0.8314  0.6839
14426TIP3    H264694   1.722   0.779  13.083  0.3074  1.5361  1.5474
14427TIP3   OH264695   6.238   5.381  11.287 -0.2499 -0.2489 -0.2662
14427TIP3    H164696   6.263   5.428  11.208  0.7517 -1.9121 -0.9596
14427TIP3    H264697   6.210   5.295  11.256 -0.5538 -0.6601  1.1188
14428TIP3   OH264698   5.049   0.122  16.848 -0.0252 -0.0580  0.1878
14428TIP3    H164699   5.020   0.166  16.768  1.7289  1.3516  0.2935
14428TIP3    H264700   5.093   0.043  16.816 -0.0526  0.0802 -0.1995
14429TIP3   OH264701   1.124   2.224   3.723  0.4355  0.3597 -0.1199
14429TIP3    H164702   1.086   2.139   3.701  0.5337  0.6933 -1.6092
14429TIP3    H264703   1.217   2.216   3.704  0.7369  0.2821  1.3266
14430TIP3   OH264704   5.118   2.427  14.616  0.4372 -0.0865 -0.3838
14430TIP3    H164705   5.039   2.414  14.563 -0.9082  1.1745  1.2603
14430TIP3    H264706   5.169   2.491  14.567 -0.1343  0.0296 -0.8364
14431TIP3   OH264707   0.228   1.214   2.198  0.1277 -0.0014  0.0879
14431TIP3    H164708   0.235   1.235   2.291 -0.6884 -0.1446  0.1847
14431TIP3    H264709   0.234   1.118   2.194 -0.3046 -0.0309  0.0449
14432TIP3   OH264710   3.781   4.029  12.913 -0.5427 -0.3792  0.1914
14432TIP3    H164711   3.789   4.114  12.957 -1.5224 -1.2433  2.1078
14432TIP3    H264712   3.871   4.005  12.891 -0.2569  1.1421 -0.3523
14433TIP3   OH264713   1.891   5.452  11.716 -0.0697  0.1166 -0.2498
14433TIP3    H164714   1.800   5.422  11.711  0.0109 -0.2756  0.5269
14433TIP3    H264715   1.922   5.421  11.802  0.8684  0.0330 -0.6123
14434TIP3   OH264716   2.673   5.641   5.825  0.6614 -0.1245  0.3145
14434TIP3    H164717   2.651   5.703   5.756  0.8812  0.0045  0.3603
14434TIP3    H264718   2.613   5.663   5.897 -0.0193 -0.6863 -0.0723
14435TIP3   OH264719   6.341   1.515   0.525 -0.0624 -1.1547  0.1695
14435TIP3    H164720   6.322   1.603   0.494 -0.2023 -0.8573  1.0834
14435TIP3    H264721   6.428   1.495   0.490  0.1991 -0.4436  0.4130
14436TIP3   OH264722   3.791   5.102  14.734 -0.0488 -0.3280  0.0669
14436TIP3    H164723   3.791   5.042  14.659  0.0481  0.6677 -0.7489
14436TIP3    H264724   3.700   5.129  14.744 -0.0855 -0.5712  0.4051
14437TIP3   OH264725   1.528   3.610   5.034  0.4395 -0.0917 -0.1084
14437TIP3    H164726   1.606   3.555   5.022  1.3870  1.1117  0.3601
14437TIP3    H264727   1.560   3.699   5.020 -1.0240  0.3532 -0.6313
14438TIP3   OH264728   0.817   6.312   2.425 -0.5169  0.2812  0.2159
14438TIP3    H164729   0.904   6.328   2.388 -0.6629  0.9281  0.1352
14438TIP3    H264730   0.767   6.271   2.354 -1.1041  2.4503 -0.6716
14439TIP3   OH264731   4.622   3.987  10.584 -0.4795 -0.6819  0.7002
14439TIP3    H164732   4.640   4.038  10.506 -1.0580  0.3555  1.2293
14439TIP3    H264733   4.690   3.920  10.586  0.4234  0.2162  0.1149
14440TIP3   OH264734   5.151   6.093   1.203  0.7331 -0.2013 -0.4737
14440TIP3    H164735   5.161   6.002   1.230 -0.8344 -0.6912 -1.4340
14440TIP3    H264736   5.154   6.090   1.107 -1.1450  0.4896 -0.5751
14441TIP3   OH264737   4.696   2.547  16.834 -0.0962  0.2140  0.0915
14441TIP3    H164738   4.733   2.618  16.887 -0.1176  0.3678 -0.0992
14441TIP3    H264739   4.704   2.578  16.744 -2.5169  1.1521  0.1430
14442TIP3   OH264740   5.670   1.933  12.143 -0.2190 -0.3230 -0.0519
14442TIP3    H164741   5.663   1.875  12.218  1.2169 -0.4767 -0.0161
14442TIP3    H264742   5.757   1.916  12.107 -0.0264  1.3154 -0.4300
14443TIP3   OH264743   6.552   6.631  16.559 -0.6117  0.7408 -0.1824
14443TIP3    H164744   6.470   6.671  16.531 -0.6582  0.0790 -1.0318
14443TIP3    H264745   6.620   6.684  16.518 -0.6449  0.5926 -0.4280
14444TIP3   OH264746   1.633   3.020   1.412 -1.0479  0.4665  0.5657
14444TIP3    H164747   1.685   3.009   1.492 -0.2654  0.3718  0.0407
14444TIP3    H264748   1.569   3.087   1.435  0.0503  1.4315  0.8563
14445TIP3   OH264749   5.433   0.914  16.651 -0.4926  0.1517  0.3232
14445TIP3    H164750   5.484   0.943  16.575  0.6020  0.1692  1.0440
14445TIP3    H264751   5.415   0.822  16.634  0.1387  0.0378  0.2337
14446TIP3   OH264752   6.279   2.356  16.855  0.0602  0.0330 -0.1743
14446TIP3    H164753   6.260   2.321  16.942 -0.8611  0.9076 -0.0119
14446TIP3    H264754   6.334   2.432  16.871  0.6469 -0.3352 -0.4203
14447TIP3   OH264755   5.071   4.198  17.096 -0.5219  0.4927 -0.5538
14447TIP3    H164756   5.008   4.127  17.087 -2.4802  2.2153 -0.9232
14447TIP3    H264757   5.121   4.177  17.174 -1.2852 -1.1208 -0.4854
14448TIP3   OH264758   5.410   1.513   2.228  0.5494 -0.5406  0.1419
14448TIP3    H164759   5.478   1.576   2.204 -1.0131  0.7030 -1.1303
14448TIP3    H264760   5.352   1.510   2.153 -1.9567 -0.0196  1.9915
14449TIP3   OH264761   6.063   0.149  11.596 -0.1532  0.3954 -0.6031
14449TIP3    H164762   6.001   0.221  11.588  0.1480  0.3651 -3.6262
14449TIP3    H264763   6.146   0.192  11.619 -0.5166  0.7398  0.1076
14450TIP3   OH264764   6.170   6.537   6.437 -0.1558 -0.4935  1.2419
14450TIP3    H164765   6.171   6.633   6.435 -1.2246 -0.4156  2.9479
14450TIP3    H264766   6.242   6.514   6.496 -0.4501 -0.7044  1.5189
14451TIP3   OH264767   6.563   6.094   5.188  0.3041  0.3572 -0.0641
14451TIP3    H164768   6.654   6.121   5.173  0.6945  0.1388  1.7921
14451TIP3    H264769   6.568   6.000   5.207 -0.3135  0.3519  0.0979
14452TIP3   OH264770   3.436   3.006  17.141 -0.2973  0.2640 -0.1817
14452TIP3    H164771   3.397   2.964  17.064  0.3051  0.4442 -0.5894
14452TIP3    H264772   3.405   3.096  17.137 -0.1200  0.3174 -0.3046
14453TIP3   OH264773   6.481   0.309  15.679  0.2090 -0.5155 -0.1391
14453TIP3    H164774   6.487   0.378  15.614  0.2765  0.1427  0.5650
14453TIP3    H264775   6.420   0.342  15.745  0.8739 -0.7786  0.6202
14454TIP3   OH264776   5.181   0.038   4.382 -0.2307  0.4868  0.4026
14454TIP3    H164777   5.252  -0.024   4.403  0.8132  0.8170 -2.0211
14454TIP3    H264778   5.219   0.096   4.316 -3.4304 -0.6701 -2.5778
14455TIP3   OH264779   0.595   5.162   5.913 -0.3032  0.2139  0.1181
14455TIP3    H164780   0.684   5.154   5.879 -0.2338 -1.4571  0.6648
14455TIP3    H264781   0.605   5.206   5.997  0.0982 -0.7531  0.5783
14456TIP3   OH264782   6.243   3.108  13.781 -0.2923  0.7131  0.1304
14456TIP3    H164783   6.302   3.132  13.853 -0.6229  1.2468  0.2236
14456TIP3    H264784   6.287   3.141  13.702 -0.4466  1.0868  0.1974
14457TIP3   OH264785   4.818   5.751  13.906  0.4246  0.2861 -0.2891
14457TIP3    H164786   4.908   5.754  13.938  0.0757  0.7875  0.6516
14457TIP3    H264787   4.774   5.823  13.950 -0.6258 -0.4036 -0.1847
14458TIP3   OH264788   1.858   3.143   4.153  0.0805  0.4249 -0.3351
14458TIP3    H164789   1.810   3.062   4.137 -1.3375  1.0634  0.5565
14458TIP3    H264790   1.882   3.138   4.246 -2.7750  2.4073  0.5973
14459TIP3   OH264791   4.608   0.388   3.261 -0.4737 -0.6500  0.2978
14459TIP3    H164792   4.642   0.470   3.225 -1.9072  0.0357  0.4921
14459TIP3    H264793   4.675   0.323   3.239 -0.2466  0.1872 -1.6068
14460TIP3   OH264794   3.545   1.639   5.316 -0.4506 -0.1038 -0.1700
14460TIP3    H164795   3.590   1.616   5.234 -0.4624 -0.6487 -0.0206
14460TIP3    H264796   3.589   1.719   5.345  0.2140 -0.4535 -0.1947
14461TIP3   OH264797   0.497   4.588  13.736  0.4895  0.6007 -0.0461
14461TIP3    H164798   0.402   4.600  13.735  0.6020  1.5510 -0.0900
14461TIP3    H264799   0.531   4.674  13.762  1.3489  0.3400 -0.3043
14462TIP3   OH264800   2.443   3.953  11.345 -0.1107 -0.0860  0.0192
14462TIP3    H164801   2.504   3.901  11.293  1.1467  1.7053 -0.3485
14462TIP3    H264802   2.439   3.907  11.429  1.1972 -0.6300 -0.1962
14463TIP3   OH264803   4.674   1.166   4.891  0.1380 -0.3975  0.5429
14463TIP3    H164804   4.608   1.167   4.822  0.8832 -0.3631 -0.1794
14463TIP3    H264805   4.652   1.090   4.944 -0.8479 -0.0264  0.6737
14464TIP3   OH264806   5.544   3.657  13.514 -0.5443 -0.7156  0.0518
14464TIP3    H164807   5.620   3.685  13.564 -1.1106  0.8525  0.0587
14464TIP3    H264808   5.526   3.568  13.546  1.0469 -0.9697  0.2919
14465TIP3   OH264809   0.335   3.935   1.863 -0.3654 -0.0370  0.7416
14465TIP3    H164810   0.336   3.907   1.771  1.2735  0.9593  0.4373
14465TIP3    H264811   0.309   3.856   1.911  1.0927 -1.2599 -0.3851
14466TIP3   OH264812   2.430   2.498   1.285 -0.5241  0.0995  0.4022
14466TIP3    H164813   2.390   2.584   1.272  2.2373  1.7795  2.3825
14466TIP3    H264814   2.393   2.466   1.367  0.3539  0.5906  1.0024
14467TIP3   OH264815   4.131   4.086  11.505 -0.6924 -0.6170 -0.0709
14467TIP3    H164816   4.097   4.106  11.592 -1.0977 -0.7635 -0.1929
14467TIP3    H264817   4.224   4.106  11.510 -0.7823 -0.2781  0.2928
14468TIP3   OH264818   6.389   4.176   5.181 -0.3925  0.1512 -0.8202
14468TIP3    H164819   6.436   4.113   5.235 -1.8034 -1.4771 -1.4349
14468TIP3    H264820   6.422   4.261   5.209 -0.4388 -0.6921  2.0073
14469TIP3   OH264821   1.168   4.365  16.637  0.0734 -0.5858 -0.3491
14469TIP3    H164822   1.209   4.364  16.723  1.6616  0.5583 -1.0642
14469TIP3    H264823   1.211   4.295  16.588 -0.0175 -0.4895 -0.5723
14470TIP3   OH264824   0.419   4.003   3.701 -0.0427 -0.0086  0.5274
14470TIP3    H164825   0.380   3.986   3.615 -1.1315 -0.3720  1.0841
14470TIP3    H264826   0.414   4.098   3.711 -1.7212 -0.1391  1.0216
14471TIP3   OH264827   3.104   3.104  12.109 -0.2966  0.1081  0.8263
14471TIP3    H164828   3.121   3.040  12.040  1.1321  1.7637 -0.4018
14471TIP3    H264829   3.174   3.090  12.172  1.0395  1.5520 -0.2849
14472TIP3   OH264830   0.764   3.752   3.197 -0.1072  0.3570  0.2271
14472TIP3    H164831   0.791   3.809   3.269 -1.6109  2.2903 -0.6808
14472TIP3    H264832   0.832   3.764   3.130 -0.6817  1.5169 -0.1638
14473TIP3   OH264833   0.310   4.357   1.507  0.5193 -0.4803  0.1072
14473TIP3    H164834   0.284   4.442   1.542  2.2504 -1.0072  2.8015
14473TIP3    H264835   0.368   4.377   1.434  1.0925  0.6445  0.8646
14474TIP3   OH264836   0.404   6.369   1.571 -0.0306  0.2713 -0.2862
14474TIP3    H164837   0.312   6.389   1.552  0.8916  0.6315 -4.9723
14474TIP3    H264838   0.409   6.274   1.568 -0.5262  0.1718  1.5974
14475TIP3   OH264839   6.463   3.516  11.360 -0.1429  0.0639  0.1686
14475TIP3    H164840   6.456   3.436  11.413  1.8087  0.6803  1.3964
14475TIP3    H264841   6.401   3.501  11.288 -2.5726 -0.9653  2.3467
14476TIP3   OH264842   1.047   5.807  12.788 -0.1346 -0.0045 -0.1876
14476TIP3    H164843   0.996   5.803  12.706 -2.0648  3.7097  0.7008
14476TIP3    H264844   1.136   5.785  12.761 -0.9093  0.1300 -3.1234
14477TIP3   OH264845   6.655   3.202   3.083 -0.2445 -0.1765  1.1318
14477TIP3    H164846   6.683   3.248   3.161 -1.1722  0.3787  1.1464
14477TIP3    H264847   6.697   3.248   3.011 -0.1504 -0.0933  1.2406
14478TIP3   OH264848   4.338   2.806  15.281 -0.7041  0.0643  0.4050
14478TIP3    H164849   4.375   2.768  15.201  0.5547  2.0181  0.0225
14478TIP3    H264850   4.362   2.746  15.350 -0.0068 -0.5961 -0.4026
14479TIP3   OH264851   1.932   5.021   0.534  0.5712  0.2528 -0.5255
14479TIP3    H164852   1.864   5.020   0.601 -0.7759 -1.4556 -1.8960
14479TIP3    H264853   1.898   5.079   0.466  1.8666  1.8572  0.1613
14480TIP3   OH264854   2.395   5.796  14.127  0.6194  1.0319  0.5284
14480TIP3    H164855   2.344   5.876  14.138  0.2200  0.8315  0.1471
14480TIP3    H264856   2.344   5.728  14.172 -1.0751  0.1824 -2.4876
14481TIP3   OH264857   0.413   3.037  13.503  0.8552  0.1587  0.3868
14481TIP3    H164858   0.432   3.030  13.410  0.0279 -1.5336  0.3345
14481TIP3    H264859   0.477   3.101  13.536  2.2683 -0.5224 -1.0054
14482TIP3   OH264860   2.558   1.599   0.112 -0.2913 -0.0527 -0.2357
14482TIP3    H164861   2.538   1.544   0.188  2.4674  0.0106  0.5923
14482TIP3    H264862   2.535   1.545   0.037  0.5317 -1.6043  0.5926
14483TIP3   OH264863   3.613   5.260  14.050  0.2615  0.3912 -0.6586
14483TIP3    H164864   3.613   5.269  14.146 -0.8708 -0.4821 -0.5671
14483TIP3    H264865   3.624   5.349  14.018 -1.9713  1.0301  0.2838
14484TIP3   OH264866   0.986   1.019   0.916 -0.1471 -0.0473 -0.5665
14484TIP3    H164867   1.057   1.050   0.972  1.2495 -0.3477 -2.1313
14484TIP3    H264868   0.947   0.947   0.965 -0.1974  0.9306  0.8635
14485TIP3   OH264869   6.186   2.573   6.609 -0.5467  0.1132  0.7502
14485TIP3    H164870   6.121   2.581   6.539  0.4034  0.3247 -0.1164
14485TIP3    H264871   6.208   2.663   6.632 -0.5515  0.0419  1.0306
14486TIP3   OH264872   3.823   2.236   0.195  0.8248 -0.3898  0.1467
14486TIP3    H164873   3.837   2.210   0.286 -1.0788 -0.6818  0.3777
14486TIP3    H264874   3.869   2.170   0.143 -0.2035 -1.6619  0.8398
14487TIP3   OH264875   1.758   3.980  12.758 -0.3334 -0.1759  0.4012
14487TIP3    H164876   1.824   3.975  12.689 -1.3077 -0.6973 -0.5272
14487TIP3    H264877   1.677   3.952  12.715 -1.0602 -0.0231  1.6381
14488TIP3   OH264878   0.350   5.835   2.597  0.4250  0.2171  0.4650
14488TIP3    H164879   0.311   5.903   2.541  0.8566  0.4811  0.4845
14488TIP3    H264880   0.383   5.883   2.673  2.3883  0.2417 -0.3708
14489TIP3   OH264881   0.873   1.377   2.823 -0.0072 -0.2466 -0.1048
14489TIP3    H164882   0.864   1.447   2.759  1.5365 -1.9613 -2.3063
14489TIP3    H264883   0.796   1.321   2.809  0.4215 -0.7182 -0.6391
14490TIP3   OH264884   4.705   5.759  14.454 -0.9910 -0.4199 -0.1011
14490TIP3    H164885   4.636   5.699  14.481 -0.1321 -1.0278  0.7909
14490TIP3    H264886   4.785   5.720  14.489 -0.2933  0.6761 -0.4636
14491TIP3   OH264887   5.524   2.394   3.249  0.8410 -0.6557 -0.3430
14491TIP3    H164888   5.447   2.351   3.286 -0.0084 -0.9210 -2.3411
14491TIP3    H264889   5.558   2.332   3.185  1.7465  0.1522 -0.6638
14492TIP3   OH264890   1.731   5.189  15.897  0.5685  0.1766  0.0207
14492TIP3    H164891   1.682   5.107  15.901  1.6772 -0.4607  0.7656
14492TIP3    H264892   1.817   5.164  15.864  0.5886  1.2026 -0.7299
14493TIP3   OH264893   6.283   4.843   1.116 -0.0112  0.2061 -0.4925
14493TIP3    H164894   6.269   4.766   1.061 -0.4718 -0.8274  1.0229
14493TIP3    H264895   6.350   4.815   1.179 -0.2136  1.0227  0.1008
14494TIP3   OH264896   5.439   2.549  12.243 -0.6209 -0.0777 -0.3296
14494TIP3    H164897   5.506   2.523  12.180 -0.1762 -1.0866  0.5459
14494TIP3    H264898   5.359   2.505  12.212 -0.6192  0.1693 -0.6980
14495TIP3   OH264899   4.101   2.381   5.576 -0.3536  0.4731  0.3876
14495TIP3    H164900   4.190   2.378   5.540 -0.3372  0.8311  0.3966
14495TIP3    H264901   4.045   2.391   5.499 -0.2835  1.7684  0.5001
14496TIP3   OH264902   6.490   3.777  11.447  0.2028  0.0514  0.3263
14496TIP3    H164903   6.489   3.691  11.405 -0.6922 -0.0028  0.4424
14496TIP3    H264904   6.409   3.819  11.417 -0.0088  0.3515  1.3021
14497TIP3   OH264905   5.148   3.941   0.141 -0.1146 -0.6113 -0.0253
14497TIP3    H164906   5.181   3.898   0.062  0.2819 -0.7314  0.2079
14497TIP3    H264907   5.180   4.030   0.136 -0.6319 -0.4408 -0.3252
14498TIP3   OH264908   6.079   3.757  16.601  0.0436 -0.0435  0.7068
14498TIP3    H164909   6.119   3.679  16.640  0.0436 -0.9034 -0.9726
14498TIP3    H264910   6.064   3.733  16.510 -2.6318  0.9146  0.8613
14499TIP3   OH264911   3.670   1.234  16.168  0.4566 -0.0318 -0.0531
14499TIP3    H164912   3.631   1.146  16.166 -2.1280  1.0533  0.9700
14499TIP3    H264913   3.601   1.292  16.136  1.7397  1.7755  0.3846
14500TIP3   OH264914   5.407   1.939  12.982  0.0647  0.0812  0.4013
14500TIP3    H164915   5.328   1.990  12.961 -1.0346 -0.7317  2.4273
14500TIP3    H264916   5.375   1.849  12.989  1.2125 -0.2689  1.1179
14501TIP3   OH264917   5.486   2.313  13.047  0.3901  0.7201 -0.3647
14501TIP3    H164918   5.577   2.330  13.070  0.2758  1.8946 -0.7364
14501TIP3    H264919   5.476   2.350  12.960 -0.2073 -0.2314 -0.7107
14502TIP3   OH264920   0.127   5.043  16.762  0.0124  0.2058 -0.0915
14502TIP3    H164921   0.203   5.100  16.777 -0.0534 -0.7077  4.4803
14502TIP3    H264922   0.164   4.955  16.758 -0.4979  0.0399 -1.3532
14503TIP3   OH264923   4.745   0.714   2.679  0.2142 -0.2931 -0.6640
14503TIP3    H164924   4.767   0.744   2.767 -1.1930  1.4245 -0.8613
14503TIP3    H264925   4.767   0.621   2.679  1.0241 -0.1222  1.2263
14504TIP3   OH264926   3.461   2.781  10.491  0.0340 -0.1370  0.0552
14504TIP3    H164927   3.542   2.759  10.537 -0.8135 -0.4552  1.4237
14504TIP3    H264928   3.461   2.877  10.489 -0.2724 -0.1020  1.3686
14505TIP3   OH264929   5.338   1.032  15.408  0.9501 -0.1828 -0.6079
14505TIP3    H164930   5.393   1.109  15.395  0.4925  0.6228  2.1069
14505TIP3    H264931   5.277   1.034  15.334  2.4602  0.7158 -1.8513
14506TIP3   OH264932   2.126   1.629   0.780 -0.0299 -0.4988 -0.2315
14506TIP3    H164933   2.105   1.548   0.733  1.2385 -1.3776  0.6570
14506TIP3    H264934   2.079   1.621   0.863 -0.8262  0.2127 -0.6128
14507TIP3   OH264935   4.515   6.480   1.865  0.2077 -0.5997  0.2146
14507TIP3    H164936   4.534   6.566   1.901 -0.7925  1.3180 -3.4870
14507TIP3    H264937   4.452   6.441   1.925 -0.0074  1.6507  1.4707
14508TIP3   OH264938   4.931   0.747  11.266 -0.4797 -1.0084  0.7281
14508TIP3    H164939   4.881   0.822  11.233  0.3083 -0.5788  0.5059
14508TIP3    H264940   4.927   0.682  11.196 -2.9845 -2.0399  1.7609
14509TIP3   OH264941   2.679   4.261   4.672  0.5923 -0.0409  0.2458
14509TIP3    H164942   2.736   4.204   4.724  3.2759  0.6545 -1.8409
14509TIP3    H264943   2.605   4.206   4.647  2.1997 -2.0730 -0.1213
14510TIP3   OH264944   2.101   3.238   2.687  0.5682  0.3268  0.2170
14510TIP3    H164945   2.179   3.202   2.644 -0.0293 -0.9391  0.1669
14510TIP3    H264946   2.107   3.204   2.777 -0.6499 -0.9440 -0.1653
14511TIP3   OH264947   5.878   6.277  15.018  0.2485  0.3212  0.1148
14511TIP3    H164948   5.858   6.323  14.937 -0.1437  0.5289  0.3288
14511TIP3    H264949   5.874   6.344  15.086 -2.9731 -0.5040  0.8003
14512TIP3   OH264950   4.408   5.258   2.574  0.2182  0.5633  0.4103
14512TIP3    H164951   4.495   5.261   2.533  0.5043  1.4153  1.0719
14512TIP3    H264952   4.379   5.168   2.561  0.2479  0.8282 -1.8077
14513TIP3   OH264953   5.493   3.418   1.292  0.2483  0.3631 -0.9472
14513TIP3    H164954   5.578   3.462   1.288  0.7015 -0.2862  0.9101
14513TIP3    H264955   5.446   3.463   1.362 -0.7613  0.4153 -1.6602
14514TIP3   OH264956   5.369   3.555   1.060 -0.1391  0.8681  0.0448
14514TIP3    H164957   5.333   3.620   1.120  0.4775  0.8414  0.4609
14514TIP3    H264958   5.392   3.481   1.117 -0.9078  0.2498 -0.4300
14515TIP3   OH264959   3.990   1.352  11.735 -0.0854 -0.2144  0.0933
14515TIP3    H164960   3.916   1.378  11.789 -1.1901  1.4723 -2.1693
14515TIP3    H264961   3.956   1.283  11.679  0.1599  0.3236 -0.7216
14516TIP3   OH264962   3.788   1.521  13.553 -0.1146 -0.2060  0.1769
14516TIP3    H164963   3.749   1.481  13.631 -1.7498  0.5326 -0.2566
14516TIP3    H264964   3.742   1.604  13.542  1.7480  0.8092 -0.2056
14517TIP3   OH264965   0.913   0.187  15.839  0.5142  0.3783 -0.0714
14517TIP3    H164966   0.955   0.196  15.753 -0.8973 -1.4068 -0.9578
14517TIP3    H264967   0.831   0.142  15.822  0.0591  0.2833  2.1923
14518TIP3   OH264968   2.422   0.246  11.726  0.2003 -0.0402  0.0446
14518TIP3    H164969   2.340   0.220  11.768  1.8688 -2.6822  1.8246
14518TIP3    H264970   2.396   0.308  11.658 -3.2018 -0.4384  0.9069
14519TIP3   OH264971   3.459   1.402  11.565 -0.6156 -0.2355 -0.3846
14519TIP3    H164972   3.407   1.411  11.485 -1.6380  0.9907  0.3870
14519TIP3    H264973   3.403   1.351  11.624 -0.5668  0.2890  0.1205
14520TIP3   OH264974   6.569   4.972   4.352  0.3134 -0.2154 -0.5897
14520TIP3    H164975   6.570   5.040   4.284 -0.3164 -1.3876 -1.7977
14520TIP3    H264976   6.659   4.968   4.385  0.5820  0.4753 -1.2390
14521TIP3   OH264977   2.154   6.692  12.062  0.2659  0.7022  0.3018
14521TIP3    H164978   2.061   6.671  12.076  1.1142 -2.6446  1.4493
14521TIP3    H264979   2.188   6.709  12.150  1.5097 -1.8397  0.3646
14522TIP3   OH264980   0.170   6.323  13.365  0.9605  0.6568 -0.2804
14522TIP3    H164981   0.201   6.267  13.436  0.9277  0.8757 -0.0918
14522TIP3    H264982   0.188   6.274  13.285 -1.8918 -0.9884  0.0260
14523TIP3   OH264983   2.734   5.518   4.791 -0.4455  0.2265 -0.1843
14523TIP3    H164984   2.776   5.432   4.790 -0.0510  0.4257 -0.6275
14523TIP3    H264985   2.700   5.529   4.702 -0.0947  0.7273 -0.2545
14524TIP3   OH264986   3.671   3.637   6.318  0.0528 -0.3494  0.5915
14524TIP3    H164987   3.674   3.732   6.307  1.1625 -0.3742  0.6567
14524TIP3    H264988   3.599   3.623   6.380 -1.9365  0.2508 -1.4969
14525TIP3   OH264989   2.989   3.463   2.904  0.4351  0.2255  0.3526
14525TIP3    H164990   2.931   3.387   2.912  1.5889 -0.8402 -1.0785
14525TIP3    H264991   2.939   3.535   2.941 -2.3972 -0.3799 -2.0749
14526TIP3   OH264992   6.063   3.015  16.559 -0.1222 -0.2096 -0.2797
14526TIP3    H164993   6.139   2.956  16.554  0.3252  0.4893 -1.9738
14526TIP3    H264994   6.091   3.093  16.511 -1.3182  0.7166  0.5225
14527TIP3   OH264995   1.392   4.407   5.219  0.1192  0.1775  0.0965
14527TIP3    H164996   1.341   4.483   5.248  0.6647  0.6780 -0.2547
14527TIP3    H264997   1.424   4.367   5.301 -1.9472 -0.9391  0.4140
14528TIP3   OH264998   6.223   6.264  16.890 -0.2430  0.0627  0.7638
14528TIP3    H164999   6.202   6.234  16.978  2.5182 -1.4628  0.9396
14528TIP3    H265000   6.256   6.353  16.901 -4.5228  1.8067  0.6662
14529TIP3   OH265001   0.832   3.271   5.193 -0.4744 -0.0371 -0.0637
14529TIP3    H165002   0.857   3.181   5.174 -1.2988 -0.2144 -0.3228
14529TIP3    H265003   0.915   3.317   5.204 -0.0540 -0.9798  0.7813
14530TIP3   OH265004   6.645   5.201   4.197  0.0632 -0.0910  0.7040
14530TIP3    H165005   6.741   5.203   4.205  0.0384  0.6439  0.8685
14530TIP3    H265006   6.614   5.255   4.270 -0.5897 -2.5846  2.3631
14531TIP3   OH265007   6.066   0.817   4.518  0.1230  0.0109  0.1216
14531TIP3    H165008   6.098   0.822   4.609  0.3733 -0.5096  0.0642
14531TIP3    H265009   5.977   0.852   4.522 -0.0922 -0.5996  0.6803
14532TIP3   OH265010   4.963   2.373   2.164 -0.0537 -0.1439 -0.2030
14532TIP3    H165011   4.978   2.450   2.218 -3.9706  1.7362 -1.6309
14532TIP3    H265012   5.023   2.383   2.090  2.6983 -0.8929  1.8262
14533TIP3   OH265013   5.968   5.154   2.957  0.6060  0.6543  0.0744
14533TIP3    H165014   6.024   5.140   2.880  0.8320  2.8457 -0.1936
14533TIP3    H265015   5.907   5.080   2.956  1.3778  0.0086 -1.5257
14534TIP3   OH265016   2.592   4.412  12.744  0.0509  0.0438 -0.2719
14534TIP3    H165017   2.586   4.478  12.813 -1.4900  1.3059 -1.5836
14534TIP3    H265018   2.677   4.429  12.704 -0.0752  0.8542 -0.2155
14535TIP3   OH265019   1.873   2.439  11.709  0.4445 -0.2401 -0.1139
14535TIP3    H165020   1.886   2.404  11.797 -0.5512  0.9964  0.5325
14535TIP3    H265021   1.940   2.507  11.701  0.3581 -0.1671 -0.2073
14536TIP3   OH265022   1.261   1.105   2.658  0.4616  0.1013  0.2124
14536TIP3    H165023   1.247   1.116   2.752  2.5261  0.7019  0.4899
14536TIP3    H265024   1.270   1.194   2.624  3.0638 -0.1870  0.0462
14537TIP3   OH265025   5.117   1.590  15.405 -0.4529  0.3346 -0.1336
14537TIP3    H165026   5.147   1.508  15.366  0.3815 -0.1896  1.5936
14537TIP3    H265027   5.192   1.623  15.454 -0.6845  2.3027 -1.0558
14538TIP3   OH265028   0.562   0.445   5.763  0.3948 -0.4437 -0.0533
14538TIP3    H165029   0.595   0.506   5.697 -1.2207 -1.5954 -1.9885
14538TIP3    H265030   0.586   0.485   5.847  3.7390  0.3380 -1.3246
14539TIP3   OH265031   0.744   3.827  15.030 -0.0852 -0.1220 -0.1218
14539TIP3    H165032   0.800   3.879  15.088 -0.3188 -0.8138  0.7284
14539TIP3    H265033   0.657   3.865  15.041  0.0118  0.2396 -0.6021
14540TIP3   OH265034   3.480   3.008  15.912  0.1829  0.1201  0.1372
14540TIP3    H165035   3.553   3.042  15.964 -0.6320  1.5594  0.3760
14540TIP3    H265036   3.405   3.064  15.937 -0.8810 -1.0273 -0.4418
14541TIP3   OH265037   2.906   4.042  11.568  0.1435  0.4945  0.2916
14541TIP3    H165038   2.904   4.029  11.663  0.7194 -0.5368  0.1658
14541TIP3    H265039   2.846   3.976  11.534  1.7221 -0.7117 -0.2177
14542TIP3   OH265040   2.149   0.179   2.710  0.0642 -0.3091 -0.0318
14542TIP3    H165041   2.097   0.153   2.634  0.7026  0.8854 -0.9012
14542TIP3    H265042   2.131   0.112   2.776 -4.4719  1.3777  0.5895
14543TIP3   OH265043   3.441   0.007   3.042 -0.2081 -0.3735  0.1453
14543TIP3    H165044   3.446  -0.061   3.109 -1.4417  1.5464  2.2481
14543TIP3    H265045   3.521   0.058   3.053 -0.4944  0.0511  0.2989
14544TIP3   OH265046   5.796   4.686   3.306  0.1797 -0.3627  0.0403
14544TIP3    H165047   5.797   4.590   3.297 -0.1452 -0.3877  0.2789
14544TIP3    H265048   5.827   4.702   3.395 -0.6226 -0.2855  0.3130
14545TIP3   OH265049   3.379   0.098  13.228  0.4868  0.2832 -0.4649
14545TIP3    H165050   3.474   0.084  13.231  0.3875 -0.1139  1.4157
14545TIP3    H265051   3.358   0.135  13.313 -1.1862 -0.4216 -0.5577
14546TIP3   OH265052   4.767   4.151  14.784  0.1577  0.4791 -0.1533
14546TIP3    H165053   4.744   4.126  14.695  1.7991  2.1673 -1.0900
14546TIP3    H265054   4.709   4.224  14.805 -1.0459 -0.6870  0.6223
14547TIP3   OH265055   2.026   5.848   5.695 -0.0820 -0.9190 -0.2317
14547TIP3    H165056   1.974   5.774   5.663 -0.3649 -0.2639 -1.3073
14547TIP3    H265057   2.080   5.874   5.620 -0.8024  0.6794 -0.2135
14548TIP3   OH265058   5.152   5.564   1.483 -0.2255 -1.0783 -0.2683
14548TIP3    H165059   5.084   5.508   1.520 -0.2216 -0.2392  1.0495
14548TIP3    H265060   5.119   5.590   1.397 -0.7724 -2.1034 -0.3674
14549TIP3   OH265061   1.345   1.260  16.810  0.0161 -0.1998 -0.2431
14549TIP3    H165062   1.358   1.354  16.800  0.1378 -0.3137 -1.2345
14549TIP3    H265063   1.270   1.240  16.753  0.1998 -0.7622 -0.2925
14550TIP3   OH265064   1.491   4.998   2.914 -0.2349 -0.1530 -0.0784
14550TIP3    H165065   1.474   4.950   2.833  0.7695  0.1074 -0.4560
14550TIP3    H265066   1.469   4.937   2.984  0.3063 -0.9012 -0.5556
14551TIP3   OH265067   3.683   0.726   0.869  0.6635 -0.3045  0.2611
14551TIP3    H165068   3.673   0.812   0.910  0.0457 -0.1065 -0.2862
14551TIP3    H265069   3.623   0.728   0.794  3.1804  0.0931 -1.8429
14552TIP3   OH265070   5.383   5.862  15.527  0.4846 -0.5622 -0.7457
14552TIP3    H165071   5.331   5.943  15.526 -0.7887 -1.3810 -1.8095
14552TIP3    H265072   5.464   5.887  15.572 -0.0867  1.1844 -0.6296
14553TIP3   OH265073   1.023   4.415  11.585 -0.3622 -0.3346  0.0975
14553TIP3    H165074   0.992   4.366  11.662 -1.4943  0.1169 -0.0579
14553TIP3    H265075   0.950   4.410  11.523 -0.3990  1.3666 -0.0028
14554TIP3   OH265076   5.063   5.492  15.891 -0.6159 -0.0798  0.0841
14554TIP3    H165077   5.127   5.562  15.877 -0.6597 -0.0110  0.2370
14554TIP3    H265078   5.003   5.526  15.957 -0.9802 -0.0323 -0.2721
14555TIP3   OH265079   6.021   1.307   0.600  0.1837  0.0077  0.2208
14555TIP3    H165080   6.075   1.341   0.671 -0.6579  1.4396  0.1911
14555TIP3    H265081   5.989   1.385   0.555  0.0574 -0.8723 -1.2385
14556TIP3   OH265082   4.834   0.946   2.567  0.4112 -0.1233 -0.6103
14556TIP3    H165083   4.808   0.868   2.617  0.2305 -0.1396 -0.7298
14556TIP3    H265084   4.923   0.927   2.538  0.0827 -0.6158 -1.3101
14557TIP3   OH265085   5.598   1.904   1.285 -0.4376  0.1969  0.4672
14557TIP3    H165086   5.680   1.946   1.260 -1.0128  1.6632  0.9741
14557TIP3    H265087   5.593   1.826   1.231  0.8563  0.5836 -0.2205
14558TIP3   OH265088   1.017   5.121  15.811 -0.5398 -0.4618  0.0025
14558TIP3    H165089   0.949   5.187  15.803  0.2684  0.4562  0.4820
14558TIP3    H265090   0.987   5.048  15.757 -1.2252  0.4877 -0.9253
14559TIP3   OH265091   6.783   5.612  12.499  0.3154  0.6265 -0.8973
14559TIP3    H165092   6.866   5.617  12.450 -1.1523  0.3605 -3.4849
14559TIP3    H265093   6.717   5.644  12.438 -2.0075 -2.3745 -0.0810
14560TIP3   OH265094   6.683   5.042  11.889 -0.5813  0.2216  0.0421
14560TIP3    H165095   6.603   5.025  11.838 -0.0695 -1.2604 -0.2879
14560TIP3    H265096   6.659   5.115  11.946 -1.9230  0.3368 -0.6359
14561TIP3   OH265097   5.262   3.126  16.037  0.1339  0.1961  0.2056
14561TIP3    H165098   5.235   3.196  16.097  0.0395  0.9077 -0.6516
14561TIP3    H265099   5.349   3.100  16.068 -0.8704 -1.0524  2.0516
14562TIP3   OH265100   5.531   4.279  13.750  0.9611 -0.0478  0.4802
14562TIP3    H165101   5.573   4.353  13.793 -0.5793  0.4186  1.2399
14562TIP3    H265102   5.438   4.290  13.769  0.6241 -1.7487 -0.0664
14563TIP3   OH265103   2.740   3.008  15.147 -0.5250  0.2089 -0.1313
14563TIP3    H165104   2.830   2.991  15.120 -0.8602  0.0963 -1.1994
14563TIP3    H265105   2.732   3.103  15.147 -0.0738  0.2530  1.0932
14564TIP3   OH265106   3.381   2.933   1.220 -0.0630  0.2788  0.4072
14564TIP3    H165107   3.322   2.948   1.146  0.4546 -0.3276 -0.1314
14564TIP3    H265108   3.344   2.986   1.291 -0.7168  0.6481 -0.2016
14565TIP3   OH265109   2.788   3.957  16.702 -0.4430  0.3313  0.4480
14565TIP3    H165110   2.770   4.038  16.749 -2.7090 -0.3872  0.8722
14565TIP3    H265111   2.703   3.913  16.696  0.3732 -1.0384 -1.6079
14566TIP3   OH265112   3.255   1.979   1.573 -0.1392  0.4470  0.5187
14566TIP3    H165113   3.349   1.963   1.578  0.3820  2.2766 -1.9680
14566TIP3    H265114   3.240   2.001   1.480 -3.1726 -0.7857  0.6746
14567TIP3   OH265115   1.771   2.653   5.222 -0.3043 -0.0622 -0.4406
14567TIP3    H165116   1.779   2.680   5.131  1.5616 -1.5776 -0.7530
14567TIP3    H265117   1.715   2.719   5.262 -0.3849  1.1210 -2.4704
14568TIP3   OH265118   4.631   0.721  12.099 -0.0313 -0.2018  0.2966
14568TIP3    H165119   4.663   0.646  12.049 -0.6980 -1.3547  1.5490
14568TIP3    H265120   4.551   0.689  12.141 -0.4805  1.3081  0.6122
14569TIP3   OH265121   4.616   2.089   3.237 -0.5491  0.0590  0.7075
14569TIP3    H165122   4.658   2.018   3.189 -1.1439 -1.2196  2.0347
14569TIP3    H265123   4.565   2.045   3.305 -1.5323  1.7265  1.0832
14570TIP3   OH265124   5.977   4.018   1.472 -0.2832 -0.1353  0.0693
14570TIP3    H165125   5.890   4.041   1.439  0.2086 -0.5971 -1.5712
14570TIP3    H265126   5.960   3.961   1.547 -1.4144  1.2562  0.9073
14571TIP3   OH265127   5.620   5.799  11.585  0.2565  0.2944 -0.4147
14571TIP3    H165128   5.645   5.730  11.524 -0.5265 -0.4927  0.1345
14571TIP3    H265129   5.667   5.778  11.666 -0.6690 -0.1135  0.0258
14572TIP3   OH265130   6.138   4.752   5.716 -0.0271 -0.0007  0.2006
14572TIP3    H165131   6.151   4.845   5.734 -0.4656  0.0753  0.1331
14572TIP3    H265132   6.074   4.724   5.782 -0.7544  0.0106 -0.4894
14573TIP3   OH265133   6.556   2.093  13.220  0.0374 -0.0017  0.2140
14573TIP3    H165134   6.493   2.026  13.245  1.7429 -0.9337  2.1566
14573TIP3    H265135   6.634   2.074  13.273  1.3353  2.1644 -0.8424
14574TIP3   OH265136   2.833   4.425   0.708 -0.4989  0.6998  0.1399
14574TIP3    H165137   2.800   4.355   0.651  0.9929 -0.9779  1.2738
14574TIP3    H265138   2.822   4.391   0.797  0.3023  1.8650  0.7010
14575TIP3   OH265139   0.133   4.030  12.052 -0.4169 -0.3405 -0.0132
14575TIP3    H165140   0.082   4.083  12.113  0.0500  2.1973 -1.7517
14575TIP3    H265141   0.091   4.043  11.967  0.0095 -2.4105 -0.5869
14576TIP3   OH265142   6.290   5.072   3.555 -1.1688  0.0328 -0.1487
14576TIP3    H165143   6.351   5.032   3.617 -0.1300 -0.0975 -1.2433
14576TIP3    H265144   6.246   4.998   3.513 -1.2892  0.0990 -0.1383
14577TIP3   OH265145   4.334   6.774   5.095 -0.4761 -0.2525  0.1026
14577TIP3    H165146   4.320   6.837   5.166  0.3559  0.3140 -0.2261
14577TIP3    H265147   4.338   6.827   5.016 -2.2031 -0.9696 -0.4697
14578TIP3   OH265148   3.406   4.925  11.131 -0.1316 -0.2139  0.5471
14578TIP3    H165149   3.483   4.870  11.145  0.9181  0.9316 -0.5466
14578TIP3    H265150   3.416   4.998  11.192 -0.0608  0.2134  0.0364
14579TIP3   OH265151   2.320   1.978   1.641  0.1169  0.4117 -0.6600
14579TIP3    H165152   2.281   1.890   1.642  0.1594  0.3963 -0.2758
14579TIP3    H265153   2.298   2.013   1.555 -1.8723  0.9086  0.0407
14580TIP3   OH265154   4.185   5.435   1.569 -0.1257 -0.1688  0.0874
14580TIP3    H165155   4.223   5.350   1.550 -0.3888 -0.5662  1.2853
14580TIP3    H265156   4.238   5.497   1.518 -1.2422 -1.2354 -2.4016
14581TIP3   OH265157   3.431   3.088  12.805  0.2056  0.4102 -0.3603
14581TIP3    H165158   3.398   3.178  12.797  0.6567  0.6635  0.5569
14581TIP3    H265159   3.373   3.046  12.868 -0.0732  0.0151 -0.8711
14582TIP3   OH265160   3.923   1.923  15.757 -0.4509  0.1050  0.2560
14582TIP3    H165161   3.889   1.836  15.777 -0.9158  0.1823 -0.1917
14582TIP3    H265162   3.980   1.944  15.831  1.1032 -1.3334 -0.4903
14583TIP3   OH265163   1.900   4.288   3.619  0.0297 -0.3203  0.6713
14583TIP3    H165164   1.966   4.232   3.579 -1.3622 -1.0089 -0.7091
14583TIP3    H265165   1.950   4.347   3.676  1.5610 -2.6978  1.8835
14584TIP3   OH265166   3.461   1.038   4.636  0.0652  0.3712 -0.3434
14584TIP3    H165167   3.494   1.009   4.551  0.9442  0.0213  0.1095
14584TIP3    H265168   3.512   0.988   4.700 -0.9660  0.2321  0.3845
14585TIP3   OH265169   2.645   4.385  11.795 -0.0157  0.5170 -0.0083
14585TIP3    H165170   2.729   4.423  11.768  1.2409 -0.3180  2.6001
14585TIP3    H265171   2.648   4.296  11.761  0.5381  0.2105  0.8384
14586TIP3   OH265172   4.084   0.209  11.923 -0.3372  0.4250 -0.1212
14586TIP3    H165173   4.059   0.129  11.969  0.4272 -0.4751 -1.2852
14586TIP3    H265174   4.160   0.185  11.870  0.3400  2.0916  0.0594
14587TIP3   OH265175   2.014   1.976  14.009  0.1771 -0.7080  0.0367
14587TIP3    H165176   2.017   2.070  14.026 -0.4472 -0.7539  0.4057
14587TIP3    H265177   2.072   1.964  13.934  1.8146 -0.3073  1.2274
14588TIP3   OH265178   0.157   4.970   2.021 -0.1717  0.1063 -0.3717
14588TIP3    H165179   0.178   5.056   1.984  2.9938 -0.0454  0.9449
14588TIP3    H265180   0.141   4.987   2.114 -3.2976 -0.2374 -0.7722
14589TIP3   OH265181   4.940   6.026  14.944 -0.5619 -0.0251  0.1004
14589TIP3    H165182   4.849   6.021  14.914 -0.3105 -0.2264 -0.6526
14589TIP3    H265183   4.986   5.962  14.889  0.1753  0.6459 -0.0709
14590TIP3   OH265184   5.878   2.127   3.430 -0.6276 -0.3843  0.5496
14590TIP3    H165185   5.915   2.040   3.445 -1.2457 -0.4855  1.5504
14590TIP3    H265186   5.814   2.115   3.360  0.6222 -0.3610 -0.6313
14591TIP3   OH265187   2.205   3.437   1.323 -0.4894  0.1769 -0.2033
14591TIP3    H165188   2.189   3.344   1.337 -1.0561  0.6406  2.4383
14591TIP3    H265189   2.294   3.452   1.356 -0.8939  0.8325  0.5903
14592TIP3   OH265190   5.114   5.483  13.947 -0.3383  0.5173  0.6604
14592TIP3    H165191   5.129   5.490  13.853 -2.2314  0.6722  0.3401
14592TIP3    H265192   5.126   5.573  13.979 -1.5265  0.8499  0.2411
14593TIP3   OH265193   6.576   0.411   4.337  0.3718  0.8023 -0.3535
14593TIP3    H165194   6.580   0.454   4.252  0.0970  0.6121 -0.4614
14593TIP3    H265195   6.519   0.467   4.390  0.8126  1.1012 -0.1905
14594TIP3   OH265196   5.260   3.678  15.689 -0.3775  0.5378  0.2754
14594TIP3    H165197   5.285   3.588  15.711 -2.0354  0.3279  1.3965
14594TIP3    H265198   5.180   3.693  15.738 -1.6253  1.7015 -2.0389
14595TIP3   OH265199   3.352   5.813  15.760  0.4056  0.4001  0.3339
14595TIP3    H165200   3.429   5.865  15.738  1.0628 -0.7245 -0.1009
14595TIP3    H265201   3.354   5.740  15.698 -0.8911  0.2332  0.4596
14596TIP3   OH265202   5.463   5.981   2.217 -0.7562  0.3669 -0.5760
14596TIP3    H165203   5.510   5.964   2.135  0.8026  1.3716  0.0741
14596TIP3    H265204   5.491   5.910   2.275  1.5432  2.0246  0.4290
14597TIP3   OH265205   6.478   1.971  14.078 -0.1556  0.1427 -0.4771
14597TIP3    H165206   6.395   2.002  14.114 -1.0253 -1.9180 -0.6030
14597TIP3    H265207   6.484   2.013  13.993 -1.1795  0.1739 -0.5446
14598TIP3   OH265208   1.992   1.166   1.496  0.2941 -0.3930  0.3876
14598TIP3    H165209   2.035   1.187   1.579  1.9532  1.5576 -0.9247
14598TIP3    H265210   2.028   1.229   1.434 -0.5132 -2.1716 -1.9443
14599TIP3   OH265211   5.334   1.738  11.024 -0.5667  0.8381  0.0780
14599TIP3    H165212   5.239   1.748  11.025 -0.5748  1.0579 -1.2371
14599TIP3    H265213   5.348   1.653  10.982 -0.2003  0.5903  0.7043
14600TIP3   OH265214   2.040   3.625  14.261  0.0971  0.0054  0.1758
14600TIP3    H165215   1.990   3.547  14.237  2.3655 -1.3431 -0.3407
14600TIP3    H265216   1.976   3.683  14.302 -1.7096 -1.9951  0.2843
14601TIP3   OH265217   5.734   5.980   3.406 -0.1949 -0.6598  0.1501
14601TIP3    H165218   5.726   5.885   3.412 -0.5663 -0.7314 -1.3449
14601TIP3    H265219   5.808   5.994   3.347  2.1570  0.0123  3.1121
14602TIP3   OH265220   4.138   3.249  17.006  0.0115 -0.4309 -0.3457
14602TIP3    H165221   4.078   3.242  17.080 -2.0962 -0.2063 -1.9839
14602TIP3    H265222   4.140   3.343  16.986  2.0843 -0.2327  0.5839
14603TIP3   OH265223   5.382   2.957   0.270  0.4767  0.7215  0.3575
14603TIP3    H165224   5.345   2.952   0.358 -0.0765  2.0681  0.2041
14603TIP3    H265225   5.319   2.911   0.215  1.4905 -1.3290  0.8494
14604TIP3   OH265226   0.553   6.784   0.695 -0.4585 -0.2092  0.7258
14604TIP3    H165227   0.615   6.849   0.726  0.8459 -1.2582  0.3802
14604TIP3    H265228   0.563   6.710   0.755 -1.7313 -0.1970  0.9640
14605TIP3   OH265229   1.419   2.386  11.421  0.7327 -0.0612  0.2941
14605TIP3    H165230   1.461   2.363  11.504 -0.1203 -0.6944  0.5594
14605TIP3    H265231   1.464   2.333  11.355  1.5144  0.5569  0.3199
14606TIP3   OH265232   5.194   5.044   3.371  0.2782 -0.8564  0.4590
14606TIP3    H165233   5.151   5.017   3.452 -3.1880  0.2841 -0.8826
14606TIP3    H265234   5.199   5.139   3.377 -0.9999 -0.6652 -1.0556
14607TIP3   OH265235   6.182   1.137   1.310  0.3630 -0.0895  0.7224
14607TIP3    H165236   6.093   1.109   1.288 -0.5004  0.1261  3.6921
14607TIP3    H265237   6.198   1.099   1.396  2.6933  0.9025  0.7624
14608TIP3   OH265238   6.486   6.367   2.569  0.1436  0.1090  0.4893
14608TIP3    H165239   6.413   6.311   2.541 -0.3240  0.5548  0.8120
14608TIP3    H265240   6.529   6.392   2.487 -1.1716  1.3384  0.1501
14609TIP3   OH265241   4.711   6.269   1.809 -0.0384  0.3307 -0.0595
14609TIP3    H165242   4.700   6.250   1.902  0.4211  1.2821  0.1994
14609TIP3    H265243   4.655   6.346   1.794 -0.7739 -0.3306 -0.7635
14610TIP3   OH265244   2.248   6.319  12.480  0.6380 -0.4785 -0.7203
14610TIP3    H165245   2.229   6.396  12.427  2.8190 -0.6781 -1.8489
14610TIP3    H265246   2.199   6.248  12.439 -2.9750  0.6111  1.4761
14611TIP3   OH265247   6.733   6.497   1.279  0.5346 -0.1867  0.5423
14611TIP3    H165248   6.710   6.531   1.365  1.1311  0.5174  0.4225
14611TIP3    H265249   6.725   6.402   1.289 -1.9557 -0.0136  0.6403
14612TIP3   OH265250   6.263   2.557   0.893  0.2627 -0.3129 -0.3699
14612TIP3    H165251   6.228   2.583   0.978  0.9066  0.2827 -0.2856
14612TIP3    H265252   6.310   2.634   0.861 -0.7371 -0.2242 -1.6820
14613TIP3   OH265253   1.427   4.387   3.387 -0.2271  0.0340 -0.0478
14613TIP3    H165254   1.497   4.424   3.441  1.0155 -3.7182  1.1427
14613TIP3    H265255   1.470   4.365   3.305 -0.6432  0.1573 -0.2976
14614TIP3   OH265256   5.130   5.577  14.908  0.0102  0.2182 -0.1775
14614TIP3    H165257   5.201   5.568  14.972  0.0115 -0.6750 -0.2990
14614TIP3    H265258   5.053   5.541  14.953  0.0119 -0.4204 -0.6720
14615TIP3   OH265259   6.370   5.562  11.090  0.0951  0.2450  0.3377
14615TIP3    H165260   6.333   5.642  11.128 -1.1097 -0.2213  0.1658
14615TIP3    H265261   6.351   5.568  10.997 -2.7478 -1.6567  0.7269
14616TIP3   OH265262   2.103   4.980  14.708 -0.3260 -0.5188 -0.3665
14616TIP3    H165263   2.101   4.890  14.678  2.7287  0.2716 -3.3220
14616TIP3    H265264   2.188   5.014  14.677 -0.8466  2.9799  1.7172
14617TIP3   OH265265   1.283   1.468   0.380 -0.0809  0.6915  0.2019
14617TIP3    H165266   1.228   1.493   0.455 -0.4485  0.4075  0.0278
14617TIP3    H265267   1.289   1.373   0.386 -1.1773  0.5440 -0.8637
14618TIP3   OH265268   5.213   2.648  14.459  0.1817  0.0462 -0.5488
14618TIP3    H165269   5.181   2.632  14.370 -0.5338 -0.2661 -0.2407
14618TIP3    H265270   5.223   2.743  14.464  2.6572 -0.1076 -1.7790
14619TIP3   OH265271   5.292   2.331  12.355 -0.5290 -0.5890 -0.4208
14619TIP3    H165272   5.361   2.265  12.365 -0.4499 -0.2857  1.0800
14619TIP3    H265273   5.211   2.280  12.348 -0.3162 -0.8916 -0.7017
14620TIP3   OH265274   6.501   0.508   3.340  0.1738 -0.2541  0.3771
14620TIP3    H165275   6.467   0.435   3.289  0.6854  0.5042 -1.0704
14620TIP3    H265276   6.531   0.572   3.275 -0.7185  1.4767  1.6171
14621TIP3   OH265277   4.875   3.178  14.709  1.0741 -0.0873  0.1230
14621TIP3    H165278   4.918   3.158  14.626  0.5013  0.0767 -0.2188
14621TIP3    H265279   4.936   3.148  14.776  1.9319  0.6069 -0.3506
14622TIP3   OH265280   0.317   2.708   1.223 -0.0657 -0.0162 -0.1852
14622TIP3    H165281   0.239   2.760   1.243  0.9979  0.7635  2.1626
14622TIP3    H265282   0.385   2.745   1.279  1.5822 -1.7657 -0.9778
14623TIP3   OH265283   5.905   1.138   1.200  0.1087  0.1691 -0.4223
14623TIP3    H165284   5.910   1.206   1.266 -0.5087  0.5767 -0.7874
14623TIP3    H265285   5.844   1.074   1.237 -1.6736  1.2830 -1.3710
14624TIP3   OH265286   1.663   5.876   4.761 -0.5327  0.0981 -0.7633
14624TIP3    H165287   1.746   5.880   4.807 -0.5628  0.4380 -0.7332
14624TIP3    H265288   1.617   5.801   4.799 -0.3490  0.0715 -0.5969
14625TIP3   OH265289   2.580   5.235   5.540  0.2731  0.4662  0.0690
14625TIP3    H165290   2.536   5.319   5.526  0.5778  0.5364 -0.4535
14625TIP3    H265291   2.546   5.178   5.471  2.8416  1.2300 -1.8916
14626TIP3   OH265292   1.047   6.354  15.320 -0.6501 -0.0836 -0.7066
14626TIP3    H165293   1.038   6.301  15.241  1.6395 -0.0018 -1.0598
14626TIP3    H265294   1.023   6.294  15.391 -2.5238 -0.2190 -1.4181
14627TIP3   OH265295   0.621   0.661  16.646  0.2450  0.1837  0.0999
14627TIP3    H165296   0.604   0.570  16.620  0.4760  0.0132  0.5536
14627TIP3    H265297   0.574   0.713  16.581 -0.1283 -0.2622  0.0093
14628TIP3   OH265298   1.188   6.147  11.504  0.5546 -0.2319 -0.4564
14628TIP3    H165299   1.268   6.171  11.457  1.0103 -1.7271 -0.4864
14628TIP3    H265300   1.217   6.087  11.572 -0.4159  0.0600  0.2347
14629TIP3   OH265301   3.857   1.921  14.811  0.2724  0.3539 -0.6592
14629TIP3    H165302   3.766   1.891  14.808 -0.2222  1.7795 -0.3327
14629TIP3    H265303   3.866   1.978  14.735  0.3195  1.7505  0.3708
14630TIP3   OH265304   4.524   3.800   3.639 -0.6626  0.4151  0.0703
14630TIP3    H165305   4.587   3.810   3.568  0.2886  3.0257  1.2427
14630TIP3    H265306   4.459   3.870   3.624 -1.5861 -0.3047  0.6236
14631TIP3   OH265307   1.673   1.573  15.362  0.1814 -0.1556  0.7988
14631TIP3    H165308   1.727   1.544  15.288 -0.0477  1.3065  0.0407
14631TIP3    H265309   1.719   1.649  15.397 -1.6439  1.4531 -0.2033
14632TIP3   OH265310   2.891   6.468  11.468 -0.5007  0.0054  0.4651
14632TIP3    H165311   2.820   6.408  11.492 -0.5424 -0.6347 -1.1540
14632TIP3    H265312   2.852   6.528  11.405  0.2979 -0.1500 -0.1976
14633TIP3   OH265313   0.053   1.056  12.330  0.1318 -0.2536 -0.1765
14633TIP3    H165314   0.118   1.120  12.358 -0.6305  0.4950 -0.0786
14633TIP3    H265315  -0.027   1.082  12.375  0.3380 -2.6127  1.6230
14634TIP3   OH265316   5.448   5.600  15.626 -0.4285 -0.3060 -0.3682
14634TIP3    H165317   5.525   5.548  15.648 -0.3805 -0.4018 -0.7526
14634TIP3    H265318   5.484   5.679  15.586 -0.5719 -1.1819 -2.2959
14635TIP3   OH265319   2.388   3.561   5.530 -0.1976  0.0800 -0.0907
14635TIP3    H165320   2.451   3.498   5.495 -0.5742 -0.5090  0.2766
14635TIP3    H265321   2.407   3.562   5.624 -2.6188 -2.2716  0.4822
14636TIP3   OH265322   1.762   0.307   5.798 -0.1028  0.7042 -0.0220
14636TIP3    H165323   1.743   0.261   5.880 -1.5792 -0.1484 -0.8410
14636TIP3    H265324   1.854   0.285   5.780 -0.8142 -2.0388 -0.4582
14637TIP3   OH265325   0.352   4.468  12.814  0.2075  0.4580  0.1692
14637TIP3    H165326   0.367   4.397  12.751  2.2407 -0.2606  1.4280
14637TIP3    H265327   0.257   4.466  12.829  0.1134 -1.4568 -0.4632
14638TIP3   OH265328   2.734   1.151   0.702  0.3642  0.1187 -0.0993
14638TIP3    H165329   2.641   1.136   0.720  0.2309  1.3619  0.3193
14638TIP3    H265330   2.777   1.071   0.732 -0.6707 -0.9111 -1.2681
14639TIP3   OH265331   0.332   0.816  16.743  0.2687 -0.5806 -0.5359
14639TIP3    H165332   0.385   0.787  16.818 -1.9045 -0.6711  1.0122
14639TIP3    H265333   0.324   0.911  16.755  0.6697 -0.4586 -1.1850
14640TIP3   OH265334   3.502   0.023  13.923  0.2715  0.6889 -0.6678
14640TIP3    H165335   3.573  -0.040  13.911  0.6447  1.0581 -0.4226
14640TIP3    H265336   3.431  -0.009  13.867  0.9097  0.7342 -1.5222
14641TIP3   OH265337   2.707   6.064   1.083  0.0568 -0.2840  0.5624
14641TIP3    H165338   2.763   6.103   1.016 -2.4488  1.4671 -0.6152
14641TIP3    H265339   2.620   6.062   1.043 -1.1619 -0.8618  3.1325
14642TIP3   OH265340   3.265   3.349  11.713  0.0582 -0.3554  0.6164
14642TIP3    H165341   3.221   3.316  11.792  0.4362 -0.7913  0.6475
14642TIP3    H265342   3.201   3.335  11.643  1.0912 -3.4718  0.1827
14643TIP3   OH265343   0.171   5.121  11.423  0.3488 -0.9058  0.2101
14643TIP3    H165344   0.182   5.195  11.363 -2.1347  0.0023  0.8496
14643TIP3    H265345   0.185   5.157  11.510  0.0589 -1.3823  0.4584
14644TIP3   OH265346   3.034   5.116   2.460  0.6123 -0.0593  0.7888
14644TIP3    H165347   3.116   5.104   2.506  1.1423 -0.3054 -0.1933
14644TIP3    H265348   2.974   5.151   2.525  1.6439  0.6400  1.3774
14645TIP3   OH265349   2.140   2.922   5.991 -0.1230  0.4139  0.3033
14645TIP3    H165350   2.075   2.865   6.033  0.9603  1.3594  3.3847
14645TIP3    H265351   2.175   2.975   6.062  3.7134  0.2919 -1.3576
14646TIP3   OH265352   2.122   2.736   4.264 -0.1482  0.0591  0.0297
14646TIP3    H165353   2.038   2.698   4.239 -1.2417  1.3123  1.6903
14646TIP3    H265354   2.134   2.710   4.355 -0.3422  2.6111  0.8283
14647TIP3   OH265355   1.846   2.759  16.644  0.0045  0.1300 -0.2179
14647TIP3    H165356   1.839   2.685  16.704 -1.6181  0.6381  0.2535
14647TIP3    H265357   1.884   2.721  16.564 -0.4107 -1.1330  0.1600
14648TIP3   OH265358   1.221   0.792  12.950 -0.0579  0.3372  0.4742
14648TIP3    H165359   1.310   0.814  12.976  0.7040  0.6798 -2.2846
14648TIP3    H265360   1.183   0.751  13.027  3.2968 -2.1556  0.8828
14649TIP3   OH265361   1.209   2.809  11.608 -0.1255 -0.2811  0.0219
14649TIP3    H165362   1.132   2.820  11.551 -0.1405 -0.0030  0.0963
14649TIP3    H265363   1.283   2.834  11.553  0.0057 -1.3810 -0.3337
14650TIP3   OH265364   1.375   4.026   3.845 -0.5667  0.3493  0.5060
14650TIP3    H165365   1.360   3.970   3.769  1.7808 -0.5730  0.6734
14650TIP3    H265366   1.356   3.969   3.920  0.9879  0.0025  0.6586
14651TIP3   OH265367   4.553   1.543  16.324 -0.7524 -0.1312 -0.3790
14651TIP3    H165368   4.592   1.629  16.334 -2.0985  0.7888 -2.6044
14651TIP3    H265369   4.567   1.520  16.232 -1.7204 -1.6289 -0.1848
14652TIP3   OH265370   5.014   1.243   0.752  0.4842  0.2114  0.5123
14652TIP3    H165371   5.042   1.247   0.661  2.6680  1.0816  1.1855
14652TIP3    H265372   5.092   1.268   0.802 -0.4551 -0.9930  2.6492
14653TIP3   OH265373   3.445   3.620  16.731  0.2513 -0.2825 -0.6406
14653TIP3    H165374   3.423   3.599  16.641  1.0657  0.1403 -0.9341
14653TIP3    H265375   3.377   3.576  16.783 -1.0634  0.6817 -1.5255
14654TIP3   OH265376   2.298   6.514   1.493  0.4818 -0.3205  0.0726
14654TIP3    H165377   2.210   6.511   1.528  0.4913 -0.0289  0.1230
14654TIP3    H265378   2.315   6.425   1.462  0.2609 -0.4335  0.2784
14655TIP3   OH265379   5.861   5.201  14.107  0.3357 -0.5034 -0.1342
14655TIP3    H165380   5.923   5.237  14.044  1.0448  0.8816  1.3065
14655TIP3    H265381   5.908   5.203  14.190 -1.5533  0.3870  0.9641
14656TIP3   OH265382   1.011   2.357   0.062  0.0241  0.3213  0.0843
14656TIP3    H165383   1.090   2.351   0.117  1.2323 -0.6580 -1.6978
14656TIP3    H265384   1.041   2.333  -0.025 -2.6872 -2.2059 -0.2291
14657TIP3   OH265385   5.853   2.701   3.734  0.0181 -0.1414 -0.3345
14657TIP3    H165386   5.915   2.646   3.782  0.0254  1.0255  1.0099
14657TIP3    H265387   5.888   2.704   3.645 -0.6323 -3.2960 -0.7522
14658TIP3   OH265388   0.868   0.890  11.332 -0.0192  0.2854  0.1748
14658TIP3    H165389   0.917   0.971  11.328 -0.7076  0.6469 -1.4345
14658TIP3    H265390   0.897   0.840  11.256 -1.0074 -0.1534  0.0713
14659TIP3   OH265391   1.082   0.979  16.510  0.3006 -0.1187 -0.0886
14659TIP3    H165392   1.006   1.012  16.558  1.2368  1.0175  0.6721
14659TIP3    H265393   1.066   0.886  16.499 -2.0889  0.4307 -1.6254
14660TIP3   OH265394   2.076   3.475  11.600 -0.0151 -0.5022 -0.0335
14660TIP3    H165395   2.127   3.477  11.519 -2.1526  0.3432 -1.3689
14660TIP3    H265396   1.992   3.514  11.578  0.3299  2.3917  3.2881
14661TIP3   OH265397   6.008   5.843  15.083 -0.4406  0.3151 -0.5481
14661TIP3    H165398   5.959   5.924  15.070 -0.1322  0.7465  0.8613
14661TIP3    H265399   5.987   5.816  15.172 -0.9101 -1.4166 -1.1648
14662TIP3   OH265400   3.163   3.672   4.977 -0.1391 -0.5886 -0.2137
14662TIP3    H165401   3.117   3.626   5.047 -1.0869  0.4714 -0.1155
14662TIP3    H265402   3.225   3.729   5.022 -0.5571 -0.1081 -0.2419
14663TIP3   OH265403   6.026   4.150  12.499  0.2317  0.5491 -0.5720
14663TIP3    H165404   6.105   4.118  12.543 -0.6448 -0.5186  0.2351
14663TIP3    H265405   5.975   4.191  12.569 -0.1145  0.8734 -1.0173
14664TIP3   OH265406   1.291   5.394  11.195 -0.8145  0.1497  0.4382
14664TIP3    H165407   1.294   5.334  11.120  0.3723 -0.4394  0.9428
14664TIP3    H265408   1.344   5.351  11.262 -0.8451  1.2614  1.1854
14665TIP3   OH265409   3.012   0.550  13.013 -0.2729 -0.0770 -0.2974
14665TIP3    H165410   3.095   0.596  13.027 -0.1619  0.0451 -1.2879
14665TIP3    H265411   3.034   0.457  13.021 -0.3287  0.0089  0.8665
14666TIP3   OH265412   1.110   3.142   0.263  0.0934  0.3647 -0.6955
14666TIP3    H165413   1.133   3.111   0.175  0.4179 -1.6075  0.0458
14666TIP3    H265414   1.127   3.236   0.261  1.0213  0.1827 -2.4491
14667TIP3   OH265415   4.255   1.545   0.297  0.0586  0.0091  0.0364
14667TIP3    H165416   4.177   1.490   0.295 -0.4991  0.8066 -1.4561
14667TIP3    H265417   4.221   1.634   0.303  0.8042  0.4201 -1.4752
14668TIP3   OH265418   4.875   3.758  13.982 -0.7270  0.5553 -0.0980
14668TIP3    H165419   4.885   3.690  13.916 -0.6246  0.7144 -0.2456
14668TIP3    H265420   4.951   3.747  14.040 -0.8283  0.4027  0.0066
14669TIP3   OH265421   6.347   1.676  11.376  0.2858  0.4202  0.0315
14669TIP3    H165422   6.431   1.706  11.409 -0.0602  1.1523  0.2449
14669TIP3    H265423   6.337   1.720  11.291  0.0110  0.5273  0.1164
14670TIP3   OH265424   2.975   3.622   5.790  0.3573 -0.2364 -0.2806
14670TIP3    H165425   2.958   3.629   5.696  1.0917  1.6480 -0.2811
14670TIP3    H265426   3.061   3.581   5.796  1.4745  2.0523 -0.4800
14671TIP3   OH265427   5.852   4.022  16.899 -0.0467  0.2866 -0.3381
14671TIP3    H165428   5.841   3.986  16.811  2.7040 -0.2525 -0.5287
14671TIP3    H265429   5.885   4.110  16.885  3.4730 -0.8806  0.0707
14672TIP3   OH265430   1.129   4.654  16.551  0.1390  0.1501 -0.1227
14672TIP3    H165431   1.153   4.562  16.560 -1.0142 -0.1556 -0.1155
14672TIP3    H265432   1.055   4.666  16.610 -1.2138  0.4985 -1.8265
14673TIP3   OH265433   2.497   6.179  14.812 -0.7217 -0.2247 -0.1956
14673TIP3    H165434   2.409   6.193  14.776 -0.7833 -1.1648 -0.4162
14673TIP3    H265435   2.542   6.263  14.797 -0.9052 -0.4201 -2.0086
14674TIP3   OH265436   2.597   2.246   0.741  0.1937 -0.0606  0.2600
14674TIP3    H165437   2.503   2.229   0.748  0.0350  1.2397  1.6403
14674TIP3    H265438   2.603   2.341   0.729  1.3034 -0.2251 -0.4790
14675TIP3   OH265439   6.343   2.378  11.249  0.7329  0.2472 -0.0864
14675TIP3    H165440   6.437   2.393  11.258  0.8733  1.1315 -2.5206
14675TIP3    H265441   6.334   2.283  11.241  1.4964  0.2060 -0.4502
14676TIP3   OH265442   1.379   6.234   2.657  0.1737  0.4053  0.2936
14676TIP3    H165443   1.420   6.320   2.650 -0.7404  1.0329  2.2870
14676TIP3    H265444   1.431   6.178   2.599  0.3410  2.4264 -1.5853
14677TIP3   OH265445   5.548   2.687  14.767  0.0405  0.3923  0.3421
14677TIP3    H165446   5.558   2.592  14.773  0.0684  0.3895  0.2589
14677TIP3    H265447   5.636   2.721  14.785  0.2486  0.3602 -0.5794
14678TIP3   OH265448   3.543   2.338  15.145  0.0257  0.3315 -0.1524
14678TIP3    H165449   3.571   2.426  15.117  0.0511 -0.0422 -1.3264
14678TIP3    H265450   3.457   2.327  15.104  1.3733 -1.4213 -2.6288
14679TIP3   OH265451   3.801   3.287   0.751 -0.7632 -0.4573 -0.1865
14679TIP3    H165452   3.761   3.373   0.743 -0.3588 -0.3486 -1.2130
14679TIP3    H265453   3.739   3.235   0.802  0.1247  1.1380  2.6130
14680TIP3   OH265454   4.658   2.375  14.186 -0.0557 -0.4919  0.0431
14680TIP3    H165455   4.587   2.425  14.146  0.6437  1.1735  0.8624
14680TIP3    H265456   4.617   2.294  14.215 -1.4938  0.2059 -0.0143
14681TIP3   OH265457   4.303   6.596  16.417 -0.0940  0.1311 -0.3900
14681TIP3    H165458   4.306   6.574  16.324 -0.1148 -0.7428 -0.1892
14681TIP3    H265459   4.227   6.654  16.426  0.7646  1.3661 -1.1507
14682TIP3   OH265460   4.290   1.121   2.059  0.1038  0.2860  0.2732
14682TIP3    H165461   4.290   1.026   2.050  0.9069  0.2559  0.6159
14682TIP3    H265462   4.197   1.144   2.060 -0.1218 -0.6059  1.3346
14683TIP3   OH265463   2.059   1.600  12.622 -0.5183 -0.6045 -0.0973
14683TIP3    H165464   1.966   1.575  12.618 -0.6574 -0.4302  1.6836
14683TIP3    H265465   2.082   1.620  12.531 -2.4263  0.0205 -0.4749
14684TIP3   OH265466   6.005   4.469  16.462  0.4165 -0.2011 -0.3315
14684TIP3    H165467   5.977   4.378  16.474  0.6108 -0.3073 -0.6589
14684TIP3    H265468   5.926   4.514  16.431  0.0880 -0.0595  0.7189
14685TIP3   OH265469   5.803   4.280   6.453 -0.1717 -0.4563 -0.4567
14685TIP3    H165470   5.824   4.346   6.520  1.2369  0.1632 -1.4748
14685TIP3    H265471   5.719   4.243   6.481  0.3186 -0.1071  1.5659
14686TIP3   OH265472   2.205   5.632  14.242 -0.2422  0.2721 -0.1162
14686TIP3    H165473   2.222   5.538  14.244 -0.9963  0.1026 -1.5295
14686TIP3    H265474   2.121   5.640  14.197 -0.1158  1.6394 -0.1117
14687TIP3   OH265475   5.842   6.600  12.575  0.3200  0.0125  0.0278
14687TIP3    H165476   5.859   6.580  12.667 -1.7840 -1.8699  0.0704
14687TIP3    H265477   5.799   6.685  12.576  2.0747  0.9150  0.5927
14688TIP3   OH265478   1.314   4.756  15.927 -0.2283  0.4204 -0.7557
14688TIP3    H165479   1.238   4.757  15.868  0.4063  0.7377 -1.5846
14688TIP3    H265480   1.327   4.664  15.948 -0.8768  0.3681 -0.5666
14689TIP3   OH265481   4.698   2.185   1.531 -0.2005 -0.6087  0.0123
14689TIP3    H165482   4.707   2.271   1.490 -1.6934 -0.2816  0.3563
14689TIP3    H265483   4.662   2.204   1.618 -0.9476 -1.6170 -0.0719
14690TIP3   OH265484   6.184   2.451  13.642 -0.1766  0.0793 -0.2917
14690TIP3    H165485   6.186   2.478  13.550  1.8150  0.0783 -0.2650
14690TIP3    H265486   6.185   2.533  13.691  2.7996  0.0473 -0.2443
14691TIP3   OH265487   5.440   1.346  13.856  0.2394 -1.2720 -0.2203
14691TIP3    H165488   5.352   1.337  13.891  0.2841  0.8878  0.4926
14691TIP3    H265489   5.495   1.361  13.933  0.4485  2.7679 -1.0505
14692TIP3   OH265490   4.804   6.446  13.402 -0.3993  0.6030  0.3316
14692TIP3    H165491   4.885   6.496  13.389 -1.2927  1.9014 -0.3002
14692TIP3    H265492   4.833   6.354  13.404  1.1959  1.1040  1.0181
14693TIP3   OH265493   4.041   4.270  15.764  0.4915  0.2649  0.4745
14693TIP3    H165494   4.076   4.357  15.782 -0.1471  0.4845  0.6907
14693TIP3    H265495   3.950   4.286  15.737  0.5225 -0.2956  0.0283
14694TIP3   OH265496   2.073   6.414   2.765 -0.4810  0.2101 -0.0383
14694TIP3    H165497   2.079   6.337   2.822 -1.3275 -0.5092 -0.9039
14694TIP3    H265498   2.159   6.457   2.774 -0.2998 -0.3620  1.1029
14695TIP3   OH265499   0.538   1.655  15.288 -0.0093  0.4680 -0.1713
14695TIP3    H165500   0.530   1.702  15.371  0.8834  0.4529 -0.0685
14695TIP3    H265501   0.488   1.708  15.226 -1.0609  0.2401  0.4606
14696TIP3   OH265502   4.632   2.480  12.899  0.0009 -0.2561 -0.1049
14696TIP3    H165503   4.565   2.451  12.837  0.8098 -2.2627 -0.0849
14696TIP3    H265504   4.591   2.471  12.985 -0.5428  0.9053 -0.2346
14697TIP3   OH265505   5.012   4.176   2.603 -1.0882  0.2860 -0.1600
14697TIP3    H165506   4.931   4.198   2.649 -0.4277 -0.3922  1.3448
14697TIP3    H265507   5.074   4.243   2.629 -0.9530  0.3932 -0.7481
14698TIP3   OH265508   6.293   3.454   0.876  0.8008  0.5449  0.4839
14698TIP3    H165509   6.202   3.433   0.853  0.8793  1.3661 -0.5889
14698TIP3    H265510   6.324   3.375   0.921  0.5326 -0.9785 -1.9152
14699TIP3   OH265511   5.006   2.185  11.805 -0.1110  0.4731 -0.0032
14699TIP3    H165512   4.982   2.274  11.778  0.8559  1.1112  1.1823
14699TIP3    H265513   5.066   2.198  11.878  1.5523 -1.1457 -1.0399
14700TIP3   OH265514   4.943   1.368   1.958  0.5766 -0.2694 -0.1667
14700TIP3    H165515   4.920   1.361   2.051  1.7240  0.9315  0.2262
14700TIP3    H265516   4.923   1.459   1.936 -0.2819 -0.7125 -1.2813
14701TIP3   OH265517   1.171   5.565  12.481  0.2809 -0.0449 -0.5529
14701TIP3    H165518   1.196   5.620  12.407  2.2463 -0.5204 -0.2821
14701TIP3    H265519   1.187   5.476  12.451  2.9784 -0.1633  1.0600
14702TIP3   OH265520   1.429   4.431  12.532  0.0835  0.6988  0.0897
14702TIP3    H165521   1.470   4.514  12.506 -0.2668  0.8364 -0.0129
14702TIP3    H265522   1.354   4.422  12.474  0.6726 -0.1629 -0.5420
14703TIP3   OH265523   3.468   0.705  12.158 -0.3766 -0.7974  0.1399
14703TIP3    H165524   3.388   0.729  12.204 -1.3222 -1.2384 -1.2590
14703TIP3    H265525   3.538   0.729  12.218 -1.4455  1.9342  0.3688
14704TIP3   OH265526   1.930   4.634   4.868  0.0668 -0.0677 -0.1442
14704TIP3    H165527   1.972   4.633   4.782 -1.6730  0.2643 -1.0190
14704TIP3    H265528   1.875   4.712   4.866 -1.3576 -1.0437  0.5944
14705TIP3   OH265529   3.840   1.149  17.136  0.4715 -0.3220 -0.4492
14705TIP3    H165530   3.846   1.235  17.094 -0.2981  0.2029  0.5018
14705TIP3    H265531   3.894   1.158  17.215  0.7065 -0.8398 -0.5526
14706TIP3   OH265532   3.594   4.992  13.411 -0.8308 -0.1344  0.7220
14706TIP3    H165533   3.553   5.044  13.480 -0.5991 -0.9519  1.4922
14706TIP3    H265534   3.600   4.904  13.449 -0.2140 -0.4673 -0.1462
14707TIP3   OH265535   5.335   6.537  11.263 -0.3350 -0.0392  0.5988
14707TIP3    H165536   5.302   6.622  11.291 -0.6471  0.0193  0.0775
14707TIP3    H265537   5.403   6.557  11.198 -1.8189 -0.2058 -1.0408
14708TIP3   OH265538   5.042   6.032   5.650 -0.5080 -0.0405  0.0213
14708TIP3    H165539   5.031   6.121   5.686 -0.9586  0.3025 -0.9581
14708TIP3    H265540   5.105   6.043   5.579  0.1823 -0.6779  0.5212
14709TIP3   OH265541   1.153   2.936  14.904 -0.0862  0.1564  0.3205
14709TIP3    H165542   1.173   2.938  14.997 -0.0878  1.6554  0.2946
14709TIP3    H265543   1.072   2.884  14.898 -0.1843  0.2115  1.1643
14710TIP3   OH265544   3.191   2.198   4.905 -0.0238  0.2993 -0.0332
14710TIP3    H165545   3.236   2.262   4.850  0.9325 -0.9139 -0.6937
14710TIP3    H265546   3.261   2.152   4.951 -0.4585 -2.3413 -1.8681
14711TIP3   OH265547   3.144   4.171  16.929  0.3637 -0.4333 -0.4902
14711TIP3    H165548   3.172   4.084  16.958 -0.2947 -0.3954  0.2731
14711TIP3    H265549   3.160   4.228  17.004  0.9346  0.1338 -1.0371
14712TIP3   OH265550   4.425   3.819   5.097  0.5756 -0.0386  0.6219
14712TIP3    H165551   4.365   3.749   5.070 -0.5309  1.1210  0.0190
14712TIP3    H265552   4.411   3.827   5.191  0.1761 -0.1458  0.5735
14713TIP3   OH265553   1.341   1.857   2.846 -0.1873 -0.2450  0.3334
14713TIP3    H165554   1.341   1.926   2.780 -0.8879 -1.0431 -0.5318
14713TIP3    H265555   1.432   1.852   2.876 -0.0549  0.7746  0.1156
14714TIP3   OH265556   1.590   1.297  16.985  0.1956 -0.3567 -0.3671
14714TIP3    H165557   1.506   1.259  16.961  0.4377 -0.4460 -1.0770
14714TIP3    H265558   1.642   1.223  17.016 -0.5238 -0.0627  1.6166
14715TIP3   OH265559   1.077   4.073  16.499 -0.2931  0.0651  0.0104
14715TIP3    H165560   1.044   4.043  16.584  0.6901 -0.2723  0.2923
14715TIP3    H265561   1.142   4.006  16.475 -0.3923  0.2920 -0.8854
14716TIP3   OH265562   0.963   6.473   5.455  0.8467  0.0462  0.5234
14716TIP3    H165563   0.910   6.395   5.472  1.3555 -0.6346 -0.8750
14716TIP3    H265564   0.909   6.524   5.394  0.7670  0.5026  0.9800
14717TIP3   OH265565   6.177   0.772  16.014 -0.4653  0.0234 -0.5603
14717TIP3    H165566   6.160   0.704  16.078 -1.6723 -1.6241 -2.5654
14717TIP3    H265567   6.156   0.854  16.059 -0.0599 -0.9920  1.5111
14718TIP3   OH265568   3.725   6.752  15.979 -0.8350 -0.7800  0.0519
14718TIP3    H165569   3.652   6.788  15.929  0.5476  1.1136 -0.6743
14718TIP3    H265570   3.759   6.827  16.030  1.7850 -1.1285 -1.1069
14719TIP3   OH265571   4.600   3.094  15.161 -0.0749 -0.0506  0.1625
14719TIP3    H165572   4.663   3.166  15.170 -0.7008  0.7749 -1.8687
14719TIP3    H265573   4.650   3.022  15.124  0.2762 -0.3033  1.0963
14720TIP3   OH265574   1.559   6.715   0.337  0.7300 -0.4287  0.1013
14720TIP3    H165575   1.633   6.654   0.326  1.7909  0.5906  1.4012
14720TIP3    H265576   1.580   6.789   0.280 -0.1422 -0.8908 -0.8304
14721TIP3   OH265577   0.474   4.344   1.298 -0.0833  0.3610  1.0365
14721TIP3    H165578   0.536   4.273   1.278 -0.5954 -0.6398  2.8819
14721TIP3    H265579   0.395   4.321   1.250  0.2360  0.4506  0.4662
14722TIP3   OH265580   5.576   4.884   0.203 -0.1572 -0.0445  0.1487
14722TIP3    H165581   5.670   4.898   0.193 -0.2436  0.2200 -0.2760
14722TIP3    H265582   5.562   4.881   0.298 -0.0251  1.9991  0.2530
14723TIP3   OH265583   5.340   5.485  12.152  0.7573 -0.5946 -0.0245
14723TIP3    H165584   5.334   5.577  12.178  0.6579 -0.1822 -1.4452
14723TIP3    H265585   5.281   5.477  12.078  1.3020 -1.6365 -0.3581
14724TIP3   OH265586   3.352   1.421  12.300  0.2856 -0.6485  0.0382
14724TIP3    H165587   3.442   1.438  12.272 -0.2481 -0.0678 -1.3896
14724TIP3    H265588   3.298   1.449  12.225 -1.1017 -0.5439  1.0585
14725TIP3   OH265589   6.347   2.648   2.333 -0.1500 -0.1809 -0.3888
14725TIP3    H165590   6.365   2.712   2.264 -2.3132  0.6248 -0.2620
14725TIP3    H265591   6.410   2.669   2.402  0.3933  0.6091 -1.1169
14726TIP3   OH265592   5.877   1.350  16.664  0.1583 -0.3045  0.3294
14726TIP3    H165593   5.879   1.254  16.671 -1.0958 -0.3248  0.5482
14726TIP3    H265594   5.789   1.369  16.629 -0.6338  0.9037  2.8991
14727TIP3   OH265595   5.680   3.099  11.260 -0.1484  0.2921  0.0073
14727TIP3    H165596   5.645   3.100  11.170  0.6809 -1.6779 -0.3627
14727TIP3    H265597   5.634   3.027  11.302 -0.3635  1.0703  1.1080
14728TIP3   OH265598   0.635   4.845  15.617 -0.1336 -0.3024 -0.3621
14728TIP3    H165599   0.571   4.779  15.642  0.7627 -1.3895 -0.8773
14728TIP3    H265600   0.603   4.878  15.533 -0.5275 -0.1527 -0.1541
14729TIP3   OH265601   6.384   0.166  13.058  0.2185  0.1836 -0.4554
14729TIP3    H165602   6.450   0.097  13.059 -0.5848 -0.5902  0.9201
14729TIP3    H265603   6.357   0.172  12.967  0.5714 -1.0730 -0.6495
14730TIP3   OH265604   5.026   4.780  11.760  0.4727  0.0448 -0.3283
14730TIP3    H165605   4.985   4.699  11.790 -0.5556  0.6827  0.0444
14730TIP3    H265606   5.059   4.760  11.673 -0.2112 -0.6400 -0.4343
14731TIP3   OH265607   4.054   4.450  13.452  0.1830 -0.1608  0.1737
14731TIP3    H165608   4.135   4.499  13.435 -0.0991  0.2163 -0.1026
14731TIP3    H265609   4.081   4.359  13.453  0.1579 -0.2609 -2.8150
14732TIP3   OH265610   4.747   6.456  12.440 -0.7108 -0.2458 -0.6683
14732TIP3    H165611   4.668   6.463  12.494 -0.2850  0.1137 -0.0778
14732TIP3    H265612   4.764   6.362  12.435  0.4396 -0.2014  1.6068
14733TIP3   OH265613   2.159   5.126  12.619 -0.0943  0.0084  0.1089
14733TIP3    H165614   2.082   5.164  12.661  1.0109  0.4138  1.8133
14733TIP3    H265615   2.135   5.035  12.602 -1.5835  0.5942 -1.0079
14734TIP3   OH265616   1.585   1.774  14.228  0.6597  0.5126 -1.0000
14734TIP3    H165617   1.644   1.745  14.158 -0.4170 -2.3068 -0.8093
14734TIP3    H265618   1.503   1.729  14.210  0.2394  0.0563  1.8372
14735TIP3   OH265619   2.777   4.452   4.173 -0.0256  0.1746 -0.6989
14735TIP3    H165620   2.831   4.389   4.125  0.4919 -0.1181  0.2623
14735TIP3    H265621   2.702   4.401   4.204 -0.3201  0.3458 -1.1309
14736TIP3   OH265622   0.850   5.412   6.264  0.3625 -0.3197 -0.0230
14736TIP3    H165623   0.870   5.319   6.270  1.0194 -0.1147  1.0232
14736TIP3    H265624   0.837   5.440   6.354 -0.7327  0.4170 -0.3851
14737TIP3   OH265625   4.590   2.260  11.465  0.4149 -0.2330  0.1169
14737TIP3    H165626   4.585   2.189  11.529  0.3698 -0.7379 -0.4414
14737TIP3    H265627   4.509   2.309  11.477  0.1812 -0.6143  0.1183
14738TIP3   OH265628   4.841   6.032  15.888  0.3243 -0.5337 -0.6445
14738TIP3    H165629   4.904   6.077  15.944  0.0821  1.7353 -2.1378
14738TIP3    H265630   4.763   6.022  15.942  0.0933  1.6132 -0.5746
14739TIP3   OH265631   6.582   2.747  16.083 -0.4786 -0.2431  0.3570
14739TIP3    H165632   6.569   2.687  16.156 -0.9847  0.0874  0.5476
14739TIP3    H265633   6.632   2.697  16.019  0.6637 -0.2749  1.2655
14740TIP3   OH265634   6.743   1.741   3.940 -0.4209  0.2263 -0.4528
14740TIP3    H165635   6.691   1.821   3.945  0.6511  0.9186 -0.3177
14740TIP3    H265636   6.691   1.676   3.988 -0.3881  1.3419  1.1265
14741TIP3   OH265637   1.073   2.704   0.118 -0.4608  0.5789 -0.0465
14741TIP3    H165638   0.982   2.700   0.090 -0.6704 -3.0899  0.8897
14741TIP3    H265639   1.068   2.704   0.214  0.5203 -0.1641  0.0090
14742TIP3   OH265640   5.007   4.017   3.676 -0.0686  0.4130  0.1273
14742TIP3    H165641   4.966   4.039   3.593 -0.5366 -0.6865  0.0528
14742TIP3    H265642   5.095   3.988   3.653 -0.1487  0.2515  0.0174
14743TIP3   OH265643   5.228   3.977  15.707 -0.4517 -0.6619 -0.1680
14743TIP3    H165644   5.261   3.888  15.694  1.1131 -0.2410  0.8674
14743TIP3    H265645   5.224   3.988  15.802 -0.8206  0.3090 -0.2899
14744TIP3   OH265646   1.154   4.502  17.088  0.1585  0.3555 -0.0623
14744TIP3    H165647   1.083   4.439  17.082 -0.1849  0.8161 -0.9298
14744TIP3    H265648   1.206   4.473  17.162  0.6331 -1.6129 -1.1379
14745TIP3   OH265649   3.600   2.842  11.417  0.4414  0.0237  0.7276
14745TIP3    H165650   3.579   2.930  11.386  1.3019  0.0198  0.1024
14745TIP3    H265651   3.665   2.856  11.486  0.4155 -0.1009  0.7769
14746TIP3   OH265652   1.154   5.062  13.037  0.3183 -0.1815 -0.4631
14746TIP3    H165653   1.068   5.072  13.078 -1.0160 -1.5469 -2.8600
14746TIP3    H265654   1.204   5.010  13.100 -1.2292 -1.0385  0.0922
14747TIP3   OH265655   5.213   2.657  16.608 -0.5266  0.4387 -0.1358
14747TIP3    H165656   5.228   2.582  16.550 -1.0985 -0.3470  0.7132
14747TIP3    H265657   5.122   2.648  16.636  0.8558 -1.6099  4.2104
14748TIP3   OH265658   6.514   0.411  13.651 -0.4274 -0.1220  0.0246
14748TIP3    H165659   6.568   0.333  13.662 -1.5381 -0.8636  0.3445
14748TIP3    H265660   6.558   0.462  13.582  0.4765 -0.8739  0.0411
14749TIP3   OH265661   1.799   3.510  11.591  0.4933 -0.4598 -0.2034
14749TIP3    H165662   1.720   3.485  11.544  0.3998 -1.0313  0.2521
14749TIP3    H265663   1.768   3.564  11.664  0.7410  1.5284 -1.5231
14750TIP3   OH265664   4.779   4.144   0.813  0.3333 -0.4660  0.5055
14750TIP3    H165665   4.867   4.118   0.786  0.6937  1.9177 -0.7606
14750TIP3    H265666   4.744   4.194   0.739 -2.0296 -1.2069  1.0589
14751TIP3   OH265667   3.632   4.905   4.266 -0.3599 -0.4070 -0.1827
14751TIP3    H165668   3.587   4.833   4.221 -1.2644  0.0047  0.0604
14751TIP3    H265669   3.687   4.944   4.198 -0.7962 -0.5573 -0.6299
14752TIP3   OH265670   2.049   6.499   3.223  0.3971 -0.0062 -0.1667
14752TIP3    H165671   2.121   6.532   3.170  1.0794  1.1539  1.4262
14752TIP3    H265672   2.090   6.435   3.282 -0.1741 -0.5374 -0.3345
14753TIP3   OH265673   4.235   1.934  16.326 -0.1769 -0.1797 -0.2507
14753TIP3    H165674   4.261   1.858  16.378  0.0917  0.0885  0.0051
14753TIP3    H265675   4.290   2.006  16.358 -1.0359  0.3207  0.0988
14754TIP3   OH265676   2.584   0.515   2.958  0.2442 -0.1355  0.2627
14754TIP3    H165677   2.548   0.535   3.045 -0.9314 -0.2143 -0.1936
14754TIP3    H265678   2.639   0.590   2.937  0.6294 -0.1671  1.1256
14755TIP3   OH265679   2.379   5.995   1.898  0.1987 -0.4694 -0.0710
14755TIP3    H165680   2.407   6.073   1.947  1.4788 -1.1057  0.2394
14755TIP3    H265681   2.461   5.958   1.864 -0.6228 -0.1990 -2.4761
14756TIP3   OH265682   1.267   6.361   5.287 -0.1119  0.3712 -0.0780
14756TIP3    H165683   1.276   6.453   5.309 -3.7338  0.2040  2.5216
14756TIP3    H265684   1.302   6.315   5.363 -0.5624 -0.3963 -0.3287
14757TIP3   OH265685   3.505   4.613   5.081 -0.6770 -0.3568  0.5141
14757TIP3    H165686   3.552   4.652   5.155  0.9236 -1.7114  0.2401
14757TIP3    H265687   3.564   4.545   5.048 -0.2995  1.7195 -3.4822
14758TIP3   OH265688   0.963   0.766  12.793  0.1494 -0.2751  0.0018
14758TIP3    H165689   1.059   0.761  12.785  0.1123 -1.7861  0.4937
14758TIP3    H265690   0.948   0.817  12.872  0.5382  0.8911 -0.6633
14759TIP3   OH265691   0.055   1.063  11.893 -0.6933 -0.1379 -0.0024
14759TIP3    H165692  -0.030   1.019  11.891 -0.7182 -0.2565  2.4705
14759TIP3    H265693   0.033   1.155  11.906 -0.4169 -0.4443  2.9089
14760TIP3   OH265694   2.381   1.202   4.678  0.3766 -0.5969  0.2839
14760TIP3    H165695   2.436   1.187   4.755  0.1234 -2.6413  0.0837
14760TIP3    H265696   2.303   1.148   4.693 -0.2560 -0.0027 -0.8061
14761TIP3   OH265697   3.609   2.225  16.571  0.3304  0.2544 -0.3657
14761TIP3    H165698   3.653   2.182  16.645 -0.1926  3.8415  2.1725
14761TIP3    H265699   3.593   2.154  16.509  1.6554 -2.7481  2.5100
14762TIP3   OH265700   0.475   6.055  12.068  0.3987 -0.2676 -0.2438
14762TIP3    H165701   0.546   6.010  12.023  0.6668 -0.0576 -0.0325
14762TIP3    H265702   0.465   6.138  12.022  2.1364  0.9032  1.4164
14763TIP3   OH265703   4.747   3.313  15.062  0.4010  0.2096  0.3913
14763TIP3    H165704   4.715   3.400  15.084  0.4064 -0.0528  1.4445
14763TIP3    H265705   4.681   3.278  15.001 -0.2515  0.4704  0.9397
14764TIP3   OH265706   2.507   6.548  10.798 -0.4360 -0.3168  0.1208
14764TIP3    H165707   2.525   6.573  10.707  0.3731 -0.8206  0.1280
14764TIP3    H265708   2.413   6.561  10.809 -0.6053 -0.6081 -0.9029
14765TIP3   OH265709   0.509   1.729   2.015 -0.6110  0.1560  0.5241
14765TIP3    H165710   0.537   1.653   1.963 -0.4782  0.1924  0.5419
14765TIP3    H265711   0.434   1.697   2.065 -0.3334 -0.0664  0.8006
14766TIP3   OH265712   1.387   4.223  14.246  0.1640 -0.5161  0.5847
14766TIP3    H165713   1.421   4.234  14.334  0.6327 -1.0746  0.4804
14766TIP3    H265714   1.335   4.142  14.250  1.4704 -1.4114 -0.0144
14767TIP3   OH265715   2.060   6.776   5.629 -0.5516 -0.3422 -0.0035
14767TIP3    H165716   2.120   6.781   5.703  1.5518 -1.5923 -1.5508
14767TIP3    H265717   2.058   6.864   5.593  0.3351 -0.2712  0.1128
14768TIP3   OH265718   0.378   4.830   3.413 -0.2750  0.2082  0.3013
14768TIP3    H165719   0.340   4.891   3.351  1.0173  0.7584  0.0409
14768TIP3    H265720   0.369   4.744   3.370  1.7374  0.7268 -1.2234
14769TIP3   OH265721   4.772   6.730   1.043 -0.3474  0.2861 -0.4807
14769TIP3    H165722   4.757   6.637   1.027  0.0464  0.5268 -2.4739
14769TIP3    H265723   4.690   6.772   1.015  0.1394  0.6820 -1.3438
14770TIP3   OH265724   0.716   4.882   0.372  0.2209 -0.8561  0.4693
14770TIP3    H165725   0.686   4.792   0.384 -0.6507 -0.8848 -1.7070
14770TIP3    H265726   0.674   4.931   0.443  0.4942 -2.1091  1.5104
14771TIP3   OH265727   0.927   4.131  13.141 -0.5809  0.1469  0.2849
14771TIP3    H165728   0.979   4.194  13.090 -1.6346  0.8754  0.1073
14771TIP3    H265729   0.936   4.048  13.092 -1.9635  0.9430 -1.3827
14772TIP3   OH265730   6.734   4.049   2.432 -0.0689  0.4582 -0.4218
14772TIP3    H165731   6.823   4.074   2.405  0.4862 -1.2211 -0.1885
14772TIP3    H265732   6.686   4.041   2.350  0.3847 -0.0585 -0.6416
14773TIP3   OH265733   4.162   4.988   1.789 -0.1958 -0.0244 -0.0453
14773TIP3    H165734   4.211   4.973   1.708 -0.6497 -0.7403 -0.1916
14773TIP3    H265735   4.105   5.062   1.769 -1.8601 -1.5541 -1.0902
14774TIP3   OH265736   2.610   1.032   3.297 -0.4996  0.3842 -0.3554
14774TIP3    H165737   2.681   1.093   3.317 -0.3648 -0.2214  1.0405
14774TIP3    H265738   2.635   0.993   3.214  0.0656  1.2570 -0.6050
14775TIP3   OH265739   4.802   1.228   2.620  0.2876 -0.1216 -0.1362
14775TIP3    H165740   4.782   1.183   2.538 -1.5409  0.9021 -0.2849
14775TIP3    H265741   4.841   1.160   2.676  1.3003 -0.8815 -1.7472
14776TIP3   OH265742   2.463   3.157   2.839  0.1063  0.1051  0.1994
14776TIP3    H165743   2.415   3.086   2.796 -0.5170  0.8870 -0.4117
14776TIP3    H265744   2.548   3.160   2.793  0.9737 -1.6112  1.6185
14777TIP3   OH265745   4.045   4.482  12.477 -0.1344  0.1940  0.1027
14777TIP3    H165746   3.954   4.455  12.487  0.1664 -0.4069  1.2780
14777TIP3    H265747   4.062   4.475  12.383 -1.0706 -0.4308 -0.0251
14778TIP3   OH265748   3.733   6.111  12.039 -0.4630 -0.2208  0.1612
14778TIP3    H165749   3.757   6.020  12.021  0.5635  0.2144 -0.7180
14778TIP3    H265750   3.637   6.113  12.030 -0.3485 -0.8897 -1.3971
14779TIP3   OH265751   5.557   0.284   1.304  0.3322 -0.0844 -0.4118
14779TIP3    H165752   5.610   0.227   1.248  1.8179  2.1444 -1.3062
14779TIP3    H265753   5.615   0.309   1.375 -0.9996 -1.4268  1.1920
14780TIP3   OH265754   4.591   3.674  11.200 -0.2146 -0.3739 -0.0796
14780TIP3    H165755   4.498   3.689  11.217 -0.3522 -1.9785  0.6998
14780TIP3    H265756   4.599   3.579  11.189  1.6099 -0.4583  1.6628
14781TIP3   OH265757   6.154   2.289  11.511 -0.2136  0.8186 -0.0415
14781TIP3    H165758   6.102   2.209  11.522 -0.3373  1.0266  0.9357
14781TIP3    H265759   6.122   2.327  11.429  1.1323 -1.0731 -1.4984
14782TIP3   OH265760   4.049   5.041  14.857  0.0733 -0.3059  0.5788
14782TIP3    H165761   4.131   5.058  14.810 -0.0296 -2.2034 -0.3482
14782TIP3    H265762   3.992   5.115  14.833  1.7746  1.4981  1.9453
14783TIP3   OH265763   2.182   2.586  11.304 -0.2222 -0.3453 -0.2192
14783TIP3    H165764   2.238   2.643  11.251 -0.8822 -0.3774 -0.9432
14783TIP3    H265765   2.201   2.498  11.273  1.1403 -0.5917  1.2113
14784TIP3   OH265766   0.499   1.264   2.017  0.2344 -0.0303 -0.2708
14784TIP3    H165767   0.502   1.317   1.937  1.2102 -0.6725 -0.6554
14784TIP3    H265768   0.406   1.241   2.027  0.2885 -0.9936 -1.9037
14785TIP3   OH265769   2.775   4.028   0.795 -0.3847 -0.1217 -0.5998
14785TIP3    H165770   2.785   4.046   0.889 -1.4368  1.0502 -0.6972
14785TIP3    H265771   2.761   4.114   0.756 -2.0198 -0.8162 -1.5681
14786TIP3   OH265772   3.198   0.715   0.722 -0.4252 -0.3320  0.2317
14786TIP3    H165773   3.176   0.739   0.812 -0.6886 -0.0254  0.0876
14786TIP3    H265774   3.129   0.652   0.697 -0.5943 -0.0952  0.1016
14787TIP3   OH265775   0.109   1.234   3.336  0.0008 -0.2244  0.2423
14787TIP3    H165776   0.166   1.157   3.339  0.2787  0.0051  1.1493
14787TIP3    H265777   0.170   1.308   3.326 -0.2262 -0.0727 -0.0306
14788TIP3   OH265778   5.001   0.825  14.803 -0.5835  0.4142  0.5733
14788TIP3    H165779   4.926   0.766  14.807 -1.5831  1.6242 -0.0243
14788TIP3    H265780   4.983   0.892  14.870  1.5579 -1.0712  2.7536
14789TIP3   OH265781   0.798   1.223   5.748  0.1562  0.1208  0.3383
14789TIP3    H165782   0.847   1.234   5.829  0.5821  0.8666 -0.0228
14789TIP3    H265783   0.759   1.308   5.731  1.1630  0.3426 -0.9493
14790TIP3   OH265784   5.994   0.534  14.325 -0.3988  0.6708 -0.3836
14790TIP3    H165785   5.994   0.624  14.293  1.0091  0.8331  0.0516
14790TIP3    H265786   5.983   0.481  14.246  0.9607  1.1428 -0.9113
14791TIP3   OH265787   0.941   1.415  16.449  0.1741  0.3967  0.1653
14791TIP3    H165788   0.993   1.351  16.400  0.4156 -0.2889  1.2891
14791TIP3    H265789   0.857   1.417  16.405  0.4369 -0.1032 -0.3647
14792TIP3   OH265790   0.733   3.258  12.974 -0.4334  0.1427 -0.4289
14792TIP3    H165791   0.644   3.290  12.989 -0.1609  0.7759 -0.1548
14792TIP3    H265792   0.725   3.201  12.897 -1.0366  0.3720 -0.5402
14793TIP3   OH265793   5.032   2.535   4.592 -0.3093 -0.1009  0.1686
14793TIP3    H165794   5.112   2.519   4.641  1.0639  0.4608 -1.8693
14793TIP3    H265795   5.000   2.448   4.568  2.2294 -0.2288 -3.0218
14794TIP3   OH265796   5.366   2.654  15.288 -0.7079  0.4179 -0.2472
14794TIP3    H165797   5.441   2.595  15.289  0.0392  1.3638  0.9950
14794TIP3    H265798   5.350   2.671  15.195 -1.0164 -1.8128 -0.6235
14795TIP3   OH265799   5.590   6.325   5.544 -0.3991  0.0063  0.3341
14795TIP3    H165800   5.522   6.334   5.478  0.1929 -0.6978 -0.3735
14795TIP3    H265801   5.655   6.391   5.520 -0.5906  0.3459  0.7302
14796TIP3   OH265802   4.130   6.705   4.095  0.2658 -0.2833 -0.3258
14796TIP3    H165803   4.087   6.688   4.011 -0.0196  0.0583 -0.2497
14796TIP3    H265804   4.075   6.770   4.138  1.5987  1.2449 -0.8461
14797TIP3   OH265805   5.963   2.572   1.108 -0.0385  0.0455 -0.8666
14797TIP3    H165806   6.053   2.553   1.133 -0.5424 -1.3659 -0.0175
14797TIP3    H265807   5.959   2.667   1.101  1.4033  0.1469 -0.4776
14798TIP3   OH265808   5.363   1.566   4.592  0.1016 -0.4450 -0.2957
14798TIP3    H165809   5.437   1.510   4.619  1.1725  1.2530  0.3870
14798TIP3    H265810   5.348   1.623   4.667  0.1276  1.3016 -1.5916
14799TIP3   OH265811   6.260   5.865  14.954  0.3046 -0.1436  0.6015
14799TIP3    H165812   6.245   5.920  14.877  0.6552  1.2823  1.5384
14799TIP3    H265813   6.175   5.862  14.998  0.0492 -1.1360  0.0723
14800TIP3   OH265814   5.730   3.476  14.182  0.6739 -0.3838 -0.0123
14800TIP3    H165815   5.649   3.451  14.226  0.6043 -0.8879 -0.4187
14800TIP3    H265816   5.782   3.396  14.181  0.4074 -0.5626 -1.4179
14801TIP3   OH265817   5.434   1.267   3.322  0.3954  0.1933  0.1036
14801TIP3    H165818   5.387   1.290   3.242 -0.6761  0.3851  0.7873
14801TIP3    H265819   5.506   1.211   3.292  0.7098  1.2242 -1.1284
14802TIP3   OH265820   5.010   2.940   1.885  0.3503 -0.0493  0.5174
14802TIP3    H165821   5.037   2.947   1.793 -0.7690  2.5227  0.3561
14802TIP3    H265822   5.090   2.953   1.935  0.2383  2.9800 -0.0383
14803TIP3   OH265823   1.865   5.213   5.036  0.3774 -0.3218 -0.5627
14803TIP3    H165824   1.818   5.146   5.087  0.1573  0.1960 -0.0831
14803TIP3    H265825   1.828   5.206   4.948 -2.1135  1.4855  0.2736
14804TIP3   OH265826   1.431   2.817  15.214 -0.4160 -0.9019 -0.1279
14804TIP3    H165827   1.382   2.737  15.233 -0.1809 -0.7251  1.2268
14804TIP3    H265828   1.519   2.787  15.190  0.2494 -0.9563  2.3075
14805TIP3   OH265829   5.477   0.558  15.460  0.2209 -0.3057 -0.4938
14805TIP3    H165830   5.390   0.522  15.479  0.4424 -1.5283 -1.7295
14805TIP3    H265831   5.468   0.652  15.477 -0.3055 -0.9177  2.9631
14806TIP3   OH265832   6.033   5.015   1.969  0.4968 -0.0076  0.2729
14806TIP3    H165833   5.968   4.950   1.994 -0.1294  0.3110 -0.5317
14806TIP3    H265834   5.986   5.077   1.914  0.9967  1.3391  1.3373
14807TIP3   OH265835   6.256   1.663  13.040  0.6236  0.2272  0.5619
14807TIP3    H165836   6.256   1.579  12.994  0.6920 -0.8144  2.4101
14807TIP3    H265837   6.189   1.653  13.108 -1.4913  2.7279 -1.0241
14808TIP3   OH265838   6.028   3.341  13.790  0.1584 -0.6314 -0.6788
14808TIP3    H165839   6.013   3.435  13.786 -2.0061 -0.9464 -0.4070
14808TIP3    H265840   6.099   3.325  13.728  0.8384  1.2251 -0.4040
14809TIP3   OH265841   4.297   6.012   2.397  0.1578 -0.0657  0.1149
14809TIP3    H165842   4.224   5.988   2.455 -0.8691  1.1599 -0.6487
14809TIP3    H265843   4.267   5.986   2.310  1.1527 -0.6763 -0.0483
14810TIP3   OH265844   0.051   5.558   0.757  0.1482 -0.5064 -0.3586
14810TIP3    H165845   0.019   5.561   0.847 -1.3686  1.5985 -0.9426
14810TIP3    H265846   0.071   5.648   0.735  0.6602 -1.0205 -2.0957
14811TIP3   OH265847   6.606   2.537   0.867 -0.3728  1.4113  0.1271
14811TIP3    H165848   6.567   2.474   0.928  4.0952 -0.3524  1.3984
14811TIP3    H265849   6.585   2.503   0.780 -0.1233 -0.5016  0.7940
14812TIP3   OH265850   6.027   1.511  14.041 -0.0067  0.1008 -0.6296
14812TIP3    H165851   5.969   1.456  13.989 -1.1813 -1.7567  2.5210
14812TIP3    H265852   5.971   1.582  14.072  0.0815 -0.1627  0.1365
14813TIP3   OH265853   2.017   0.332  14.278 -0.0273  0.1567 -0.2158
14813TIP3    H165854   2.082   0.279  14.234 -0.5018 -0.7062  0.1088
14813TIP3    H265855   1.945   0.339  14.215 -0.9795 -1.6195  0.6274
14814TIP3   OH265856   5.503   6.258   1.477  0.2860 -0.7610  0.5197
14814TIP3    H165857   5.557   6.183   1.503  0.3883 -1.3412 -1.2903
14814TIP3    H265858   5.481   6.241   1.385  0.1594  1.3328  0.1368
14815TIP3   OH265859   5.360   2.150  15.759  0.4871  0.0754 -0.3371
14815TIP3    H165860   5.310   2.069  15.764  1.4644 -0.6020 -1.3419
14815TIP3    H265861   5.323   2.197  15.684  0.4430  0.2095 -0.2322
14816TIP3   OH265862   2.869   5.053  13.482  0.8357 -0.1691 -0.0902
14816TIP3    H165863   2.954   5.032  13.443 -0.1078 -1.5931 -1.4756
14816TIP3    H265864   2.850   4.980  13.541  0.7703  0.3476  0.5291
14817TIP3   OH265865   1.181   5.935   5.273 -0.2801  0.1135  0.0641
14817TIP3    H165866   1.109   5.997   5.286  0.1445  0.5199  0.5289
14817TIP3    H265867   1.230   5.970   5.198  0.2946  0.6731  0.6889
14818TIP3   OH265868   4.313   4.971  12.990  0.8360 -0.5001 -0.6641
14818TIP3    H165869   4.293   4.878  12.978  0.9215 -0.6928  0.6518
14818TIP3    H265870   4.243   5.017  12.944  0.1954 -1.2039 -0.3924
14819TIP3   OH265871   6.009   6.117   6.030  0.1905  0.2381  0.6934
14819TIP3    H165872   5.946   6.066   6.081 -0.6962 -1.3285 -1.9123
14819TIP3    H265873   6.094   6.080   6.053 -0.2143 -0.5574  0.9132
14820TIP3   OH265874   5.390   4.358  16.662  0.3920 -0.5458 -0.4104
14820TIP3    H165875   5.472   4.309  16.667  0.3135 -0.7257 -0.8440
14820TIP3    H265876   5.409   4.443  16.702 -0.0180 -1.6478  2.2082
14821TIP3   OH265877   2.384   2.215  12.821  0.2042  0.2555 -0.0521
14821TIP3    H165878   2.472   2.192  12.848  0.3523  0.4613 -0.3549
14821TIP3    H265879   2.328   2.187  12.893  0.3174 -1.5417 -0.6250
14822TIP3   OH265880   2.034   4.277  12.999 -0.3982 -0.2728  0.1390
14822TIP3    H165881   2.092   4.308  12.928 -0.4884 -0.1492  0.1190
14822TIP3    H265882   1.960   4.338  12.997 -1.2809 -1.3571 -0.8415
14823TIP3   OH265883   1.364   1.303   5.289  0.3041 -0.3607 -0.0478
14823TIP3    H165884   1.416   1.229   5.257  0.2043  0.0481 -1.1614
14823TIP3    H265885   1.345   1.280   5.381  2.4286 -0.5213  0.3786
14824TIP3   OH265886   0.948   3.831  15.892 -0.3442  0.4035  0.4568
14824TIP3    H165887   0.881   3.762  15.884 -0.0897  0.3656 -1.6830
14824TIP3    H265888   1.017   3.790  15.944  0.0605 -1.1989 -1.2807
14825TIP3   OH265889   5.006   4.953  12.439 -0.1065  0.1659 -0.2288
14825TIP3    H165890   4.947   4.997  12.501 -1.8583 -1.6794 -0.5289
14825TIP3    H265891   5.019   5.017  12.369 -0.7538  1.0620  0.4521
14826TIP3   OH265892   4.694   4.236  13.865  0.3165  0.0965  0.2557
14826TIP3    H165893   4.648   4.152  13.854  0.4253  0.1311 -0.4299
14826TIP3    H265894   4.624   4.301  13.871  0.1409 -0.2524  2.7844
14827TIP3   OH265895   4.451   1.828   3.042 -0.0370  0.0439  0.0342
14827TIP3    H165896   4.380   1.876   3.085 -0.7285 -0.3676 -0.6303
14827TIP3    H265897   4.455   1.865   2.954  0.9988  0.4987  0.2686
14828TIP3   OH265898   2.448   0.223   4.654 -0.7432 -0.1321 -0.1494
14828TIP3    H165899   2.461   0.270   4.571 -0.4326 -0.2064 -0.1432
14828TIP3    H265900   2.522   0.250   4.708 -1.2709  0.3821  0.3217
14829TIP3   OH265901   3.309   3.211   4.642 -0.7683 -0.1550  0.8521
14829TIP3    H165902   3.398   3.246   4.650 -0.9353  0.3811  0.3814
14829TIP3    H265903   3.320   3.126   4.599 -0.6321  0.6936 -0.8406
14830TIP3   OH265904   1.741   1.224   3.548  0.2335 -0.1615  0.0508
14830TIP3    H165905   1.771   1.262   3.630  2.5209  1.7479 -1.6189
14830TIP3    H265906   1.681   1.290   3.512  3.2042  1.3752 -2.2294
14831TIP3   OH265907   1.845   1.485  11.236  0.1909 -0.1024  0.0599
14831TIP3    H165908   1.862   1.496  11.143  0.9348 -0.6438  0.1251
14831TIP3    H265909   1.918   1.529  11.279 -0.8930  1.3894  0.4133
14832TIP3   OH265910   2.701   4.339   0.952 -0.2400 -0.3149 -0.1423
14832TIP3    H165911   2.729   4.258   0.994 -0.1116 -0.4894 -0.5599
14832TIP3    H265912   2.608   4.325   0.932  0.2815 -1.2029 -2.1324
14833TIP3   OH265913   4.678   0.244   1.890  0.3651  0.2458 -0.1965
14833TIP3    H165914   4.739   0.314   1.868  1.0435 -0.4228 -0.4542
14833TIP3    H265915   4.663   0.253   1.984  1.2573  0.0984 -0.0364
14834TIP3   OH265916   0.438   2.321   0.053  0.5235  0.1580 -0.3751
14834TIP3    H165917   0.494   2.380   0.002 -1.1488 -0.9619 -3.6053
14834TIP3    H265918   0.353   2.324   0.010 -1.3494  0.1082  3.1382
14835TIP3   OH265919   6.646   5.930  14.408  0.1569 -0.1740 -0.2256
14835TIP3    H165920   6.651   5.835  14.395  2.9710  0.2445 -2.5299
14835TIP3    H265921   6.552   5.948  14.405 -0.3840 -2.7618 -0.7128
14836TIP3   OH265922   2.281   4.895   1.629  0.1968  0.0919  0.5661
14836TIP3    H165923   2.372   4.911   1.654  0.1521 -1.0682  1.4952
14836TIP3    H265924   2.230   4.956   1.682  0.1847 -1.6335  2.6092
14837TIP3   OH265925   1.605   1.348  15.488  0.2620  0.7789 -0.4999
14837TIP3    H165926   1.614   1.434  15.447  1.2026  1.6429  1.4519
14837TIP3    H265927   1.563   1.366  15.572 -1.3328 -0.9166 -0.9114
14838TIP3   OH265928   6.354   4.215  14.866 -0.2432  0.0517  0.3394
14838TIP3    H165929   6.299   4.136  14.862 -0.2092 -0.0148  1.2062
14838TIP3    H265930   6.367   4.239  14.774  1.7130 -2.3244 -0.0513
14839TIP3   OH265931   4.781   4.158  11.149  0.4017  0.5363 -0.3877
14839TIP3    H165932   4.853   4.098  11.126 -0.5860 -1.3366  1.2641
14839TIP3    H265933   4.742   4.181  11.065  1.6790 -0.0052 -1.1554
14840TIP3   OH265934   0.929   3.168   3.377 -0.7354  0.4445  0.7334
14840TIP3    H165935   0.942   3.074   3.378 -1.0955  0.2642 -3.1940
14840TIP3    H265936   0.840   3.180   3.344  0.5503  2.1281 -2.4280
14841TIP3   OH265937   1.846   3.537   4.287  0.5576 -0.0859 -0.3245
14841TIP3    H165938   1.880   3.557   4.201 -1.3106  0.5957 -0.9266
14841TIP3    H265939   1.898   3.590   4.347  1.2499  0.1215 -1.1052
14842TIP3   OH265940   6.119   4.192   4.224  0.1291 -0.0641 -0.5052
14842TIP3    H165941   6.124   4.200   4.129  1.5714 -0.8340 -0.5141
14842TIP3    H265942   6.055   4.258   4.251  0.4646  0.8537 -1.9149
14843TIP3   OH265943   3.370   6.574  14.564  0.1616  0.2879 -0.3629
14843TIP3    H165944   3.354   6.664  14.592  1.4280  0.2369  0.5771
14843TIP3    H265945   3.459   6.575  14.528  0.2950 -0.6439 -0.0731
14844TIP3   OH265946   0.968   0.572   5.735 -0.5499  0.0504  0.2130
14844TIP3    H165947   0.906   0.607   5.670  1.0337  0.8739 -0.8769
14844TIP3    H265948   1.035   0.529   5.683 -0.4745 -1.3225  1.4197
14845TIP3   OH265949   4.553   4.764  15.170  0.2811 -0.2232  0.2097
14845TIP3    H165950   4.507   4.724  15.244 -0.1540  0.5720  0.3710
14845TIP3    H265951   4.592   4.690  15.123 -0.5863 -0.8367  0.4554
14846TIP3   OH265952   5.893   4.949   0.546 -0.5341  0.1650 -0.4324
14846TIP3    H165953   5.807   4.939   0.587 -1.4220  0.6581 -2.1385
14846TIP3    H265954   5.884   4.907   0.460  1.3707 -1.0490 -0.0699
14847TIP3   OH265955   0.720   0.996  11.563 -0.4883  0.3664 -0.7153
14847TIP3    H165956   0.696   1.089  11.561  1.6822  0.9975  0.4483
14847TIP3    H265957   0.770   0.982  11.482  0.1131  0.4890 -0.3668
14848TIP3   OH265958   2.738   0.207   0.205 -0.3663 -0.2120 -0.3352
14848TIP3    H165959   2.792   0.130   0.222 -2.0449 -1.6812 -1.5606
14848TIP3    H265960   2.698   0.228   0.290  1.9573  0.8086  0.5492
14849TIP3   OH265961   2.247   4.365  11.817  0.3253  0.3143  0.2041
14849TIP3    H165962   2.219   4.389  11.729 -1.3722 -1.3956  0.2483
14849TIP3    H265963   2.288   4.279  11.806 -0.1584 -0.0378  1.1164
14850TIP3   OH265964   1.479   2.688  10.653 -0.0889 -0.0588  0.1573
14850TIP3    H165965   1.447   2.608  10.611 -0.5147 -0.2458  0.8229
14850TIP3    H265966   1.543   2.724  10.591 -0.8504 -0.2192 -0.7310
14851TIP3   OH265967   1.279   0.038   4.119  0.5574  0.0391 -0.0816
14851TIP3    H165968   1.184   0.035   4.113  0.6700 -2.7227 -1.6961
14851TIP3    H265969   1.301   0.131   4.116 -2.1481  0.8031  2.1290
14852TIP3   OH265970   0.837   3.369   5.884  0.0183 -0.1278  0.2147
14852TIP3    H165971   0.855   3.296   5.944 -2.1258  0.8265  2.0825
14852TIP3    H265972   0.804   3.439   5.940 -0.6958  1.2959 -1.9223
14853TIP3   OH265973   6.090   5.399  10.983 -0.1268  0.1265 -0.2112
14853TIP3    H165974   6.140   5.460  10.927 -2.1826  0.7394 -1.4375
14853TIP3    H265975   6.135   5.315  10.972  2.9881  1.4543  1.8152
14854TIP3   OH265976   2.715   1.727  13.386  0.2832 -0.0681 -0.0184
14854TIP3    H165977   2.712   1.641  13.344 -0.6240 -1.0314  1.9846
14854TIP3    H265978   2.624   1.745  13.410  0.2082  2.1628 -1.7667
14855TIP3   OH265979   5.156   2.338   3.619 -0.3781 -0.1471  0.0145
14855TIP3    H165980   5.140   2.285   3.541  0.8475 -0.6250  0.0828
14855TIP3    H265981   5.251   2.348   3.623 -0.5479  1.6424  0.2826
14856TIP3   OH265982   1.341   0.977   1.770 -0.1775  0.6604  0.3520
14856TIP3    H165983   1.296   1.048   1.723  0.7354  2.3672  1.9758
14856TIP3    H265984   1.274   0.911   1.783 -1.0549  1.2031 -1.2133
14857TIP3   OH265985   2.753   0.844  13.243  0.5909 -0.7973 -0.2126
14857TIP3    H165986   2.687   0.794  13.291  0.0053 -0.9828 -1.1973
14857TIP3    H265987   2.789   0.781  13.180 -0.1560  0.0165 -1.4676
14858TIP3   OH265988   4.381   6.046   5.996 -0.0433  0.0222 -0.7555
14858TIP3    H165989   4.414   6.036   6.085  0.1022  0.8345 -0.7161
14858TIP3    H265990   4.301   5.993   5.993 -1.3087  1.8416  0.5167
14859TIP3   OH265991   2.897   2.182   5.139 -0.0524  0.6814  0.1019
14859TIP3    H165992   2.901   2.091   5.111 -1.5647  0.7145 -0.2505
14859TIP3    H265993   2.830   2.185   5.207 -0.2304  1.5699 -0.0927
14860TIP3   OH265994   2.985   4.232   0.016  0.1336  0.3666 -0.2182
14860TIP3    H165995   2.906   4.180  -0.001  0.3833  0.1077 -0.5801
14860TIP3    H265996   2.991   4.234   0.112  1.0800 -1.7292 -0.2127
14861TIP3   OH265997   0.277   4.908  14.605 -0.7565  0.5442  0.5334
14861TIP3    H165998   0.188   4.927  14.637 -1.1995 -0.8243  0.1396
14861TIP3    H265999   0.314   4.849  14.672 -0.8080 -0.3529 -0.2224
14862TIP3   OH266000   0.611   2.018  16.253  0.1772  0.1275  0.2360
14862TIP3    H166001   0.647   2.104  16.276 -0.6566 -0.0120  2.1753
14862TIP3    H266002   0.676   1.981  16.193  1.2554  1.5297  0.4954
14863TIP3   OH266003   1.173   1.524  11.882  0.2738 -0.5706 -0.1264
14863TIP3    H166004   1.252   1.541  11.830  0.5847 -1.7163 -0.0403
14863TIP3    H266005   1.198   1.546  11.972  0.0126  0.5539 -0.3256
14864TIP3   OH266006   5.366   2.496   1.459  0.2828 -0.6697 -0.1716
14864TIP3    H166007   5.358   2.401   1.463  2.1692 -0.8553 -0.7696
14864TIP3    H266008   5.326   2.520   1.376 -0.1847 -0.9199 -0.0254
14865TIP3   OH266009   3.794   2.269  12.703  0.2736 -0.1742  0.2249
14865TIP3    H166010   3.742   2.202  12.659 -0.6265 -1.3026  2.8999
14865TIP3    H266011   3.831   2.322  12.632 -0.7190 -2.2106 -1.8530
14866TIP3   OH266012   1.655   5.151   1.246  0.6291  0.0595 -0.2161
14866TIP3    H166013   1.616   5.133   1.160 -0.5386  0.2886  0.2568
14866TIP3    H266014   1.601   5.101   1.308 -1.6622  3.7259  0.9401
14867TIP3   OH266015   1.938   2.039   2.016  0.0659  0.2785 -0.3162
14867TIP3    H166016   1.844   2.034   2.032 -0.1207 -0.0485 -1.4641
14867TIP3    H266017   1.950   2.123   1.972  0.8449  2.1332  3.2343
14868TIP3   OH266018   5.340   4.002  12.515  0.1582 -0.3209  0.1650
14868TIP3    H166019   5.320   3.994  12.421  2.3022 -1.1109 -0.2749
14868TIP3    H266020   5.298   3.925  12.555  1.5285 -1.4954 -0.5915
14869TIP3   OH266021   1.196   2.748   5.739 -0.1641  0.3763  0.1851
14869TIP3    H166022   1.218   2.670   5.688  2.3183 -0.2580  2.1316
14869TIP3    H266023   1.111   2.776   5.704 -0.0859 -1.9212 -2.0133
14870TIP3   OH266024   0.408   2.448  14.751  0.1760 -0.1298  0.4906
14870TIP3    H166025   0.353   2.375  14.777 -0.8591  1.3490  2.6692
14870TIP3    H266026   0.461   2.466  14.829  0.2850  1.5401  0.0480
14871TIP3   OH266027   5.883   0.142  14.814 -0.2178 -0.2313  0.0807
14871TIP3    H166028   5.875   0.047  14.813 -3.9535 -0.0900  2.5584
14871TIP3    H266029   5.808   0.173  14.763  2.3095  1.4443 -2.8056
14872TIP3   OH266030   6.580   6.034   2.027  0.2889  0.1075  0.4745
14872TIP3    H166031   6.556   6.065   2.114  0.0684  0.6576  0.2192
14872TIP3    H266032   6.645   6.098   1.996  0.7272 -0.3544  0.4282
14873TIP3   OH266033   1.671   6.399  15.321 -0.5931  0.0787  0.4510
14873TIP3    H166034   1.714   6.474  15.362 -0.4869 -0.6494  1.7261
14873TIP3    H266035   1.685   6.327  15.383 -3.1158 -0.3203  0.6320
14874TIP3   OH266036   4.677   5.617   0.553 -0.2912  0.4520  0.4844
14874TIP3    H166037   4.740   5.628   0.624 -0.0637 -0.0203  0.3586
14874TIP3    H266038   4.601   5.668   0.581 -0.8665 -1.1296  1.8857
14875TIP3   OH266039   1.234   3.506   0.032 -0.0533 -0.1063  0.3547
14875TIP3    H166040   1.266   3.511  -0.058  2.6599 -0.4666  1.2533
14875TIP3    H266041   1.148   3.463   0.025  0.0277  0.0708 -2.0582
14876TIP3   OH266042   6.219   3.190   3.332  0.4037 -0.2267  0.5280
14876TIP3    H166043   6.171   3.113   3.299 -0.0570  0.2123  0.1694
14876TIP3    H266044   6.293   3.200   3.271 -0.0859  0.1993  0.0026
14877TIP3   OH266045   1.077   0.905   2.920  0.7817  0.1050 -0.0315
14877TIP3    H166046   0.990   0.913   2.880  0.3210  0.6302  1.0566
14877TIP3    H266047   1.080   0.976   2.984  2.1747  0.3416 -0.3385
14878TIP3   OH266048   1.710   6.635   2.905  0.1803  0.7525  0.2925
14878TIP3    H166049   1.772   6.687   2.853  1.7620  0.3178  1.7021
14878TIP3    H266050   1.687   6.692   2.978  0.3563  0.2310  0.7567
14879TIP3   OH266051   1.490   2.038   5.121  0.1925 -0.8532 -0.1341
14879TIP3    H166052   1.446   2.070   5.199  0.8841  1.0320 -0.4781
14879TIP3    H266053   1.559   1.981   5.154  3.1642  3.0967  0.9955
14880TIP3   OH266054   4.280   1.575   2.691  0.4737  0.0482  0.0558
14880TIP3    H166055   4.356   1.568   2.749  0.1725 -0.2314  0.4166
14880TIP3    H266056   4.268   1.669   2.679  0.7456  0.0990  0.1762
14881TIP3   OH266057   1.007   5.747   2.005  0.2578 -0.6690  0.3791
14881TIP3    H166058   0.923   5.782   2.033 -0.1380 -1.1098 -0.2420
14881TIP3    H266059   1.071   5.785   2.065 -0.1276  1.3342 -0.4428
14882TIP3   OH266060   3.434   4.565   1.991 -0.1209  1.2767 -0.1686
14882TIP3    H166061   3.442   4.475   2.020 -0.4540  1.1736 -0.3972
14882TIP3    H266062   3.377   4.561   1.914  0.3569  1.6080 -0.5454
14883TIP3   OH266063   6.471   6.095  14.053  0.1675  0.3107 -0.9743
14883TIP3    H166064   6.545   6.083  13.993  0.8910 -0.7636  0.1099
14883TIP3    H266065   6.400   6.127  13.997  0.2548 -2.4507 -2.7876
14884TIP3   OH266066   5.498   4.925  11.650 -0.0334  0.4604 -0.5465
14884TIP3    H166067   5.431   4.913  11.717  1.0250  1.3638  0.7248
14884TIP3    H266068   5.455   4.902  11.568 -1.0965 -1.5589  0.5347
14885TIP3   OH266069   4.100   3.259   6.537  0.1488 -0.1146  0.0041
14885TIP3    H166070   4.191   3.290   6.532 -0.0083  0.2450 -0.7780
14885TIP3    H266071   4.048   3.338   6.549 -0.1183 -0.2439 -0.2911
14886TIP3   OH266072   6.094   5.487  14.056 -0.0573 -0.2545  0.2625
14886TIP3    H166073   6.032   5.560  14.060 -1.5684 -1.4816 -0.0098
14886TIP3    H266074   6.161   5.508  14.121 -0.6431  1.2078  0.4129
14887TIP3   OH266075   5.538   2.858  13.297 -0.0529  0.1232  0.4630
14887TIP3    H166076   5.492   2.865  13.213 -1.1867  2.0370  1.1970
14887TIP3    H266077   5.498   2.782  13.340 -1.5133  0.8639  0.4559
14888TIP3   OH266078   3.895   2.238   6.335 -0.0339  0.2433  0.3662
14888TIP3    H166079   3.890   2.166   6.273 -2.2424  1.0200 -0.4328
14888TIP3    H266080   3.848   2.206   6.412 -0.8344  0.7100  0.0872
14889TIP3   OH266081   2.136   4.179   3.511 -0.1587  0.1102  0.3314
14889TIP3    H166082   2.183   4.212   3.587  1.5659 -1.3523 -0.0773
14889TIP3    H266083   2.184   4.212   3.435 -0.2719 -0.7087 -0.1034
14890TIP3   OH266084   4.440   5.514  16.186 -0.4608 -0.1508  0.1291
14890TIP3    H166085   4.388   5.437  16.164 -1.7292  0.1843  1.8326
14890TIP3    H266086   4.416   5.534  16.277  1.9467  0.5902  0.6491
14891TIP3   OH266087   3.002   5.787   2.968  0.0377  0.3674 -0.2825
14891TIP3    H166088   3.028   5.850   2.901  0.5735 -0.0343 -0.4601
14891TIP3    H266089   3.051   5.813   3.045  1.1456 -0.5128 -0.6739
14892TIP3   OH266090   0.680   6.747   2.973 -0.4964  0.5792 -0.3697
14892TIP3    H166091   0.711   6.661   2.946 -1.0640  0.1953  0.1959
14892TIP3    H266092   0.697   6.750   3.067  1.7645  2.0269 -0.7651
14893TIP3   OH266093   1.573   0.473  14.608 -0.3834 -0.1536 -0.0505
14893TIP3    H166094   1.640   0.505  14.548 -1.2080 -0.0750 -0.9536
14893TIP3    H266095   1.578   0.530  14.684 -1.4691  1.8008 -1.4015
14894TIP3   OH266096   4.804   3.604  12.042 -0.0240 -0.1951  0.1852
14894TIP3    H166097   4.751   3.624  12.119  1.7848  0.5089  1.2778
14894TIP3    H266098   4.826   3.689  12.005  0.6452 -0.4687 -0.0564
14895TIP3   OH266099   6.207   2.958  11.808 -0.2145 -0.4837  0.2574
14895TIP3    H166100   6.224   3.016  11.883 -1.3429  0.6288 -0.3352
14895TIP3    H266101   6.155   3.012  11.748 -0.5212 -1.8386 -0.6947
14896TIP3   OH266102   4.139   2.330   6.444 -0.0141 -0.5889  0.2959
14896TIP3    H166103   4.075   2.278   6.395  0.6715 -1.8946  0.7828
14896TIP3    H266104   4.154   2.407   6.389 -2.5440  0.0892  0.5108
14897TIP3   OH266105   4.808   0.626  14.778  0.1567 -0.1541  0.3183
14897TIP3    H166106   4.806   0.559  14.846 -2.0533 -0.7517 -0.3007
14897TIP3    H266107   4.846   0.582  14.702 -0.9029 -0.6053  0.0390
14898TIP3   OH266108   5.283   5.081  14.776 -0.3105  0.1277 -0.5034
14898TIP3    H166109   5.212   5.067  14.838  0.5359 -0.6744  0.3194
14898TIP3    H266110   5.260   5.027  14.700 -0.2341 -0.7016  0.0538
14899TIP3   OH266111   2.065   0.380   1.742  0.1620  0.3053 -0.5105
14899TIP3    H166112   2.003   0.399   1.672  1.0815 -0.7457 -1.6451
14899TIP3    H266113   2.066   0.284   1.748 -0.5283  0.4040  1.5233
14900TIP3   OH266114   1.267   2.043  11.228  0.2046  0.6338 -0.3195
14900TIP3    H166115   1.222   2.067  11.308  1.8286  1.3737  0.3916
14900TIP3    H266116   1.289   1.950  11.240  1.6930  1.1089  0.7054
14901TIP3   OH266117   5.497   4.614  11.884  0.1086 -0.0267  0.6540
14901TIP3    H166118   5.473   4.522  11.897  2.2064 -0.9675 -1.8125
14901TIP3    H266119   5.592   4.614  11.876  0.1066  2.3156  0.1458
14902TIP3   OH266120   5.496   1.746   2.016 -0.1453  0.2389 -0.3986
14902TIP3    H166121   5.526   1.802   2.088 -1.2445 -1.6056  1.5176
14902TIP3    H266122   5.400   1.748   2.022 -0.2224 -0.6832 -1.2460
14903TIP3   OH266123   2.240   5.029  16.387 -0.1258 -0.4770  0.7688
14903TIP3    H166124   2.238   5.098  16.321 -1.9095 -1.1743  0.0794
14903TIP3    H266125   2.284   5.069  16.462  0.1015  0.9629 -0.1144
14904TIP3   OH266126   5.644   2.889   0.254 -0.2405  0.4981  0.1546
14904TIP3    H166127   5.550   2.904   0.254 -0.4521 -0.7694 -0.2229
14904TIP3    H266128   5.660   2.833   0.178  0.7170  0.1341  0.6136
14905TIP3   OH266129   6.311   3.721  15.918  0.1639  0.3129  0.2966
14905TIP3    H166130   6.376   3.791  15.918  0.6077 -0.0921  0.6795
14905TIP3    H266131   6.232   3.762  15.953 -0.3476  1.2942 -1.9718
14906TIP3   OH266132   0.566   5.585  14.572 -0.0915 -0.5092 -0.1155
14906TIP3    H166133   0.512   5.508  14.559 -1.6544 -0.1445  3.7180
14906TIP3    H266134   0.509   5.659  14.553  0.9478 -0.1940 -2.2189
14907TIP3   OH266135   0.988   5.261   1.717 -0.2367 -0.3054  0.0417
14907TIP3    H166136   0.966   5.354   1.714  0.3603 -0.1568  0.2709
14907TIP3    H266137   0.961   5.233   1.804 -0.7157 -0.4254 -0.1415
14908TIP3   OH266138   0.131   1.883   4.172 -0.2935 -0.2373 -0.1037
14908TIP3    H166139   0.153   1.847   4.258 -0.7927  0.2224  0.2183
14908TIP3    H266140   0.180   1.828   4.110  1.5509  0.6094  0.5678
14909TIP3   OH266141   4.193   5.388  11.189  0.0987  0.4242  0.1147
14909TIP3    H166142   4.162   5.424  11.106 -0.8057  2.7107  1.3917
14909TIP3    H266143   4.133   5.316  11.207  0.3052 -0.0876 -1.2086
14910TIP3   OH266144   2.627   3.121   0.439  0.5630 -0.1984 -0.4668
14910TIP3    H166145   2.677   3.091   0.515 -0.3069  1.7670  0.9483
14910TIP3    H266146   2.631   3.217   0.445 -1.4476 -0.0260 -1.6035
14911TIP3   OH266147   3.974   2.710  11.921 -0.2073  0.3120 -0.3213
14911TIP3    H166148   4.054   2.737  11.877 -0.7912  2.6821  0.0179
14911TIP3    H266149   3.921   2.790  11.927 -1.4474 -0.6345  1.8853
14912TIP3   OH266150   2.880   4.941   2.246  0.6413  0.8512  0.1136
14912TIP3    H166151   2.891   4.980   2.333  1.6212  2.8230 -0.8559
14912TIP3    H266152   2.967   4.943   2.208  0.1387  0.3936 -1.0791
14913TIP3   OH266153   6.214   1.512   3.423 -0.0408  0.0471 -0.2380
14913TIP3    H166154   6.289   1.560   3.387  2.2692 -2.0040  1.7162
14913TIP3    H266155   6.218   1.426   3.381 -1.0448 -0.2324  0.2254
14914TIP3   OH266156   6.554   4.604   4.640  0.4032  0.2456 -0.2726
14914TIP3    H166157   6.490   4.594   4.710 -1.3451  0.2053 -1.8397
14914TIP3    H266158   6.639   4.598   4.684 -0.6476 -1.2763  1.6299
14915TIP3   OH266159   2.846   3.795   3.694 -0.6152 -0.4086  0.5703
14915TIP3    H166160   2.931   3.818   3.658 -0.4505 -0.2936  1.0240
14915TIP3    H266161   2.836   3.702   3.673  0.2206 -0.7638  1.6672
14916TIP3   OH266162   1.339   1.267   4.428 -0.0362  0.3321 -0.0573
14916TIP3    H166163   1.313   1.357   4.448  0.9826  0.2370  1.8592
14916TIP3    H266164   1.264   1.213   4.456  1.2134  0.2367  3.3494
14917TIP3   OH266165   4.946   2.458   1.210 -0.1067 -0.2543  0.3581
14917TIP3    H166166   4.855   2.455   1.182 -0.1006 -0.5085  0.3691
14917TIP3    H266167   4.995   2.418   1.139  0.1498  1.1841 -0.2988
14918TIP3   OH266168   3.579   2.517  12.080  0.2979 -0.3782 -0.4661
14918TIP3    H166169   3.522   2.460  12.029  1.6565 -0.1120 -2.3349
14918TIP3    H266170   3.529   2.598  12.091 -0.4806 -0.8780 -0.3669
14919TIP3   OH266171   5.391   0.358  11.338 -0.0539  0.2121 -0.0075
14919TIP3    H166172   5.342   0.418  11.281 -0.5617  0.6156  0.8609
14919TIP3    H266173   5.482   0.387  11.329  0.0748 -0.6135 -1.7073
14920TIP3   OH266174   3.931   2.558  14.476  0.1226 -0.5303 -0.3162
14920TIP3    H166175   3.962   2.613  14.548  0.2268 -0.6086 -0.3014
14920TIP3    H266176   4.002   2.562  14.411  0.0700 -0.5360 -0.3736
14921TIP3   OH266177   6.398   0.127   3.486  0.1834 -0.1589 -0.4452
14921TIP3    H166178   6.469   0.156   3.543  2.0976 -0.2600 -2.7040
14921TIP3    H266179   6.426   0.041   3.455 -1.1227 -0.3873 -1.0055
14922TIP3   OH266180   3.681   0.573  14.168 -0.3197  0.0467  0.1155
14922TIP3    H166181   3.667   0.602  14.258 -0.8144 -1.7669  0.6359
14922TIP3    H266182   3.601   0.524  14.146  0.2869 -0.4986 -0.9189
14923TIP3   OH266183   0.599   0.506  12.098  0.1893  0.1791 -0.0837
14923TIP3    H166184   0.547   0.433  12.063 -1.2394  0.0024  2.3193
14923TIP3    H266185   0.650   0.537  12.023 -2.5354 -0.3792 -2.2457
14924TIP3   OH266186   5.397   2.221   5.061 -0.7933 -0.1335  0.4034
14924TIP3    H166187   5.376   2.251   5.150  0.2115 -0.6827  0.8267
14924TIP3    H266188   5.491   2.237   5.052 -1.2727  1.9361 -1.3415
14925TIP3   OH266189   2.735   1.487  13.198  0.4998 -0.3012  0.5291
14925TIP3    H166190   2.795   1.424  13.238 -0.6351 -0.5817  1.8413
14925TIP3    H266191   2.664   1.433  13.163  0.8342  0.0569 -0.7514
14926TIP3   OH266192   4.038   4.311   3.668  0.3592 -0.0925  0.2526
14926TIP3    H166193   3.979   4.247   3.630 -2.4992  2.2125  0.6860
14926TIP3    H266194   4.038   4.291   3.762 -0.3006  0.3438  0.3477
14927TIP3   OH266195   2.699   5.163  13.837 -0.3940 -0.0029  0.1526
14927TIP3    H166196   2.778   5.215  13.852 -0.7769  0.4051  0.7940
14927TIP3    H266197   2.702   5.095  13.904 -0.1201 -0.5437 -0.4075
14928TIP3   OH266198   0.678   1.687   0.917 -0.1905 -0.3146  0.6994
14928TIP3    H166199   0.698   1.735   0.837 -0.3237  1.9305  1.9729
14928TIP3    H266200   0.584   1.674   0.915 -0.1639 -0.4690  0.3890
14929TIP3   OH266201   2.031   5.520  14.870 -0.1437  0.2892  0.7833
14929TIP3    H166202   2.096   5.451  14.888 -1.4209 -1.1287  0.0815
14929TIP3    H266203   2.079   5.584  14.818  0.2006 -1.7590 -1.5459
14930TIP3   OH266204   2.235   4.270  15.894  0.6498 -0.0496 -0.3035
14930TIP3    H166205   2.257   4.239  15.806  0.8961  0.8272 -0.5551
14930TIP3    H266206   2.140   4.268  15.897  0.6478 -0.3136 -0.5073
14931TIP3   OH266207   5.246   2.407   6.532  0.1072  0.4375 -0.0655
14931TIP3    H166208   5.186   2.361   6.591 -0.3940  1.4498  0.2218
14931TIP3    H266209   5.204   2.491   6.515  1.1669  0.9294 -0.3266
14932TIP3   OH266210   4.737   5.768  14.899  0.3047 -0.7480 -0.2942
14932TIP3    H166211   4.698   5.854  14.913  3.6538  0.5457  1.4700
14932TIP3    H266212   4.662   5.709  14.893 -1.9956  1.9960  0.2721
14933TIP3   OH266213   0.203   0.246   0.320  0.4082  0.4591  0.3105
14933TIP3    H166214   0.223   0.278   0.408  1.3006 -0.1408  0.3259
14933TIP3    H266215   0.288   0.236   0.278  0.1306 -1.6954  0.2301
14934TIP3   OH266216   3.882   3.426  12.987 -0.3066  0.5820  0.1952
14934TIP3    H166217   3.895   3.410  13.080  0.0279  2.2270  0.4558
14934TIP3    H266218   3.809   3.370  12.963  0.8765 -1.3408  0.9871
14935TIP3   OH266219   3.301   0.812  13.414  0.7429 -0.4132 -0.5424
14935TIP3    H166220   3.396   0.804  13.419  0.8812  1.1979 -0.3390
14935TIP3    H266221   3.278   0.769  13.331  1.9046  1.2267 -1.7464
14936TIP3   OH266222   1.271   0.670   3.378  0.3381 -0.4370  0.0051
14936TIP3    H166223   1.347   0.728   3.373  0.6964 -0.9025 -0.0468
14936TIP3    H266224   1.247   0.655   3.287 -0.3790  0.4295  0.0439
14937TIP3   OH266225   6.785   5.765   3.260 -0.0188  0.3472 -0.4326
14937TIP3    H166226   6.727   5.823   3.309  0.0338 -0.3920  0.5190
14937TIP3    H266227   6.869   5.771   3.304  0.2344  0.2527 -0.8936
14938TIP3   OH266228   5.971   3.540  12.831 -0.2162 -0.3477 -0.3749
14938TIP3    H166229   5.930   3.483  12.766 -2.3438 -0.9173  1.3935
14938TIP3    H266230   5.918   3.528  12.910  1.8869  0.8399  1.2736
14939TIP3   OH266231   6.543   2.853  11.330  0.3314  0.4996  0.6400
14939TIP3    H166232   6.451   2.839  11.351  0.3670 -0.3611  0.2637
14939TIP3    H266233   6.549   2.833  11.236  0.7464  1.3500  0.4783
14940TIP3   OH266234   2.499   2.483  13.508  0.2601 -0.5705  0.3610
14940TIP3    H166235   2.587   2.490  13.543  0.3914  0.1273 -0.0973
14940TIP3    H266236   2.509   2.434  13.426  0.3448  0.3051 -0.1508
14941TIP3   OH266237   4.092   0.237   1.700  0.0982 -0.4668 -0.0068
14941TIP3    H166238   4.160   0.283   1.651  0.7936 -1.7425 -0.2644
14941TIP3    H266239   4.051   0.179   1.636 -1.6917  0.7630 -0.0074
14942TIP3   OH266240   5.809   3.364  17.187 -0.4095  0.3621 -0.3913
14942TIP3    H166241   5.751   3.306  17.237  1.9212 -0.8027  1.0312
14942TIP3    H266242   5.768   3.369  17.100 -1.6116 -2.0087 -0.0075
14943TIP3   OH266243   4.261   3.424  13.854 -0.8764 -0.2202 -0.6421
14943TIP3    H166244   4.210   3.443  13.932  0.7156 -2.0592  0.9182
14943TIP3    H266245   4.211   3.356  13.808 -0.5386 -1.0112  0.1501
14944TIP3   OH266246   1.233   3.989  14.293  0.0181 -0.2592  0.1057
14944TIP3    H166247   1.238   3.906  14.246  0.0448 -1.0465  1.5028
14944TIP3    H266248   1.230   3.965  14.385 -1.2111  1.2462  0.4782
14945TIP3   OH266249   6.474   3.645  14.801 -0.0611  0.2909 -0.2155
14945TIP3    H166250   6.511   3.639  14.890  0.6763  0.6649 -0.4895
14945TIP3    H266251   6.381   3.662  14.815  0.4045  2.5168  0.5150
14946TIP3   OH266252   1.082   6.350   2.374  0.0714  0.2931 -0.0111
14946TIP3    H166253   1.121   6.365   2.288  0.1272 -1.0037 -0.2208
14946TIP3    H266254   1.120   6.418   2.430  0.4762  0.7823 -0.8703
14947TIP3   OH266255   3.825   2.094  10.928  0.1069 -0.2586 -0.0985
14947TIP3    H166256   3.811   2.174  10.878  0.1452 -1.2912 -1.7791
14947TIP3    H266257   3.794   2.116  11.016  1.5872  2.0838 -0.1303
14948TIP3   OH266258   0.717   0.224  16.608 -0.9574 -0.1506 -0.2173
14948TIP3    H166259   0.674   0.139  16.602 -1.0441 -0.0864 -0.5252
14948TIP3    H266260   0.811   0.204  16.607 -0.9711 -0.3321  1.0455
14949TIP3   OH266261   1.181   0.455   5.599  0.2575  0.1338 -0.6134
14949TIP3    H166262   1.141   0.475   5.514  0.6570  0.6571 -0.6853
14949TIP3    H266263   1.227   0.372   5.585  1.2927  0.7949 -1.2547
14950TIP3   OH266264   2.475   4.249   3.087  0.4877  0.0444  0.1460
14950TIP3    H166265   2.428   4.170   3.061 -1.2511  0.7196  1.2004
14950TIP3    H266266   2.502   4.290   3.005 -0.3886 -0.5804 -0.4496
14951TIP3   OH266267   6.688   1.501  16.553 -0.0476  0.1513 -0.6781
14951TIP3    H166268   6.605   1.494  16.600 -0.1270  0.1305 -0.8181
14951TIP3    H266269   6.755   1.502  16.621 -0.1460 -0.1306 -0.5773
14952TIP3   OH266270   0.614   3.809   1.240  0.4998  0.0693  0.4367
14952TIP3    H166271   0.635   3.895   1.275  3.2026 -1.5913  3.2125
14952TIP3    H266272   0.682   3.792   1.175  0.4065 -0.2702  0.4266
14953TIP3   OH266273   0.804   1.994  10.754 -0.3775 -0.2854  0.4724
14953TIP3    H166274   0.802   2.041  10.670  1.4682 -0.3570  0.3690
14953TIP3    H266275   0.813   2.063  10.820 -0.3380 -0.3228  0.5057
14954TIP3   OH266276   4.105   0.143   4.421  0.5876  0.0576  0.3000
14954TIP3    H166277   4.200   0.130   4.427  0.7116  1.1503  0.8305
14954TIP3    H266278   4.069   0.094   4.495  0.7985  0.2419  0.5247
14955TIP3   OH266279   4.209   5.209   2.106 -0.0575  0.2872  0.2700
14955TIP3    H166280   4.255   5.234   2.026  0.3398 -0.9262  0.1240
14955TIP3    H266281   4.169   5.125   2.087  0.1410 -0.0717  1.3948
14956TIP3   OH266282   3.822   5.036  13.603  0.6338 -0.3085 -0.0056
14956TIP3    H166283   3.868   5.050  13.520 -0.6267 -0.0659 -0.6675
14956TIP3    H266284   3.782   4.950  13.594  0.6045 -0.3389  0.4128
14957TIP3   OH266285   6.386   4.438  15.411 -0.1005 -0.6422 -0.2477
14957TIP3    H166286   6.297   4.473  15.418  0.0311 -0.6987  2.2584
14957TIP3    H266287   6.440   4.513  15.388 -0.5393 -0.1935  0.1703
14958TIP3   OH266288   1.344   6.008  17.038  0.2828 -0.1174  0.3118
14958TIP3    H166289   1.432   6.000  17.074  0.0112 -0.6905  0.8628
14958TIP3    H266290   1.334   6.101  17.018  1.1940 -0.1305 -0.2270
14959TIP3   OH266291   3.263   6.365  14.749  0.5976 -0.2883  0.2056
14959TIP3    H166292   3.194   6.408  14.800 -0.6671 -1.5772 -0.3794
14959TIP3    H266293   3.326   6.435  14.729 -1.9306  1.5619 -1.6227
14960TIP3   OH266294   3.390   5.773   3.723  0.0943 -0.1627  0.2070
14960TIP3    H166295   3.439   5.795   3.644 -0.8542  3.0440  0.4249
14960TIP3    H266296   3.407   5.680   3.738  1.9379 -0.3105 -2.5886
14961TIP3   OH266297   4.954   1.942  17.124 -0.0749  0.2371  0.3928
14961TIP3    H166298   4.971   1.869  17.184 -0.7002 -0.1376  0.1201
14961TIP3    H266299   4.916   2.010  17.179  0.0464  0.1699  0.5585
14962TIP3   OH266300   4.295   2.762   3.027 -0.0264 -0.4823  0.4138
14962TIP3    H166301   4.304   2.837   2.968 -0.7846 -0.3795  0.4134
14962TIP3    H266302   4.200   2.756   3.042  0.2216  0.0361  2.3118
14963TIP3   OH266303   6.027   5.590   3.246  0.0155 -0.1129 -0.8641
14963TIP3    H166304   5.951   5.540   3.275 -0.3232  0.5501 -0.6014
14963TIP3    H266305   6.014   5.600   3.152 -0.7017  0.7972 -0.6763
14964TIP3   OH266306   4.323   0.760  12.615 -0.0435 -0.4734 -0.1882
14964TIP3    H166307   4.253   0.804  12.663  0.0765 -0.1014 -0.3457
14964TIP3    H266308   4.359   0.696  12.676 -1.0306 -1.1987 -0.3670
14965TIP3   OH266309   3.023   0.440   3.941 -0.2248 -0.3628  0.2937
14965TIP3    H166310   3.012   0.346   3.956 -1.4167 -0.1676  0.6566
14965TIP3    H266311   2.952   0.463   3.882  1.1606 -0.0408 -1.2768
14966TIP3   OH266312   3.537   6.062  13.448 -0.4299 -0.3696  0.0904
14966TIP3    H166313   3.613   6.027  13.495 -0.4885 -1.1376 -0.3748
14966TIP3    H266314   3.562   6.057  13.356 -1.3694 -1.4555 -0.1256
14967TIP3   OH266315   3.603   3.432  13.325  0.3581  0.1539 -0.4073
14967TIP3    H166316   3.642   3.486  13.255  0.2362 -0.1716 -0.7289
14967TIP3    H266317   3.636   3.344  13.308  2.5775  0.5447  1.5817
14968TIP3   OH266318   1.030   4.052  16.062  0.0993  0.0366  0.4387
14968TIP3    H166319   0.945   4.083  16.030 -0.5201 -1.4708  0.5850
14968TIP3    H266320   1.060   3.991  15.994  0.8449  0.1864  0.6267
14969TIP3   OH266321   2.787   4.010  17.202 -0.5168 -0.1313  0.1258
14969TIP3    H166322   2.710   4.004  17.146  0.4359 -0.6915 -1.1651
14969TIP3    H266323   2.759   3.973  17.286 -1.8130  0.2278 -0.1371
14970TIP3   OH266324   3.980   4.321   0.568 -0.3547 -0.2004  0.1504
14970TIP3    H166325   4.062   4.366   0.586 -0.3926 -0.6545  1.4584
14970TIP3    H266326   3.991   4.286   0.479  0.5597  0.4089  0.0248
14971TIP3   OH266327   0.227   6.093  13.837  0.1253 -0.1482 -0.0721
14971TIP3    H166328   0.212   6.166  13.897 -4.9748 -2.5715  1.8771
14971TIP3    H266329   0.287   6.035  13.884 -1.5701 -0.6495  1.5098
14972TIP3   OH266330   2.972   5.237  16.827 -0.4367  0.0500 -0.2174
14972TIP3    H166331   2.914   5.188  16.885 -2.1775  1.3648 -0.8286
14972TIP3    H266332   2.931   5.323  16.817  0.8954  0.5428 -1.7500
14973TIP3   OH266333   3.585   3.775  14.856 -0.1043 -0.6499  0.1621
14973TIP3    H166334   3.494   3.749  14.871 -0.3220  0.9475  1.7817
14973TIP3    H266335   3.578   3.862  14.816  0.6948 -0.7204 -0.1265
14974TIP3   OH266336   0.100   0.154  12.127  0.2959 -0.6927  0.0238
14974TIP3    H166337   0.089   0.076  12.180 -1.8790 -0.2484  0.2550
14974TIP3    H266338   0.114   0.225  12.190  0.8478 -0.6587 -0.1315
14975TIP3   OH266339   3.019   1.517   1.893 -0.0613 -0.3648 -0.2339
14975TIP3    H166340   3.034   1.491   1.802  0.3826 -1.2607  0.0950
14975TIP3    H266341   2.950   1.458   1.924  0.9810 -1.2005  0.5258
14976TIP3   OH266342   4.733   0.149  16.398  0.3403 -0.1225 -0.0834
14976TIP3    H166343   4.675   0.205  16.347 -0.7302  0.5940  1.8471
14976TIP3    H266344   4.676   0.079  16.430  1.1214 -0.8886 -0.3687
14977TIP3   OH266345   5.085   5.659   6.187  0.4006 -0.5357 -0.3312
14977TIP3    H166346   5.113   5.663   6.279  1.2928 -2.1038 -0.5174
14977TIP3    H266347   5.098   5.567   6.162 -0.8504 -0.3497 -1.7100
14978TIP3   OH266348   4.352   2.438  15.451  0.4060 -0.1524  0.2804
14978TIP3    H166349   4.344   2.459  15.357  0.8684 -0.8534  0.0824
14978TIP3    H266350   4.358   2.524  15.493  1.4867  0.1614 -0.4604
14979TIP3   OH266351   2.526   2.402   0.232  0.3727  0.7436 -0.1211
14979TIP3    H166352   2.484   2.328   0.188 -1.4376  1.8728 -0.2982
14979TIP3    H266353   2.508   2.387   0.325  0.5229  0.6462 -0.1073
14980TIP3   OH266354   0.304   5.289   3.074 -0.3622 -0.6066  0.2751
14980TIP3    H166355   0.231   5.351   3.078  0.2564  0.2086 -0.7726
14980TIP3    H266356   0.365   5.319   3.142 -0.0622 -0.0663 -0.2335
14981TIP3   OH266357   3.138   6.335   0.730  0.0031 -0.2978  0.0505
14981TIP3    H166358   3.176   6.350   0.644 -4.1754 -1.2359 -2.0697
14981TIP3    H266359   3.158   6.415   0.779  1.0272  0.9476 -2.3184
14982TIP3   OH266360   4.523   2.672   3.655 -0.3839 -0.6445 -0.2839
14982TIP3    H166361   4.430   2.658   3.637 -0.4453 -1.6359  0.7586
14982TIP3    H266362   4.558   2.705   3.572 -1.4452 -1.2834 -1.0067
14983TIP3   OH266363   4.562   1.726   1.673  0.1378 -0.1377  0.6583
14983TIP3    H166364   4.553   1.631   1.683  1.3284 -0.3023  0.3080
14983TIP3    H266365   4.654   1.738   1.650 -0.2257  1.0320 -0.1798
14984TIP3   OH266366   2.124   0.004  12.357  0.0049 -0.0064  0.1000
14984TIP3    H166367   2.103   0.097  12.371  0.3654  0.2537 -1.0463
14984TIP3    H266368   2.218  -0.002  12.373  0.2050  0.0683 -1.0105
14985TIP3   OH266369   2.957   5.361  14.685  0.1511 -0.1272  0.1593
14985TIP3    H166370   2.913   5.392  14.765 -0.8285 -2.8794  0.7447
14985TIP3    H266371   2.940   5.430  14.620  0.2630  1.7615  2.0840
14986TIP3   OH266372   5.184   4.881  12.872 -0.5211  0.5435 -0.0336
14986TIP3    H166373   5.235   4.949  12.828  0.5538  0.3340  0.8413
14986TIP3    H266374   5.232   4.800  12.854 -1.5510  0.0748 -0.7042
14987TIP3   OH266375   6.632   1.546   5.158 -0.2641 -0.0301 -0.7212
14987TIP3    H166376   6.566   1.614   5.169  1.2361  1.0310  2.3847
14987TIP3    H266377   6.705   1.590   5.114  0.4209  0.2291  0.6379
14988TIP3   OH266378   6.233   3.702  14.893  0.0243  0.0676  0.6045
14988TIP3    H166379   6.237   3.699  14.988 -1.3224  1.2079  0.7046
14988TIP3    H266380   6.147   3.740  14.873  1.6453  3.0494 -1.0162
14989TIP3   OH266381   3.568   5.327   0.009  0.0676 -0.1824  0.2580
14989TIP3    H166382   3.652   5.284   0.022  0.3429 -0.0382 -0.9963
14989TIP3    H266383   3.554   5.377   0.089  1.5966  0.5139  0.0955
14990TIP3   OH266384   5.797   3.521  11.606 -0.4059 -0.3621 -0.3264
14990TIP3    H166385   5.750   3.470  11.541 -0.8047 -0.2628 -0.1148
14990TIP3    H266386   5.875   3.552  11.560 -1.3549  0.8388 -1.1717
14991TIP3   OH266387   5.522   5.795   0.114 -0.0965  0.4372 -0.3801
14991TIP3    H166388   5.601   5.816   0.164 -2.0624 -0.0975  3.0848
14991TIP3    H266389   5.538   5.707   0.080  1.0656  0.6045 -0.2812
14992TIP3   OH266390   1.632   3.038   2.763  0.2351  0.1327  0.7348
14992TIP3    H166391   1.573   3.031   2.838 -0.2041  1.0537  0.4913
14992TIP3    H266392   1.700   3.100   2.791 -0.0535  0.6532  0.3063
14993TIP3   OH266393   6.113   1.001  16.633  0.6286 -0.1945  0.6234
14993TIP3    H166394   6.144   1.043  16.553  1.6393 -0.5979  0.8084
14993TIP3    H266395   6.035   0.952  16.605  0.5172  0.2937  0.0495
14994TIP3   OH266396   2.033   4.993  15.409 -0.9412 -0.5141 -0.0981
14994TIP3    H166397   1.953   5.034  15.441 -1.9560 -0.9418 -1.9742
14994TIP3    H266398   2.085   5.065  15.373 -1.1985 -0.4270 -0.3002
14995TIP3   OH266399   6.667   2.110  16.777  0.1335  0.0607  0.5235
14995TIP3    H166400   6.696   2.063  16.699 -1.7736  1.3309 -1.0030
14995TIP3    H266401   6.598   2.055  16.814  0.8378 -0.3989  1.1787
14996TIP3   OH266402   6.620   0.624   2.227 -0.2110  0.4882 -0.0466
14996TIP3    H166403   6.684   0.665   2.169 -1.2697  0.0832 -1.5403
14996TIP3    H266404   6.579   0.556   2.174 -0.3989 -0.6724  1.5455
14997TIP3   OH266405   2.258   4.197  15.609  0.1099  0.2850 -0.0360
14997TIP3    H166406   2.187   4.159  15.558  0.3849  0.7567 -0.7821
14997TIP3    H266407   2.272   4.284  15.570  2.2953 -0.4956 -1.0692
14998TIP3   OH266408   2.739   3.997   1.904  0.0729  0.3353  0.2103
14998TIP3    H166409   2.763   4.019   1.814  0.7399 -1.8876 -0.1828
14998TIP3    H266410   2.645   4.013   1.908 -0.2234 -0.8696 -1.3193
14999TIP3   OH266411   6.071   0.749   6.033  0.4986 -0.6239 -0.3359
14999TIP3    H166412   6.072   0.834   6.076  0.4016 -0.8882  0.2015
14999TIP3    H266413   6.057   0.768   5.940 -1.1963 -0.1392 -0.0024
15000TIP3   OH266414   3.655   5.488   6.155 -0.5318 -0.5565  0.1670
15000TIP3    H166415   3.570   5.475   6.114 -0.2314  0.5141 -0.8222
15000TIP3    H266416   3.683   5.400   6.180 -0.9777 -1.1770 -1.4281
15001TIP3   OH266417   1.551   1.631   0.473 -0.4424  0.5113 -0.3416
15001TIP3    H166418   1.547   1.720   0.439  0.6531  0.4145 -0.7216
15001TIP3    H266419   1.587   1.579   0.402  1.1768  0.1888  0.6898
15002TIP3   OH266420   3.168   5.462  16.934  0.0610  0.1393 -0.2397
15002TIP3    H166421   3.215   5.411  17.000 -1.6364 -1.7086 -0.3994
15002TIP3    H266422   3.105   5.400  16.896  0.4843  1.3669 -3.0736
15003TIP3   OH266423   2.864   5.762  14.705  0.2770 -0.1044 -0.3383
15003TIP3    H166424   2.927   5.750  14.777 -0.1601  2.1251  0.4545
15003TIP3    H266425   2.831   5.850  14.717 -1.5990 -0.5680 -1.9011
15004TIP3   OH266426   6.375   5.544  14.670  0.3575 -0.2856 -0.5939
15004TIP3    H166427   6.319   5.575  14.600 -2.6977 -2.4641  0.7791
15004TIP3    H266428   6.400   5.623  14.718 -1.3048  0.7649 -1.4356
15005TIP3   OH266429   4.818   0.071   5.742  0.1771 -0.4946  0.3143
15005TIP3    H166430   4.793   0.065   5.834  1.1512 -1.4497  0.5190
15005TIP3    H266431   4.868   0.153   5.736 -1.1153  0.3196  0.3255
15006TIP3   OH266432   5.847   2.274  14.939  0.2558  0.2103  0.1639
15006TIP3    H166433   5.880   2.186  14.921  2.4185  0.9000  0.5317
15006TIP3    H266434   5.866   2.324  14.860  0.1676  0.6457  0.4125
15007TIP3   OH266435   6.765   1.783   4.614  0.4369 -0.0245 -0.3998
15007TIP3    H166436   6.781   1.871   4.582  0.9700  0.6148  1.5605
15007TIP3    H266437   6.788   1.726   4.541  1.8187  1.3832 -1.0788
15008TIP3   OH266438   1.716   4.955  12.391  0.3196  0.4832 -0.2635
15008TIP3    H166439   1.704   4.935  12.483  0.2925 -4.0931 -1.1288
15008TIP3    H266440   1.809   4.939  12.374  0.4121  1.6846 -0.9653
15009TIP3   OH266441   3.750   1.102  16.486  0.0757 -0.6031 -0.1461
15009TIP3    H166442   3.703   1.182  16.461  0.9079  0.0112  0.2353
15009TIP3    H266443   3.692   1.059  16.549  0.4715  0.6625  1.0918
15010TIP3   OH266444   1.257   2.895   6.197 -0.0405  0.5032 -0.2331
15010TIP3    H166445   1.181   2.926   6.245 -0.3149  1.8382 -1.5173
15010TIP3    H266446   1.230   2.896   6.106  1.2631  0.2414 -0.6299
15011TIP3   OH266447   5.391   6.381  14.897  0.1218 -0.0643  0.4215
15011TIP3    H166448   5.428   6.317  14.958  2.6658  0.7167 -0.2200
15011TIP3    H266449   5.345   6.443  14.953 -1.2746 -1.7209  1.1539
15012TIP3   OH266450   3.339   0.810  11.917 -0.1371 -0.3107  0.4912
15012TIP3    H166451   3.394   0.888  11.908  1.7982 -1.7518 -0.8565
15012TIP3    H266452   3.389   0.752  11.974 -0.2340 -1.6429 -0.7373
15013TIP3   OH266453   0.048   4.703   2.333 -0.6702 -0.7694 -0.1473
15013TIP3    H166454   0.060   4.795   2.311 -1.1878 -0.2977  1.5107
15013TIP3    H266455   0.006   4.666   2.255 -0.8680  0.4813 -0.6533
15014TIP3   OH266456   6.211   4.594  15.617 -0.7937  0.0840 -0.0272
15014TIP3    H166457   6.261   4.655  15.671 -0.1669  0.3367 -0.8930
15014TIP3    H266458   6.164   4.650  15.556 -1.4259 -0.2118  0.1791
15015TIP3   OH266459   4.073   0.256   0.516  0.3719 -0.3591  0.3149
15015TIP3    H166460   4.078   0.334   0.460 -0.5361 -1.2532 -1.0195
15015TIP3    H266461   4.134   0.194   0.477  2.2446  0.1971  2.2518
15016TIP3   OH266462   0.553   5.425   6.465 -0.1299  0.0736 -0.3880
15016TIP3    H166463   0.458   5.416   6.460 -0.2255 -0.3082  1.6397
15016TIP3    H266464   0.587   5.337   6.450 -0.1292  0.0445 -0.2098
15017TIP3   OH266465   4.263   3.429   3.083  0.1822 -0.3982  0.1400
15017TIP3    H166466   4.304   3.507   3.121  0.2208  0.1981 -1.0946
15017TIP3    H266467   4.316   3.410   3.006 -0.6936 -0.7757 -0.3778
15018TIP3   OH266468   5.507   0.742  14.710 -0.0014 -0.3495 -0.3620
15018TIP3    H166469   5.421   0.744  14.752  0.5959  1.3836  0.8747
15018TIP3    H266470   5.544   0.658  14.736 -0.3681 -0.0728  1.1515
15019TIP3   OH266471   0.196   1.512  16.578  0.5656 -0.8027 -0.0549
15019TIP3    H166472   0.180   1.605  16.563  0.0866 -0.5334  1.9671
15019TIP3    H266473   0.291   1.502  16.569  0.5090 -0.3068 -1.2231
15020TIP3   OH266474   6.280   2.851  12.439 -0.2016 -0.6515 -0.1516
15020TIP3    H166475   6.350   2.907  12.473 -0.5487  0.0207 -0.5375
15020TIP3    H266476   6.315   2.817  12.357  1.0993 -3.1911  1.3860
15021TIP3   OH266477   4.960   5.936  12.598 -0.1698  0.4522  0.2162
15021TIP3    H166478   4.992   5.971  12.515  0.3147  0.0128  0.2161
15021TIP3    H266479   4.949   5.842  12.582  0.4800  0.2707  0.8210
15022TIP3   OH266480   3.420   6.767   4.075  0.4749  0.5160  0.0202
15022TIP3    H166481   3.366   6.698   4.037  0.9619  0.0533  0.1599
15022TIP3    H266482   3.389   6.774   4.165  1.0141 -0.1324  0.2617
15023TIP3   OH266483   1.862   2.638  14.504 -0.2951 -0.2860  0.3140
15023TIP3    H166484   1.813   2.720  14.502  0.7768  0.3423 -0.8883
15023TIP3    H266485   1.944   2.660  14.548 -0.0099 -0.7222  0.0048
15024TIP3   OH266486   1.203   0.767  16.721 -0.2609  0.2929  0.0777
15024TIP3    H166487   1.167   0.847  16.760 -0.5321  0.6440 -0.8709
15024TIP3    H266488   1.236   0.717  16.795 -0.2106  1.2264  0.6956
15025TIP3   OH266489   4.515   6.553   5.154  0.0276  0.0371 -0.2440
15025TIP3    H166490   4.554   6.550   5.066 -0.1793 -0.9292 -0.3015
15025TIP3    H266491   4.477   6.641   5.160 -1.0231 -0.3191 -1.5758
15026TIP3   OH266492   6.373   5.996  15.869 -0.4123  0.4621 -0.2789
15026TIP3    H166493   6.438   6.050  15.825  0.3309  0.2408  0.5455
15026TIP3    H266494   6.422   5.947  15.935 -1.3764  0.1479  0.2198
15027TIP3   OH266495   2.105   4.375   3.240 -0.0594  0.2626  0.4493
15027TIP3    H166496   2.175   4.311   3.223  0.7338  1.1370  0.3419
15027TIP3    H266497   2.035   4.350   3.180  0.9116  0.5179 -0.8166
15028TIP3   OH266498   0.236   4.898  12.001 -0.2483  0.4078 -0.0034
15028TIP3    H166499   0.203   4.928  12.086 -1.1935  0.9435 -0.5493
15028TIP3    H266500   0.185   4.819  11.982  0.1099  0.1700  0.0178
15029TIP3   OH266501   5.680   4.908   4.625 -0.1283  0.0150 -0.2246
15029TIP3    H166502   5.741   4.957   4.680 -1.3351  1.3634 -0.0611
15029TIP3    H266503   5.597   4.954   4.634 -0.1331  0.8690 -3.9991
15030TIP3   OH266504   5.174   3.702  16.332 -0.3886  0.0266  0.2784
15030TIP3    H166505   5.103   3.690  16.395 -1.4387  2.0936 -0.4400
15030TIP3    H266506   5.131   3.700  16.246  0.1924  2.4463 -0.1240
15031TIP3   OH266507   5.303   6.418  16.901  0.4913 -0.6566 -0.5955
15031TIP3    H166508   5.230   6.357  16.911  0.9428 -1.1060 -0.0116
15031TIP3    H266509   5.263   6.498  16.867 -0.4626 -0.4719  0.9090
15032TIP3   OH266510   3.058   6.499  10.783 -0.2099 -0.0732 -0.2638
15032TIP3    H166511   3.003   6.577  10.788 -1.2424 -0.7969 -0.2805
15032TIP3    H266512   3.065   6.480  10.689  1.2757  0.8581 -0.3598
15033TIP3   OH266513   3.107   0.010   5.138  0.4362 -0.0268 -0.6015
15033TIP3    H166514   3.199   0.030   5.154  0.2512 -0.3160  0.9086
15033TIP3    H266515   3.081  -0.044   5.213 -1.0294  0.2697 -0.8831
15034TIP3   OH266516   3.053   0.346  11.977 -0.1893 -0.4364  0.1283
15034TIP3    H166517   2.999   0.305  12.045  0.6915 -1.5099  0.1923
15034TIP3    H266518   3.010   0.323  11.895  0.1712 -1.3370  0.1765
15035TIP3   OH266519   1.617   3.563  11.802 -0.8928 -0.3699  0.2187
15035TIP3    H166520   1.614   3.521  11.888 -0.5023 -1.3875 -0.2587
15035TIP3    H266521   1.537   3.616  11.798 -1.1710 -0.7290  0.9944
15036TIP3   OH266522   1.382   1.116  11.377 -0.0081  0.4720 -0.4629
15036TIP3    H166523   1.349   1.198  11.339 -0.5841  0.2941 -0.3532
15036TIP3    H266524   1.332   1.047  11.334  1.0325  0.1203 -1.1345
15037TIP3   OH266525   4.397   3.761  13.674  0.2915 -0.2699  0.5115
15037TIP3    H166526   4.305   3.765  13.698 -0.3240  0.7652 -1.8944
15037TIP3    H266527   4.416   3.668  13.668 -1.1116 -0.4913 -0.7932
15038TIP3   OH266528   1.114   4.049   5.999  0.1555  0.3316  0.5951
15038TIP3    H166529   1.204   4.066   5.970 -0.5346  0.6786 -1.3712
15038TIP3    H266530   1.123   4.025   6.091  2.0984  2.0722  0.8864
15039TIP3   OH266531   5.604   4.670   0.881  0.1247 -0.1983 -0.0275
15039TIP3    H166532   5.641   4.727   0.814 -0.0426  0.3219  0.3191
15039TIP3    H266533   5.666   4.675   0.954 -0.8445  1.0356  0.7341
15040TIP3   OH266534   1.869   2.505  16.772 -0.6305 -0.5601 -0.3583
15040TIP3    H166535   1.956   2.476  16.742 -0.7891 -2.7196  1.1219
15040TIP3    H266536   1.808   2.450  16.723 -1.1605  0.6116 -1.0282
15041TIP3   OH266537   5.016   0.848   1.941 -0.3968 -0.2640 -0.0437
15041TIP3    H166538   5.036   0.888   1.856 -1.4346 -1.4137 -0.8605
15041TIP3    H266539   5.048   0.911   2.005  0.1423  0.7706 -1.2890
15042TIP3   OH266540   6.147   1.947  11.979  0.2935 -0.2616  0.6252
15042TIP3    H166541   6.074   1.914  11.927 -1.5365  1.1905  2.2030
15042TIP3    H266542   6.147   2.041  11.962  1.0248 -0.0877  1.5990
15043TIP3   OH266543   3.821   5.089   1.572 -0.1391  0.2026 -0.3371
15043TIP3    H166544   3.818   5.127   1.660 -1.0718 -0.3715 -0.1175
15043TIP3    H266545   3.744   5.125   1.528  1.5591  2.3091 -1.6866
15044TIP3   OH266546   3.224   0.603  10.647 -0.3144  0.3016 -0.0062
15044TIP3    H166547   3.221   0.538  10.717 -0.0610 -1.0933 -1.2604
15044TIP3    H266548   3.316   0.612  10.625 -0.4874 -0.2332 -1.0138
15045TIP3   OH266549   0.315   2.352  13.562 -0.2688  0.0778 -0.6613
15045TIP3    H166550   0.383   2.285  13.563 -0.6192 -0.3757 -3.4216
15045TIP3    H266551   0.255   2.327  13.632  1.5565 -0.3671  0.7952
15046TIP3   OH266552   5.646   1.997  12.824  0.8140  0.7555  0.1653
15046TIP3    H166553   5.577   1.934  12.846  2.4199 -0.3833  2.1535
15046TIP3    H266554   5.602   2.081  12.822 -0.7624 -0.0318  0.7535
15047TIP3   OH266555   3.879   0.870  12.059 -0.2327  0.2305  0.5000
15047TIP3    H166556   3.860   0.900  12.148  1.0928 -1.1417  1.2717
15047TIP3    H266557   3.906   0.779  12.070  2.1675  0.7020 -1.0130
15048TIP3   OH266558   5.836   5.423  16.450 -0.4616 -0.2280  0.4352
15048TIP3    H166559   5.847   5.498  16.509  1.4513  0.0089 -0.2113
15048TIP3    H266560   5.861   5.456  16.364 -0.5385 -1.3581 -0.0272
15049TIP3   OH266561   1.319   0.616   0.674 -0.0433  0.1567  0.7517
15049TIP3    H166562   1.405   0.625   0.716 -0.2872 -1.0921  1.5640
15049TIP3    H266563   1.330   0.656   0.588  1.6366 -0.8122  0.4829
15050TIP3   OH266564   4.366   2.359   4.598  0.4442  0.1763 -0.9231
15050TIP3    H166565   4.323   2.330   4.679 -0.3979  0.7048 -1.1710
15050TIP3    H266566   4.388   2.278   4.552  2.6625 -0.1855  0.7083
15051TIP3   OH266567   4.230   4.952   3.406 -0.0548  0.2761  0.1545
15051TIP3    H166568   4.231   4.860   3.434  0.7401 -0.0331 -0.8536
15051TIP3    H266569   4.296   4.994   3.461  0.2505  0.0433 -0.0314
15052TIP3   OH266570   4.231   6.466  11.705  0.0150  0.1316  0.2130
15052TIP3    H166571   4.268   6.531  11.765  1.2625  0.7690 -1.2283
15052TIP3    H266572   4.306   6.414  11.677 -0.2632  0.8826 -2.0592
15053TIP3   OH266573   6.478   1.456   6.523 -0.2054 -0.2903  0.3032
15053TIP3    H166574   6.478   1.550   6.506  3.3519 -0.1989  0.3989
15053TIP3    H266575   6.464   1.416   6.437 -2.2889  0.3166  0.3478
15054TIP3   OH266576   6.213   1.565  16.637  0.7775 -0.2937 -0.2715
15054TIP3    H166577   6.214   1.614  16.555 -1.7528  0.3555  0.0408
15054TIP3    H266578   6.122   1.542  16.650  1.0382  0.0962  2.6303
15055TIP3   OH266579   3.272   1.238  15.125 -0.5206  0.0263  0.1824
15055TIP3    H166580   3.335   1.273  15.187 -0.0902  1.1672 -0.9046
15055TIP3    H266581   3.216   1.312  15.103 -1.5604 -0.7153  0.2835
15056TIP3   OH266582   3.711   4.452   6.280 -0.2661  0.2427 -0.2719
15056TIP3    H166583   3.658   4.435   6.358 -1.1089  0.2313 -0.8501
15056TIP3    H266584   3.648   4.468   6.210  0.4844  1.4815 -0.6872
15057TIP3   OH266585   3.854   3.799  14.229  0.3340  0.2113  0.5658
15057TIP3    H166586   3.918   3.761  14.290  0.5065  1.5868  1.2689
15057TIP3    H266587   3.855   3.893  14.249 -0.8436  0.4455 -0.4216
15058TIP3   OH266588   3.990   2.785   0.412  0.1182  0.0981  0.2380
15058TIP3    H166589   3.949   2.850   0.355  1.7891  0.1395 -0.9372
15058TIP3    H266590   3.988   2.825   0.499  1.3939  1.8734 -0.5210
15059TIP3   OH266591   3.621   0.648  14.440  0.0330  0.1086  0.8979
15059TIP3    H166592   3.619   0.569  14.494  0.0160 -0.3547  0.2390
15059TIP3    H266593   3.711   0.680  14.448  0.4048 -0.7160  0.1473
15060TIP3   OH266594   5.487   0.608   4.167 -0.2641 -0.4461 -0.4156
15060TIP3    H166595   5.567   0.577   4.126  0.2677 -1.3512  1.2430
15060TIP3    H266596   5.458   0.535   4.223 -1.3044  0.4859  0.3048
15061TIP3   OH266597   1.965   6.625   5.825  0.1664 -0.0943  0.1142
15061TIP3    H166598   2.058   6.619   5.845  0.0066 -0.4556  0.7506
15061TIP3    H266599   1.959   6.695   5.760  0.9265 -0.3596 -0.2404
15062TIP3   OH266600   1.870   2.274   3.793 -0.2157  0.0558  0.0380
15062TIP3    H166601   1.825   2.190   3.783  0.5525 -0.2182 -1.0990
15062TIP3    H266602   1.829   2.332   3.729 -0.6527  0.5302  0.7282
15063TIP3   OH266603   0.473   5.819   4.717  0.2313  0.4053  0.1154
15063TIP3    H166604   0.460   5.790   4.808 -3.7807  1.5081 -0.0096
15063TIP3    H266605   0.480   5.914   4.723 -0.9493  0.5598 -0.7857
15064TIP3   OH266606   1.925   0.891   1.547 -0.9154 -0.5152 -0.1183
15064TIP3    H166607   1.902   0.899   1.640  0.6026 -1.9871  0.4333
15064TIP3    H266608   1.958   0.977   1.523  0.1307 -0.5310  1.1592
15065TIP3   OH266609   3.181   3.639  16.134 -0.3670  0.4018 -0.4322
15065TIP3    H166610   3.245   3.703  16.103  0.0118 -0.2301 -0.9594
15065TIP3    H266611   3.097   3.684  16.127  0.0707  1.4140  0.7527
15066TIP3   OH266612   5.180   6.593   0.622 -0.0534  0.5225  0.2160
15066TIP3    H166613   5.114   6.625   0.684 -0.7072  1.2510 -0.8362
15066TIP3    H266614   5.257   6.576   0.676 -1.1768 -0.6084  1.5147
15067TIP3   OH266615   6.671   2.835   1.950 -0.3650  0.2285 -0.5124
15067TIP3    H166616   6.665   2.931   1.953  0.3225  0.2207  1.4137
15067TIP3    H266617   6.706   2.810   2.035 -1.4688 -1.8277 -0.6384
15068TIP3   OH266618   0.773   6.397  15.731  0.6781  0.3064  0.6173
15068TIP3    H166619   0.805   6.348  15.807  0.1815  1.2168  1.4161
15068TIP3    H266620   0.725   6.332  15.679  1.7636 -0.5187  0.6276
15069TIP3   OH266621   5.465   0.995   1.802 -0.3020  0.2986 -0.4215
15069TIP3    H166622   5.381   0.996   1.848 -0.6607  0.1685 -1.0803
15069TIP3    H266623   5.526   0.958   1.866 -0.7752  0.2377 -0.0006
15070TIP3   OH266624   4.584   1.757   2.012  0.5708 -0.1279  0.2342
15070TIP3    H166625   4.551   1.807   1.937 -1.3061 -0.3511  0.8791
15070TIP3    H266626   4.555   1.667   1.995  1.4098 -0.4565  0.5226
15071TIP3   OH266627   5.961   3.418   5.228  0.7573  0.2276 -0.2243
15071TIP3    H166628   5.904   3.484   5.266 -3.0903 -2.1995 -1.4612
15071TIP3    H266629   5.983   3.361   5.302  1.1189  0.8509  0.1538
15072TIP3   OH266630   4.864   0.134  15.895 -0.3262  0.4249  0.4129
15072TIP3    H166631   4.793   0.098  15.841  0.1122  1.5994 -0.9962
15072TIP3    H266632   4.845   0.103  15.983 -1.6383 -0.7086 -0.2398
15073TIP3   OH266633   5.747   5.744   4.007 -0.2195  0.2942 -0.1523
15073TIP3    H166634   5.687   5.690   4.057 -2.0788  1.9911 -0.4789
15073TIP3    H266635   5.704   5.829   4.002  1.7919  1.2893 -1.2011
15074TIP3   OH266636   4.739   2.522  10.772 -0.0470  0.7846  0.8389
15074TIP3    H166637   4.686   2.444  10.787  1.8672 -0.3539  1.9053
15074TIP3    H266638   4.828   2.495  10.795  0.9244  2.7841 -0.4560
15075TIP3   OH266639   0.382   2.019  13.449 -0.1234 -0.0079  0.3772
15075TIP3    H166640   0.325   1.949  13.480 -1.1932  0.8152  0.3057
15075TIP3    H266641   0.353   2.035  13.359  0.6430 -0.0020  0.1251
15076TIP3   OH266642   4.507   0.894  13.609  0.5495  0.2937  0.1165
15076TIP3    H166643   4.541   0.874  13.522  0.3029  0.7544 -0.0859
15076TIP3    H266644   4.424   0.938  13.593 -0.0277 -0.5823  0.5941
15077TIP3   OH266645   3.543   6.581   4.417 -0.1009  0.1314 -0.4571
15077TIP3    H166646   3.625   6.608   4.376  0.2323 -0.2955 -0.0675
15077TIP3    H266647   3.531   6.643   4.490 -0.8178  1.0450 -1.3319
15078TIP3   OH266648   2.371   3.133   0.627 -0.1550 -0.0453 -0.1163
15078TIP3    H166649   2.391   3.102   0.715  0.3238 -1.5349 -0.7336
15078TIP3    H266650   2.440   3.197   0.608  0.0280 -0.0854  0.4031
15079TIP3   OH266651   5.727   0.294  13.912 -0.5496  0.6698  0.0862
15079TIP3    H166652   5.651   0.344  13.882 -0.3386  0.3938 -0.9231
15079TIP3    H266653   5.802   0.337  13.871 -0.3625 -0.4169 -0.7368
15080TIP3   OH266654   4.129   1.073  13.242  0.1301 -0.3080  0.1547
15080TIP3    H166655   4.043   1.070  13.283 -0.6132  0.8585 -1.2780
15080TIP3    H266656   4.133   0.995  13.187 -0.0418 -0.3056  0.1407
15081TIP3   OH266657   4.141   2.083  13.173 -0.8251 -0.5659 -0.5824
15081TIP3    H166658   4.075   2.150  13.155 -2.3814 -2.0135 -0.4288
15081TIP3    H266659   4.090   2.006  13.199  0.8050 -2.3255 -2.4036
15082TIP3   OH266660   1.638   5.232   2.935  0.0993  0.0920  0.2314
15082TIP3    H166661   1.590   5.300   2.887  1.2620  0.1099 -0.9244
15082TIP3    H266662   1.581   5.155   2.931  0.4511 -0.0799 -1.7160
15083TIP3   OH266663   5.153   3.185  17.220  0.4817 -0.0481  0.3764
15083TIP3    H166664   5.067   3.146  17.236  0.6540 -1.3910 -1.8213
15083TIP3    H266665   5.145   3.275  17.253 -2.7805  0.8554 -2.5219
15084TIP3   OH266666   1.263   4.190  11.732  0.2032  0.2101  0.7361
15084TIP3    H166667   1.290   4.154  11.817  2.8526  1.6561  0.5394
15084TIP3    H266668   1.338   4.176  11.675 -2.0441 -1.9302 -1.8025
15085TIP3   OH266669   3.534   1.015   3.934 -0.0658 -0.8784  0.6207
15085TIP3    H166670   3.460   0.960   3.908 -0.8443 -0.3784  1.7345
15085TIP3    H266671   3.512   1.102   3.900 -1.4821 -0.0330  3.5878
15086TIP3   OH266672   3.287   6.170   6.173  0.0867  0.5281 -0.0100
15086TIP3    H166673   3.195   6.146   6.160 -0.7106  3.2687  0.2615
15086TIP3    H266674   3.334   6.123   6.104 -1.6047 -0.2957 -0.6277
15087TIP3   OH266675   3.917   0.426  16.533 -0.1320  0.9413  0.0216
15087TIP3    H166676   3.947   0.513  16.509 -0.3075  1.0553  0.2188
15087TIP3    H266677   3.928   0.422  16.628  0.9519  0.3405 -0.1152
15088TIP3   OH266678   0.303   5.019   4.353 -0.1883  0.0797  0.3669
15088TIP3    H166679   0.335   5.109   4.354  0.8396 -0.2904  1.3605
15088TIP3    H266680   0.382   4.965   4.351 -0.8046 -0.8036 -1.3560
15089TIP3   OH266681   6.308   3.140  11.999  0.1663 -0.0720  0.5427
15089TIP3    H166682   6.316   3.137  12.095  2.0576 -1.5142  0.3831
15089TIP3    H266683   6.394   3.169  11.969 -0.1644 -0.4124 -0.7548
15090TIP3   OH266684   6.349   0.663  11.481  0.1876 -0.4878  0.2208
15090TIP3    H166685   6.352   0.568  11.476  2.5538 -0.3864 -1.3084
15090TIP3    H266686   6.316   0.682  11.569  0.1137 -2.7013  0.6940
15091TIP3   OH266687   0.665   5.018  14.178  0.1304 -0.4771  0.1267
15091TIP3    H166688   0.724   4.956  14.219  2.0341  0.6242 -0.8735
15091TIP3    H266689   0.655   5.088  14.242 -0.8546 -1.1033  0.6685
15092TIP3   OH266690   1.715   0.808   0.090  0.0250 -0.1699 -0.6340
15092TIP3    H166691   1.679   0.793   0.178  0.7307 -0.2696 -0.3574
15092TIP3    H266692   1.659   0.756   0.032  0.4512 -1.3006 -0.0604
15093TIP3   OH266693   0.027   1.263   6.077 -0.1406 -0.2406  0.3158
15093TIP3    H166694   0.117   1.233   6.086 -0.5270 -1.9788 -1.3017
15093TIP3    H266695  -0.022   1.214   6.144 -0.0217  0.2135  0.7447
15094TIP3   OH266696   1.708   5.565  13.608  0.0743 -0.2283  0.4338
15094TIP3    H166697   1.630   5.510  13.607  0.1690 -0.3555  0.0780
15094TIP3    H266698   1.723   5.588  13.516  0.0323  0.3946  0.5786
15095TIP3   OH266699   0.747   2.186  16.690  0.9278 -0.0740  0.0757
15095TIP3    H166700   0.768   2.161  16.780  3.8598  0.5346 -0.3784
15095TIP3    H266701   0.828   2.168  16.641 -0.3779  0.2978 -2.3010
15096TIP3   OH266702   5.188   1.902  15.356 -0.1341  0.0432  1.0765
15096TIP3    H166703   5.176   1.812  15.386  1.0419 -0.0933  1.1439
15096TIP3    H266704   5.125   1.912  15.285  1.4801 -1.6471 -0.6406
15097TIP3   OH266705   4.041   2.660   6.053  0.2710 -0.3449  0.0280
15097TIP3    H166706   4.021   2.606   5.977 -0.2825 -0.3992  0.2114
15097TIP3    H266707   3.978   2.732   6.048  0.9887  0.2698 -0.2034
15098TIP3   OH266708   5.146   6.563   4.478  0.0833 -0.4527  0.3340
15098TIP3    H166709   5.143   6.469   4.496  1.1553 -0.8197 -1.3656
15098TIP3    H266710   5.236   6.580   4.454 -0.2142  0.9372  0.1670
15099TIP3   OH266711   0.381   6.551   3.424  0.0080 -0.2195 -0.3131
15099TIP3    H166712   0.310   6.577   3.366 -0.6263 -0.1061  0.5020
15099TIP3    H266713   0.339   6.495   3.490  0.5547  0.3633  0.5414
15100TIP3   OH266714   2.440   3.146   0.216  0.4056 -0.2225 -0.2120
15100TIP3    H166715   2.469   3.169   0.304 -0.4085  2.0003 -0.4911
15100TIP3    H266716   2.518   3.113   0.172  1.2190  0.3822  0.7713
15101TIP3   OH266717   4.675   2.240  13.589 -0.9240  0.5345  0.1782
15101TIP3    H166718   4.744   2.306  13.583 -0.0936 -0.1619  1.5891
15101TIP3    H266719   4.718   2.164  13.628 -2.0248 -0.6087 -0.7837
15102TIP3   OH266720   3.482   5.492   5.197  0.1163 -0.1996  0.4612
15102TIP3    H166721   3.503   5.525   5.284 -1.4755 -1.0776  1.2016
15102TIP3    H266722   3.439   5.566   5.153  0.9528  0.2546  0.4026
15103TIP3   OH266723   4.969   1.324  11.993  0.2903 -0.0662 -0.4193
15103TIP3    H166724   4.943   1.377  11.917  1.2705  0.2684 -0.5253
15103TIP3    H266725   4.926   1.240  11.978 -2.2495  1.0563  0.3555
15104TIP3   OH266726   5.214   0.145   4.637 -0.6941 -0.1202  0.1419
15104TIP3    H166727   5.294   0.191   4.613 -0.9720  0.6333  0.6555
15104TIP3    H266728   5.145   0.185   4.585 -1.2044  1.1449  1.7442
15105TIP3   OH266729   5.523   2.964  10.743 -0.4311 -0.2407  0.0216
15105TIP3    H166730   5.616   2.943  10.748 -0.5733 -0.7011  0.7647
15105TIP3    H266731   5.520   3.047  10.695  0.2358 -1.1145 -1.5434
15106TIP3   OH266732   0.005   1.843   1.333 -0.4877 -0.2111 -0.3216
15106TIP3    H166733   0.042   1.761   1.367  0.0022  0.9339  2.0356
15106TIP3    H266734   0.072   1.909   1.351 -1.6408  1.0327 -0.4900
15107TIP3   OH266735   0.768   1.459  12.862 -0.1753  0.4317 -0.0049
15107TIP3    H166736   0.710   1.514  12.914  0.6879 -0.0403  1.5130
15107TIP3    H266737   0.758   1.372  12.899  1.1174  0.2509 -0.0422
15108TIP3   OH266738   5.974   1.662  12.959 -0.0694 -0.0926  0.2826
15108TIP3    H166739   5.979   1.686  13.051 -0.7129 -0.6819  0.4748
15108TIP3    H266740   5.950   1.569  12.960  0.2048 -0.1755 -0.4717
15109TIP3   OH266741   3.631   4.816  15.909 -0.3579  0.4895 -0.0520
15109TIP3    H166742   3.679   4.803  15.828  0.0151 -0.7306  0.3538
15109TIP3    H266743   3.584   4.734  15.923 -1.9422  1.3618 -0.0150
15110TIP3   OH266744   5.528   0.931   1.227 -0.6713 -0.2746  0.2686
15110TIP3    H166745   5.502   0.948   1.317 -0.8527  0.8807  0.0074
15110TIP3    H266746   5.487   1.001   1.176  1.5486  0.6232 -0.3756
15111TIP3   OH266747   3.535   1.237   1.025  0.2292 -0.2716  0.1278
15111TIP3    H166748   3.568   1.169   0.966  2.5156 -0.0242  1.0803
15111TIP3    H266749   3.446   1.208   1.046  0.5421 -2.0675 -0.8525
15112TIP3   OH266750   1.740   6.105  11.609  0.1756  0.0202 -0.3357
15112TIP3    H166751   1.684   6.056  11.671 -1.0632  0.8971 -0.7420
15112TIP3    H266752   1.722   6.064  11.524  0.0007  0.4239 -0.4955
15113TIP3   OH266753   0.174   0.091  14.556 -0.5113  0.3869 -0.0076
15113TIP3    H166754   0.182   0.046  14.471 -1.1663 -1.7423  1.0278
15113TIP3    H266755   0.090   0.136  14.552 -1.1447 -0.7984  0.0144
15114TIP3   OH266756   5.180   3.516   0.794 -0.2463  0.2602  0.0110
15114TIP3    H166757   5.250   3.520   0.859 -0.2561 -1.4889  0.1467
15114TIP3    H266758   5.109   3.469   0.837 -1.4624  1.8809 -0.1819
15115TIP3   OH266759   0.680   5.392  13.650  0.1514 -0.1023  0.3107
15115TIP3    H166760   0.768   5.382  13.614  0.1777 -1.4169  0.7073
15115TIP3    H266761   0.694   5.403  13.744 -0.0011  1.8168  0.1325
15116TIP3   OH266762   3.232   6.031  14.350 -0.1134 -0.1542  0.0451
15116TIP3    H166763   3.189   6.115  14.366 -1.1072 -0.4318 -1.1353
15116TIP3    H266764   3.263   6.036  14.260  0.0370 -0.9718  0.0450
15117TIP3   OH266765   1.352   1.643  14.199 -0.2096 -0.1001 -0.1341
15117TIP3    H166766   1.323   1.552  14.195  1.6368 -0.7387  0.4919
15117TIP3    H266767   1.321   1.681  14.116  0.6887 -1.8214 -1.2898
15118TIP3   OH266768   2.431   5.344  11.637 -0.2923  0.4778 -0.7284
15118TIP3    H166769   2.405   5.346  11.545 -1.3679 -0.1162 -0.4480
15118TIP3    H266770   2.353   5.312  11.683  0.5493 -0.1759  0.2658
15119TIP3   OH266771   2.014   1.178  13.287  0.1512  0.1513  0.2202
15119TIP3    H166772   2.025   1.083  13.293  0.6486  0.2855  1.8232
15119TIP3    H266773   2.084   1.213  13.342 -2.5234  1.3098  3.0417
15120TIP3   OH266774   1.974   1.179  16.733  0.0925 -0.1077  0.5087
15120TIP3    H166775   2.014   1.098  16.763  0.1258 -0.8203 -1.4309
15120TIP3    H266776   2.033   1.248  16.764  3.1613 -1.1575 -2.7935
15121TIP3   OH266777   5.074   5.666  12.815 -0.0055 -0.7839 -0.3475
15121TIP3    H166778   5.022   5.691  12.891  0.3401  0.0489 -0.3780
15121TIP3    H266779   5.158   5.638  12.851  0.3388  0.1011 -0.4488
15122TIP3   OH266780   6.539   2.549  14.503 -0.2675 -0.0763  0.0608
15122TIP3    H166781   6.560   2.571  14.412 -0.3934  0.0714  0.0669
15122TIP3    H266782   6.445   2.530  14.502 -0.6245  1.6062  0.4832
15123TIP3   OH266783   2.030   1.380  13.724 -0.2258  0.0761  0.4482
15123TIP3    H166784   1.997   1.301  13.681  0.5743  0.2206 -0.4439
15123TIP3    H266785   2.106   1.349  13.774  0.2013  0.3114 -0.0533
15124TIP3   OH266786   2.452   1.513   0.342 -0.3416 -0.0207  0.0712
15124TIP3    H166787   2.371   1.553   0.374 -1.1532 -1.0131 -0.7093
15124TIP3    H266788   2.459   1.431   0.391  1.4288  1.1297  1.8247
15125TIP3   OH266789   5.398   5.048  15.815 -0.2402 -0.1889  0.4394
15125TIP3    H166790   5.488   5.077  15.833 -1.0909  1.8276  1.6928
15125TIP3    H266791   5.361   5.118  15.761 -1.3011 -0.6361  0.5778
15126TIP3   OH266792   6.783   3.875   3.641  0.2892 -0.2110  0.1860
15126TIP3    H166793   6.744   3.962   3.642  0.3145 -0.2001  1.8503
15126TIP3    H266794   6.747   3.833   3.563 -0.1388  1.1044 -0.3250
15127TIP3   OH266795   2.970   3.810  16.155 -0.6292 -0.9183  0.0057
15127TIP3    H166796   2.905   3.763  16.207 -0.6688 -0.9132 -0.0408
15127TIP3    H266797   2.926   3.889  16.126  0.1620  0.3127  2.0366
15128TIP3   OH266798   5.140   2.805   4.092 -0.4062 -0.0406  0.5813
15128TIP3    H166799   5.100   2.766   4.015  0.6024 -0.2077  0.1447
15128TIP3    H266800   5.066   2.822   4.151 -1.0089 -1.3075  0.2108
15129TIP3   OH266801   1.238   5.613  14.797 -0.5166 -0.3033 -0.2432
15129TIP3    H166802   1.314   5.628  14.740 -0.5263 -1.6057 -0.6102
15129TIP3    H266803   1.262   5.655  14.880  0.9567 -1.3994 -0.0852
15130TIP3   OH266804   2.426   5.572  11.361 -0.1506 -0.2843  0.1272
15130TIP3    H166805   2.475   5.490  11.369 -0.2860 -0.5095 -1.3185
15130TIP3    H266806   2.449   5.606  11.275  0.3070  1.4703  0.9225
15131TIP3   OH266807   6.431   6.587   0.616  0.0099  0.1486  0.1402
15131TIP3    H166808   6.419   6.507   0.667  0.4293  0.0992  0.1635
15131TIP3    H266809   6.525   6.589   0.597  0.3611  1.6988  1.8855
15132TIP3   OH266810   3.103   0.482   2.430  0.2370 -0.1936  0.2011
15132TIP3    H166811   3.170   0.486   2.498  0.2333 -0.3931  0.2185
15132TIP3    H266812   3.036   0.424   2.467  0.6993 -1.1290 -0.3818
15133TIP3   OH266813   1.740   1.012   5.112  1.0246 -0.0609  0.2578
15133TIP3    H166814   1.734   0.922   5.081  0.6312  0.7687 -2.2328
15133TIP3    H266815   1.785   1.059   5.041 -2.2540  2.4788 -0.2746
15134TIP3   OH266816   0.946   3.122  13.068 -0.5975  0.2360  0.0838
15134TIP3    H166817   0.901   3.038  13.060  0.1115 -0.0826 -0.6254
15134TIP3    H266818   0.888   3.185  13.025 -1.2625  0.1607  0.8675
15135TIP3   OH266819   0.714   0.593  11.130  0.0008 -0.5548  0.1083
15135TIP3    H166820   0.649   0.662  11.115 -0.1642 -0.6075  0.5836
15135TIP3    H266821   0.664   0.512  11.131  0.2038 -0.6883 -0.5071
15136TIP3   OH266822   0.955   0.113   3.097 -0.1565 -0.3210  0.2440
15136TIP3    H166823   0.982   0.127   3.006 -0.0325  0.2545  0.3675
15136TIP3    H266824   1.001   0.034   3.124  3.9378  2.3576  1.4499
15137TIP3   OH266825   0.710   1.447   2.101 -0.4386 -0.8144  0.1076
15137TIP3    H166826   0.644   1.421   2.037  0.9037 -3.2104 -0.3761
15137TIP3    H266827   0.779   1.489   2.049 -1.1254  0.8136  0.4913
15138TIP3   OH266828   4.406   6.105   0.079  0.6652  0.2276  0.3792
15138TIP3    H166829   4.475   6.157   0.039  2.0842 -1.0710  1.1129
15138TIP3    H266830   4.375   6.158   0.153  0.8992  0.7916  0.0678
15139TIP3   OH266831   2.045   0.159   1.560  0.4583  0.2330 -0.3906
15139TIP3    H166832   1.973   0.209   1.522 -0.6553  0.1608  1.5688
15139TIP3    H266833   2.005   0.108   1.630  2.1641 -0.8925 -0.2036
15140TIP3   OH266834   4.560   6.319   4.339  0.5052 -0.0723 -0.0721
15140TIP3    H166835   4.642   6.365   4.354  1.4217 -1.4748 -0.6878
15140TIP3    H266836   4.561   6.246   4.401 -1.2463  1.0740  1.3684
15141TIP3   OH266837   5.491   2.427   5.764 -0.0987 -0.0407 -0.0087
15141TIP3    H166838   5.474   2.510   5.807  0.2651 -0.1632  0.3743
15141TIP3    H266839   5.415   2.413   5.707  0.5923  1.3509 -1.3143
15142TIP3   OH266840   2.230   5.784   0.551 -0.0863 -0.2794  0.6369
15142TIP3    H166841   2.310   5.804   0.503  0.3772 -2.0480  0.6224
15142TIP3    H266842   2.161   5.833   0.505  0.8935  0.8087  0.3189
15143TIP3   OH266843   1.351   4.821   4.785  0.0237  0.1131  0.7543
15143TIP3    H166844   1.304   4.788   4.709 -0.6998  2.9078 -0.0526
15143TIP3    H266845   1.409   4.749   4.811  0.1997 -0.9111 -2.3505
15144TIP3   OH266846   1.955   3.073   1.588 -0.0036  0.2939  0.6167
15144TIP3    H166847   1.979   3.005   1.525 -0.9028  1.0284 -0.5446
15144TIP3    H266848   1.885   3.033   1.640 -1.7909  0.9150 -1.2337
15145TIP3   OH266849   4.650   5.575   0.983  0.2667 -0.2386  0.0158
15145TIP3    H166850   4.648   5.532   1.068  1.0758  0.5774  0.4553
15145TIP3    H266851   4.732   5.546   0.943 -1.0984 -2.3318 -1.4147
15146TIP3   OH266852   4.457   3.585   3.812  0.2907  0.8006 -0.2845
15146TIP3    H166853   4.474   3.653   3.747  2.0864  1.4525  0.8451
15146TIP3    H266854   4.543   3.563   3.847 -0.3379 -1.6277 -0.1868
15147TIP3   OH266855   5.958   0.918   2.056 -0.0189  0.4291  0.1686
15147TIP3    H166856   6.028   0.934   2.118  0.2613 -0.1288 -0.0034
15147TIP3    H266857   5.999   0.867   1.985 -0.8948 -1.0878  0.7279
15148TIP3   OH266858   3.273   6.660   2.120 -0.0393 -0.2684  0.0447
15148TIP3    H166859   3.191   6.708   2.111  0.5238  0.6651 -0.2252
15148TIP3    H266860   3.332   6.722   2.164  0.5088 -0.9353  0.2542
15149TIP3   OH266861   3.755   0.986  13.082 -0.7240 -0.0224  0.5989
15149TIP3    H166862   3.751   0.945  13.169 -2.7800  0.5620  0.7860
15149TIP3    H266863   3.754   0.913  13.021  0.9675 -0.4525  1.0375
15150TIP3   OH266864   2.372   4.067  16.326  0.0995  0.0661 -0.5718
15150TIP3    H166865   2.315   4.002  16.366 -1.3733  1.4937 -0.3343
15150TIP3    H266866   2.314   4.121  16.273  1.0578  2.2053  0.5142
15151TIP3   OH266867   4.826   6.035   1.679  0.0108 -0.7398 -0.1776
15151TIP3    H166868   4.788   5.948   1.667  0.4058 -1.0520  0.7537
15151TIP3    H266869   4.751   6.092   1.695 -0.1320 -1.2391  1.0081
15152TIP3   OH266870   0.645   3.965  12.511 -0.0916  0.1313  0.3147
15152TIP3    H166871   0.551   3.967  12.492  0.1717  1.5068 -0.9720
15152TIP3    H266872   0.661   3.877  12.544 -2.1546  0.4382  2.2274
15153TIP3   OH266873   4.842   2.313   5.871  0.6749  0.1034 -0.4492
15153TIP3    H166874   4.857   2.263   5.951  0.8436  0.2908 -0.3656
15153TIP3    H266875   4.789   2.254   5.816 -2.0344  1.1251  0.9711
15154TIP3   OH266876   4.977   1.028  15.358 -0.5356  0.1114  0.1139
15154TIP3    H166877   4.947   1.064  15.275 -1.9932 -0.4708  0.3853
15154TIP3    H266878   5.026   0.949  15.335  0.6286  0.9368 -0.3063
15155TIP3   OH266879   1.355   0.862   5.176  0.3252 -0.2707  0.5848
15155TIP3    H166880   1.266   0.844   5.207 -0.1942  1.5242  0.1966
15155TIP3    H266881   1.410   0.799   5.222 -1.1317 -1.3394  0.8983
15156TIP3   OH266882   6.515   6.717   5.708  0.3414 -0.0654 -0.3108
15156TIP3    H166883   6.529   6.775   5.632 -1.3234  0.1625 -0.4677
15156TIP3    H266884   6.434   6.671   5.687  0.1114 -0.3222  1.1462
15157TIP3   OH266885   0.212   5.613  15.983  0.0911  0.1786  0.3904
15157TIP3    H166886   0.275   5.567  15.928 -0.6052  2.2493 -2.1950
15157TIP3    H266887   0.140   5.550  15.996  0.6411 -0.6006 -0.3593
15158TIP3   OH266888   2.044   6.757   2.886  0.2949  0.4229  0.0924
15158TIP3    H166889   2.059   6.667   2.856  1.2683  0.8740 -0.8180
15158TIP3    H266890   2.117   6.775   2.945 -0.3541  0.3368  0.9288
15159TIP3   OH266891   1.528   1.089   5.238  0.0200 -0.2272  0.1703
15159TIP3    H166892   1.619   1.065   5.222  0.5697  0.3965  2.2655
15159TIP3    H266893   1.480   1.007   5.231  1.2750 -1.2378  2.8154
15160TIP3   OH266894   4.624   3.939  11.624 -0.2839  0.5498 -0.1969
15160TIP3    H166895   4.680   3.955  11.548 -2.0032  0.9889 -1.3958
15160TIP3    H266896   4.671   3.873  11.675  1.6835  1.4433 -0.7847
15161TIP3   OH266897   5.435   1.253   4.755  0.1437 -0.2452  0.6775
15161TIP3    H166898   5.349   1.285   4.784 -0.1169 -0.8694  0.5995
15161TIP3    H266899   5.461   1.191   4.823  0.8167  0.3992  1.0154
15162TIP3   OH266900   1.363   2.648   1.677 -0.3402  0.0598  0.0520
15162TIP3    H166901   1.339   2.690   1.760 -2.3258 -0.3643 -0.2838
15162TIP3    H266902   1.442   2.597   1.698  0.1088  1.2125  1.2743
15163TIP3   OH266903   2.992   2.438  15.934 -0.1595 -0.0890  0.7308
15163TIP3    H166904   2.952   2.508  15.883  2.6814 -0.4014 -2.0289
15163TIP3    H266905   2.938   2.361  15.916 -0.2459  0.2151 -0.3184
15164TIP3   OH266906   1.703   0.235   1.129  0.1463  0.7098  0.1791
15164TIP3    H166907   1.796   0.233   1.152 -0.4062 -1.8265  2.4996
15164TIP3    H266908   1.658   0.214   1.211 -2.3729 -0.1742 -1.3799
15165TIP3   OH266909   3.331   1.852  15.831  0.2425  0.7824 -0.4067
15165TIP3    H166910   3.305   1.861  15.739 -1.7611  1.6351  0.2065
15165TIP3    H266911   3.248   1.844  15.878  1.2953 -1.8698  1.1153
15166TIP3   OH266912   3.657   1.754  13.514  0.6400 -0.2609 -0.0804
15166TIP3    H166913   3.572   1.731  13.476 -0.2334  1.9561  0.4901
15166TIP3    H266914   3.669   1.847  13.493  2.2684 -0.1819  1.0975
15167TIP3   OH266915   1.388   6.491   5.566 -0.1204 -0.0237 -0.1800
15167TIP3    H166916   1.313   6.548   5.552  0.5461  0.8091 -0.4341
15167TIP3    H266917   1.463   6.543   5.536  0.7280 -0.2627  1.4831
15168TIP3   OH266918   3.767   3.197   4.235 -0.2911 -0.9030 -0.0007
15168TIP3    H166919   3.861   3.181   4.243 -0.6637 -3.5360 -0.5739
15168TIP3    H266920   3.753   3.206   4.140 -0.8300 -1.8199 -0.0043
15169TIP3   OH266921   1.278   2.630  12.705 -0.0236  0.1332  0.2860
15169TIP3    H166922   1.201   2.686  12.692 -0.0026  0.0029 -0.4618
15169TIP3    H266923   1.343   2.665  12.644  0.3225 -0.0916  0.5292
15170TIP3   OH266924   0.264   2.971   5.372  0.2615 -0.4079  0.4790
15170TIP3    H166925   0.322   3.028   5.321 -2.1618  1.6209 -0.1296
15170TIP3    H266926   0.310   2.959   5.455  1.6883  0.9280 -0.0809
15171TIP3   OH266927   3.015   5.365   6.071  0.1368 -0.2648  0.3388
15171TIP3    H166928   3.051   5.419   6.141 -1.3325  1.1927 -0.0029
15171TIP3    H266929   3.083   5.363   6.004 -0.5480  2.8802 -0.5325
15172TIP3   OH266930   3.727   0.954   2.692 -0.2669  0.3739  0.3984
15172TIP3    H166931   3.791   0.909   2.638  0.9775  2.3802  0.1689
15172TIP3    H266932   3.762   0.948   2.781  0.1092  1.2165  0.3125
15173TIP3   OH266933   6.393   2.754  12.771  0.1631 -0.1945  0.5273
15173TIP3    H166934   6.344   2.836  12.767 -1.0861 -0.8546  2.0826
15173TIP3    H266935   6.475   2.773  12.724 -1.0932  1.2306 -1.1750
15174TIP3   OH266936   0.957   5.012   6.577  0.2775 -0.4016  0.3086
15174TIP3    H166937   0.945   5.074   6.649  0.6187  0.2663 -0.2047
15174TIP3    H266938   0.971   4.928   6.621 -0.5846 -0.1941  0.9992
15175TIP3   OH266939   6.287   1.914   4.314  0.2122 -0.2711  0.1678
15175TIP3    H166940   6.194   1.902   4.297 -0.2771  0.7472  1.9786
15175TIP3    H266941   6.298   1.891   4.406  1.3124  1.8172  0.5998
15176TIP3   OH266942   4.424   5.198  16.993  0.1116 -0.1044 -0.1390
15176TIP3    H166943   4.344   5.220  16.944  0.2528  1.9421  0.4868
15176TIP3    H266944   4.495   5.221  16.933  0.2601 -0.1201  0.0335
15177TIP3   OH266945   3.268   1.594   5.228  0.0128  0.0119 -0.6000
15177TIP3    H166946   3.359   1.574   5.206  0.9696  2.7905  0.5870
15177TIP3    H266947   3.230   1.623   5.145  0.8969  1.1050 -0.6415
15178TIP3   OH266948   5.414   1.714   4.348  0.3336  0.6679  0.2470
15178TIP3    H166949   5.452   1.639   4.303  2.4517  1.3557  0.8419
15178TIP3    H266950   5.382   1.678   4.431 -1.2387 -0.0990 -0.6697
15179TIP3   OH266951   2.605   3.231   4.091 -0.8042 -0.5910 -0.5130
15179TIP3    H166952   2.637   3.253   4.178 -0.2941  0.2262 -0.9056
15179TIP3    H266953   2.678   3.185   4.048 -1.3571 -1.7884 -0.2115
15180TIP3   OH266954   6.501   5.771   0.517 -0.7648  0.4388  0.2378
15180TIP3    H166955   6.577   5.818   0.484 -0.6119  0.4555  0.6133
15180TIP3    H266956   6.448   5.754   0.439 -0.5766  0.7860  0.0312
15181TIP3   OH266957   1.610   4.848  11.094  0.0642  0.2221 -0.2449
15181TIP3    H166958   1.672   4.829  11.164  0.3192 -0.4686 -0.6516
15181TIP3    H266959   1.645   4.802  11.017 -1.3371 -0.8418 -0.2833
15182TIP3   OH266960   1.849   6.266  14.846  0.4590 -0.1879  0.0323
15182TIP3    H166961   1.787   6.195  14.827  0.0230  0.5139 -1.2275
15182TIP3    H266962   1.906   6.269  14.769 -0.4820  1.8240 -0.6084
15183TIP3   OH266963   3.930   5.940   1.709 -0.4838  0.2278  0.0036
15183TIP3    H166964   3.894   5.995   1.640 -1.5480 -0.6586 -0.1695
15183TIP3    H266965   3.876   5.861   1.707  1.5703 -1.2175 -0.3538
15184TIP3   OH266966   3.022   3.426   4.946  0.3229  0.2129  0.2203
15184TIP3    H166967   3.088   3.476   4.897  0.7518 -0.6934 -0.1318
15184TIP3    H266968   2.958   3.492   4.973  2.2992  1.4352  2.1467
15185TIP3   OH266969   4.495   0.345   0.679  0.0575 -0.0093 -0.5584
15185TIP3    H166970   4.549   0.276   0.642 -0.4167 -0.9626  0.4979
15185TIP3    H266971   4.420   0.300   0.717 -0.7203  1.1663 -0.6643
15186TIP3   OH266972   2.235   4.788  17.124  0.8999 -0.2391  0.2448
15186TIP3    H166973   2.175   4.753  17.190  1.9049  1.1168  1.9055
15186TIP3    H266974   2.178   4.809  17.050 -0.5951  0.4153  1.5492
15187TIP3   OH266975   5.558   0.153   1.988 -0.3251  0.0982  0.1268
15187TIP3    H166976   5.539   0.126   1.899  1.8876 -1.4820  0.1056
15187TIP3    H266977   5.528   0.244   1.993 -0.8947  0.0407 -2.0444
15188TIP3   OH266978   3.268   0.216   4.006 -0.1995 -0.5509 -0.3974
15188TIP3    H166979   3.316   0.136   4.030 -0.0041 -0.3475 -0.0994
15188TIP3    H266980   3.221   0.239   4.086 -2.7531 -2.1226 -1.3932
15189TIP3   OH266981   5.195   2.922   2.511  0.1757 -0.4064 -0.0013
15189TIP3    H166982   5.120   2.869   2.484  0.5586 -0.2244 -1.4658
15189TIP3    H266983   5.269   2.882   2.465  0.9912 -0.6358  1.4951
15190TIP3   OH266984   6.253   2.093  15.115 -0.3970 -0.0399  0.4496
15190TIP3    H166985   6.347   2.110  15.118  0.1131 -2.1961 -1.3776
15190TIP3    H266986   6.218   2.136  15.193  1.7395  2.7960 -0.0773
15191TIP3   OH266987   2.240   1.782  12.637  0.4038  0.4199  0.1901
15191TIP3    H166988   2.285   1.808  12.718  0.0368  0.3310  0.4207
15191TIP3    H266989   2.179   1.714  12.664  1.6515 -0.9944 -0.4840
15192TIP3   OH266990   5.151   0.967   3.747  0.1964 -0.3751 -0.0202
15192TIP3    H166991   5.112   0.883   3.725  0.4219 -0.0872 -1.5787
15192TIP3    H266992   5.214   0.984   3.677  0.3131  0.9864  0.3949
15193TIP3   OH266993   5.866   6.013  15.532 -0.6331 -0.2558  0.6756
15193TIP3    H166994   5.833   6.062  15.457  2.0559 -0.1995 -0.5223
15193TIP3    H266995   5.948   6.055  15.554 -0.2358 -1.7633  2.1562
15194TIP3   OH266996   0.893   6.549  14.839 -0.2822 -0.2568 -0.2314
15194TIP3    H166997   0.895   6.597  14.922  3.1433  0.7921 -0.8254
15194TIP3    H266998   0.838   6.603  14.782  0.3745  0.9798  0.2756
15195TIP3   OH266999   0.011   3.699  16.171  0.7724  0.4919  0.6387
15195TIP3    H167000   0.016   3.698  16.075  1.0056 -0.9955  0.6615
15195TIP3    H267001  -0.083   3.701  16.190  0.7167  0.0819  0.3943
15196TIP3   OH267002   5.279   4.684   1.688  0.0058  0.2851 -0.0707
15196TIP3    H167003   5.330   4.603   1.691 -0.4904  0.0113  2.2094
15196TIP3    H267004   5.191   4.659   1.717 -0.5848  1.3589 -0.8638
15197TIP3   OH267005   6.265   3.073   3.555 -0.4323 -0.1442 -0.5671
15197TIP3    H167006   6.247   3.105   3.467  0.1457  1.5454 -0.0871
15197TIP3    H267007   6.338   3.126   3.586 -1.5507  0.2773  1.4713
15198TIP3   OH267008   2.811   0.413  11.617  0.3478  0.0002 -0.4725
15198TIP3    H167009   2.826   0.339  11.676  0.3663  0.5521  0.2182
15198TIP3    H267010   2.874   0.480  11.645  1.1852 -0.1761 -1.8941
15199TIP3   OH267011   6.074   0.343   5.682  0.2401 -0.1373 -0.3605
15199TIP3    H167012   6.071   0.248   5.676 -1.1606 -0.0677 -1.1360
15199TIP3    H267013   6.125   0.370   5.605  1.4403 -0.2973  0.3727
15200TIP3   OH267014   0.866   4.228  15.945  0.5146  0.1657 -0.2025
15200TIP3    H167015   0.817   4.164  15.893  0.9813  0.3364 -0.8650
15200TIP3    H267016   0.799   4.282  15.986  0.0566  2.9496 -4.2504
15201TIP3   OH267017   2.933   0.437  15.741  0.1611 -0.2606  0.3713
15201TIP3    H167018   2.959   0.449  15.833 -0.6704 -0.2459  0.6112
15201TIP3    H267019   2.921   0.526  15.708  3.3950 -0.1248 -0.6402
15202TIP3   OH267020   5.075   4.438  16.623  0.0259  0.3390 -0.2567
15202TIP3    H167021   5.145   4.500  16.605  0.4719 -0.6396 -1.9382
15202TIP3    H267022   5.105   4.388  16.699  0.6662  0.6502 -0.3059
15203TIP3   OH267023   1.259   2.654  16.951 -0.0617  0.1025  0.0242
15203TIP3    H167024   1.279   2.693  17.036  1.3509 -1.5363  0.4602
15203TIP3    H267025   1.166   2.630  16.957 -0.0984  0.4470  0.9090
15204TIP3   OH267026   0.300   3.782   5.626 -0.0178  0.1618 -0.3729
15204TIP3    H167027   0.300   3.742   5.713 -1.1904  2.4645  0.7374
15204TIP3    H267028   0.280   3.710   5.566 -1.2212 -1.0790  1.4774
15205TIP3   OH267029   3.631   3.214  15.750 -0.4198 -0.6920 -0.5528
15205TIP3    H167030   3.635   3.121  15.775 -0.4468 -1.1827 -2.2423
15205TIP3    H267031   3.538   3.234  15.749 -0.4699 -0.9367 -1.1452
15206TIP3   OH267032   5.014   4.844  10.846 -0.2500 -0.1549 -0.4927
15206TIP3    H167033   5.075   4.788  10.797  0.5002  0.4200 -0.2312
15206TIP3    H267034   4.928   4.809  10.826  0.2156 -1.5006 -0.2432
15207TIP3   OH267035   0.723   0.588   3.750  0.6550 -0.1048 -0.2044
15207TIP3    H167036   0.680   0.669   3.722 -2.0600 -2.1409 -2.1417
15207TIP3    H267037   0.701   0.580   3.843  0.7708  1.2702 -0.0500
15208TIP3   OH267038   2.216   5.818   5.451  0.1861  0.4553  0.1820
15208TIP3    H167039   2.304   5.801   5.416 -0.9294  0.9446 -3.0537
15208TIP3    H267040   2.173   5.732   5.450  0.1642  0.4642  0.3725
15209TIP3   OH267041   1.770   5.175   4.786  0.3398 -0.3356  0.2410
15209TIP3    H167042   1.692   5.148   4.738  0.8798 -1.0472 -0.2479
15209TIP3    H267043   1.812   5.240   4.731  0.4251 -0.4125  0.2148
15210TIP3   OH267044   5.904   1.869  11.772  0.3964 -0.3214  0.2754
15210TIP3    H167045   5.813   1.839  11.777  0.2105 -0.4132 -2.9155
15210TIP3    H267046   5.899   1.954  11.728  1.8462 -0.2582  0.2065
15211TIP3   OH267047   1.612   6.658  15.140  0.0416 -0.0604 -0.2847
15211TIP3    H167048   1.544   6.620  15.195 -0.5921  1.5209  0.0303
15211TIP3    H267049   1.647   6.731  15.191 -0.8931  1.7366 -2.1415
15212TIP3   OH267050   2.624   4.814   6.026 -0.0450  0.4554  0.6960
15212TIP3    H167051   2.604   4.732   6.069 -1.1076 -0.4333 -1.4178
15212TIP3    H267052   2.612   4.881   6.094 -2.0050 -0.8543  1.6715
15213TIP3   OH267053   0.836   3.415  14.613 -0.5119 -0.4491  0.4106
15213TIP3    H167054   0.838   3.321  14.626 -1.3046 -0.5833 -0.3546
15213TIP3    H267055   0.880   3.430  14.529 -0.3253 -0.1417  0.5626
15214TIP3   OH267056   3.762   1.977  16.225  0.6883 -0.4914 -0.2208
15214TIP3    H167057   3.770   1.882  16.212  2.4717 -0.3053 -0.5224
15214TIP3    H267058   3.737   2.012  16.140 -1.1805 -0.8034  0.1731
15215TIP3   OH267059   6.694   3.207   2.503  0.0323  0.3216  0.4684
15215TIP3    H167060   6.704   3.296   2.537 -0.1406  0.2795  0.6283
15215TIP3    H267061   6.602   3.187   2.516  0.6952 -1.0997  3.3818
15216TIP3   OH267062   0.109   0.076  14.843 -0.2952  0.0702  0.0829
15216TIP3    H167063   0.018   0.069  14.872 -0.1484  1.3202  0.9195
15216TIP3    H267064   0.104   0.076  14.747 -1.1357 -0.2605  0.1211
15217TIP3   OH267065   3.397   2.715  12.189 -0.2089  0.1683  0.3827
15217TIP3    H167066   3.365   2.796  12.148 -2.2701 -0.5509  0.5107
15217TIP3    H267067   3.388   2.731  12.283  1.3907  0.5828  0.4647
15218TIP3   OH267068   1.253   0.357  14.368  0.3951 -0.3120 -0.0519
15218TIP3    H167069   1.171   0.390  14.405 -0.1440  0.5168 -1.9404
15218TIP3    H267070   1.228   0.316  14.285  1.8114 -0.5906 -0.3598
15219TIP3   OH267071   6.704   2.956  14.248  0.1844  0.5517  0.3696
15219TIP3    H167072   6.657   3.030  14.209 -0.3672 -0.9457 -1.8715
15219TIP3    H267073   6.790   2.991  14.271 -0.2859  2.0401 -0.1035
15220TIP3   OH267074   1.924   3.835  11.627  0.6323 -0.0112 -0.4504
15220TIP3    H167075   1.993   3.884  11.584 -0.8305  2.9300  0.4115
15220TIP3    H267076   1.888   3.778  11.559  1.1272  1.5075 -2.0136
15221TIP3   OH267077   2.916   3.977  11.825  0.6622  0.0106  0.5886
15221TIP3    H167078   2.923   4.054  11.881 -0.5449  1.0096 -0.5968
15221TIP3    H267079   2.864   3.914  11.874  0.2914  0.5682  0.8973
15222TIP3   OH267080   4.506   4.520  16.614  0.1757  0.3111  0.4097
15222TIP3    H167081   4.575   4.554  16.558 -0.0486  0.3023  0.1251
15222TIP3    H267082   4.474   4.596  16.662 -0.1913  0.4734 -0.0806
15223TIP3   OH267083   5.937   1.157  17.208 -0.0884  0.5460  0.1456
15223TIP3    H167084   5.900   1.145  17.121 -1.6796  0.0408  0.8754
15223TIP3    H267085   5.863   1.185  17.262  0.4916 -0.9195  1.7212
15224TIP3   OH267086   2.995   2.515  12.798 -0.3659 -0.3070  0.0464
15224TIP3    H167087   3.049   2.503  12.876 -1.3595  0.5505  0.8665
15224TIP3    H267088   3.054   2.495  12.725  1.6689  2.6166  0.8168
15225TIP3   OH267089   0.365   2.285   0.738 -0.2559 -0.1642 -0.2348
15225TIP3    H167090   0.298   2.229   0.700 -0.0703 -0.3639 -0.2697
15225TIP3    H267091   0.422   2.308   0.665  0.8965 -1.6717  0.1580
15226TIP3   OH267092   1.061   2.237   2.713 -0.4663 -0.9309  0.7979
15226TIP3    H167093   1.012   2.264   2.791 -0.4457  0.2417  0.4127
15226TIP3    H267094   1.152   2.236   2.741 -0.2920  1.0272  0.3906
15227TIP3   OH267095   0.994   0.524   1.630 -0.0842  0.3880  0.2258
15227TIP3    H167096   1.067   0.586   1.621 -0.7575  1.0581 -0.6880
15227TIP3    H267097   0.960   0.514   1.541 -3.2209  2.6642  1.1035
15228TIP3   OH267098   4.336   5.889   1.886  0.1662  0.0368  0.1835
15228TIP3    H167099   4.410   5.882   1.826 -1.4326  1.3377 -2.0139
15228TIP3    H267100   4.288   5.807   1.875  1.0300 -0.6437  1.3272
15229TIP3   OH267101   6.356   3.132  17.135 -0.1847 -0.4195 -0.6917
15229TIP3    H167102   6.410   3.159  17.209  1.4697 -0.7523 -1.7481
15229TIP3    H267103   6.268   3.161  17.158  0.6392  1.2161  0.5381
15230TIP3   OH267104   5.669   5.725  13.217  0.0971  0.0656 -0.3833
15230TIP3    H167105   5.663   5.654  13.153  1.4507 -0.5061  0.1083
15230TIP3    H267106   5.626   5.690  13.295  0.3253 -0.0354 -0.3014
15231TIP3   OH267107   2.705   6.525   0.345 -0.0115  0.1116 -0.0474
15231TIP3    H167108   2.618   6.500   0.378 -1.4348  2.0811 -2.1641
15231TIP3    H267109   2.714   6.617   0.369 -0.2184  1.0234 -3.2738
15232TIP3   OH267110   0.807   5.781  14.400  0.2638  0.1268  0.5097
15232TIP3    H167111   0.723   5.779  14.446 -0.2526 -0.3492 -0.4336
15232TIP3    H267112   0.856   5.707  14.437  1.2329  1.8359  2.7897
15233TIP3   OH267113   4.385   2.161  16.358  0.0132 -0.5883 -0.4690
15233TIP3    H167114   4.434   2.225  16.410  1.3377 -1.0743 -1.1010
15233TIP3    H267115   4.414   2.177  16.268 -2.7098  0.6665 -1.1805
15234TIP3   OH267116   2.472   5.996  10.341  0.1464 -0.2777  0.1312
15234TIP3    H167117   2.380   5.984  10.318 -0.4503  1.4043  1.4598
15234TIP3    H267118   2.496   5.917  10.388 -0.1487 -1.4067 -1.5533
15235TIP3   OH267119   1.696   6.216   3.558  0.4494 -0.4398 -0.5124
15235TIP3    H167120   1.692   6.272   3.635 -0.4639 -0.9238 -0.1981
15235TIP3    H267121   1.761   6.149   3.579  0.0480 -0.6961 -0.0691
15236TIP3   OH267122   1.400   3.019  15.399  0.8405  0.2012 -0.2551
15236TIP3    H167123   1.491   3.049  15.408  1.2932 -1.2941  0.5223
15236TIP3    H267124   1.405   2.949  15.333 -0.0167  1.1274 -1.3246
15237TIP3   OH267125   4.875   2.063  13.352  0.2192 -0.5315 -0.0127
15237TIP3    H167126   4.958   2.068  13.305 -0.2318 -2.3912 -1.0736
15237TIP3    H267127   4.808   2.074  13.284 -0.4040  1.9738  0.9806
15238TIP3   OH267128   4.234   6.275   0.781  0.4346 -0.0661 -0.0058
15238TIP3    H167129   4.261   6.338   0.714  0.2439  1.5242  1.3566
15238TIP3    H267130   4.204   6.330   0.854 -1.9739 -1.7659  0.3338
15239TIP3   OH267131   6.673   1.054   5.192 -0.4385  0.1039 -0.2613
15239TIP3    H167132   6.760   1.093   5.191  0.0780 -0.9834  0.8651
15239TIP3    H267133   6.671   0.997   5.115 -0.7640  1.4169 -1.2293
15240TIP3   OH267134   1.882   5.975   4.541  0.2864 -0.2801  0.0359
15240TIP3    H167135   1.850   5.973   4.451 -0.4741  1.1534  0.2626
15240TIP3    H267136   1.811   5.937   4.593  0.4297 -0.4375  0.1162
15241TIP3   OH267137   1.936   4.945  11.220 -0.1277  0.4632  0.4983
15241TIP3    H167138   1.978   4.875  11.169  0.1732  0.4605  0.7459
15241TIP3    H267139   1.990   4.952  11.299 -1.4495 -0.5502  1.5041
15242TIP3   OH267140   2.247   0.651   4.383 -0.0425  0.1225 -0.4763
15242TIP3    H167141   2.174   0.680   4.328  0.2131  0.7835 -0.4777
15242TIP3    H267142   2.318   0.634   4.321 -0.5702 -1.7744 -0.6041
15243TIP3   OH267143   6.645   5.803   5.758  0.3688 -0.2870 -0.4333
15243TIP3    H167144   6.667   5.881   5.707  1.4275 -0.5429 -0.3822
15243TIP3    H267145   6.694   5.813   5.840 -0.4080 -0.4432  0.0537
15244TIP3   OH267146   1.826   6.639  15.366 -0.5648  0.0222  0.8754
15244TIP3    H167147   1.780   6.720  15.390 -0.1813  0.1482  1.1839
15244TIP3    H267148   1.866   6.609  15.448  3.3390  2.0694 -0.1538
15245TIP3   OH267149   2.480   5.671  16.849  0.3825 -0.1809 -0.0051
15245TIP3    H167150   2.421   5.691  16.777  0.6672 -0.2444 -0.2582
15245TIP3    H267151   2.439   5.597  16.894 -0.4884  0.7217  0.7102
15246TIP3   OH267152   5.779   2.728   3.252  0.1117 -0.1936  0.3841
15246TIP3    H167153   5.721   2.804   3.248 -0.0212 -0.3817 -1.5302
15246TIP3    H267154   5.833   2.735   3.173  1.8583 -0.6998  1.4990
15247TIP3   OH267155   0.408   4.367   0.443  0.2857  0.7104  0.0502
15247TIP3    H167156   0.495   4.329   0.430  0.1448 -0.2230  1.7251
15247TIP3    H267157   0.352   4.321   0.381  0.7682  0.4938 -0.2235
15248TIP3   OH267158   4.073   0.890  12.784  0.3847  0.3307 -0.0404
15248TIP3    H167159   4.080   0.965  12.843 -0.1284 -0.3645  0.9227
15248TIP3    H267160   4.028   0.924  12.707 -2.5571  0.3560  1.6040
15249TIP3   OH267161   1.631   2.838  13.524  0.3475 -0.1423  0.0830
15249TIP3    H167162   1.541   2.870  13.516  0.4731  0.3290  0.4929
15249TIP3    H267163   1.676   2.906  13.574  0.8900 -0.4558  0.0261
15250TIP3   OH267164   2.865   5.428   2.123 -0.0316  0.0542 -0.4342
15250TIP3    H167165   2.894   5.408   2.212 -2.0094 -0.0578  0.2305
15250TIP3    H267166   2.881   5.521   2.112 -2.2236  0.6662  1.0716
15251TIP3   OH267167   4.129   3.792   3.018 -0.0458  0.1013  0.0840
15251TIP3    H167168   4.065   3.733   3.059 -2.6475  2.5926 -0.2776
15251TIP3    H267169   4.214   3.754   3.040 -1.5096 -1.1239  3.9535
15252TIP3   OH267170   0.435   0.639  13.519 -0.3320  0.4491  0.6240
15252TIP3    H167171   0.400   0.582  13.451  1.7220 -1.6947  1.3197
15252TIP3    H267172   0.358   0.664  13.571 -1.3762 -1.0523 -0.1731
15253TIP3   OH267173   5.289   1.187  16.377 -0.3341 -0.1144  0.2507
15253TIP3    H167174   5.281   1.279  16.400 -0.0988 -0.3755  1.3774
15253TIP3    H267175   5.223   1.143  16.430 -0.1735 -0.6456  0.0109
15254TIP3   OH267176   4.675   2.782   1.734  0.1148  0.5369 -0.0540
15254TIP3    H167177   4.677   2.686   1.735 -0.6910  0.5079 -0.9242
15254TIP3    H267178   4.583   2.804   1.727  0.1906  1.3985  1.4700
15255TIP3   OH267179   3.677   6.260   1.314  0.4297  0.3936 -0.1674
15255TIP3    H167180   3.706   6.347   1.342  0.8379 -0.3334  1.7966
15255TIP3    H267181   3.581   6.266   1.313  0.4601  0.9128 -0.1978
15256TIP3   OH267182   2.965   5.913   3.805 -0.1992  0.3805 -0.5988
15256TIP3    H167183   3.051   5.947   3.828 -0.2667  1.6981 -2.2615
15256TIP3    H267184   2.950   5.942   3.715 -3.3653  2.1392  0.4356
15257TIP3   OH267185   0.898   0.926  12.998 -0.0757 -0.0814  0.1229
15257TIP3    H167186   0.929   0.919  13.088  0.6138 -1.9152 -0.2574
15257TIP3    H267187   0.900   1.020  12.980 -0.5643  0.3435  2.1246
15258TIP3   OH267188   2.090   2.824   0.092 -0.1531 -0.2537 -0.3424
15258TIP3    H167189   2.126   2.891   0.151 -0.7709 -0.2289  0.0095
15258TIP3    H267190   1.996   2.822   0.112 -0.2510 -0.7367 -0.8386
15259TIP3   OH267191   6.083   0.327  13.531  0.5875  0.2760 -0.4817
15259TIP3    H167192   6.054   0.339  13.621 -0.2752 -0.0279 -0.7229
15259TIP3    H267193   6.004   0.306  13.482  0.8122  1.8995 -1.5777
15260TIP3   OH267194   2.643   5.781   2.272 -0.0743 -0.2382 -0.3609
15260TIP3    H167195   2.554   5.808   2.295 -0.3495 -0.5997 -1.0034
15260TIP3    H267196   2.637   5.687   2.255  0.2472 -0.0831 -1.3369
15261TIP3   OH267197   4.980   4.621   0.921  0.3692 -0.3466 -0.4362
15261TIP3    H167198   4.956   4.635   0.829 -0.7553  1.0051  0.0342
15261TIP3    H267199   4.937   4.539   0.945 -0.7619  0.1749 -0.6463
15262TIP3   OH267200   5.106   1.253   1.719 -0.1215  0.0286  0.2385
15262TIP3    H167201   5.122   1.314   1.791  2.5499 -1.1270  0.6719
15262TIP3    H267202   5.128   1.302   1.640  0.2101  0.2167  0.4488
15263TIP3   OH267203   0.653   4.346  13.912  0.3074  0.9789  0.1172
15263TIP3    H167204   0.601   4.426  13.911 -0.7495  0.3038 -1.5077
15263TIP3    H267205   0.599   4.282  13.865  2.8542  0.4553 -2.2170
15264TIP3   OH267206   2.401   3.711   2.323 -0.7447  0.2817  0.4698
15264TIP3    H167207   2.368   3.799   2.304  0.6359  1.1186  1.9047
15264TIP3    H267208   2.326   3.654   2.305 -1.1870  1.5700 -1.9895
15265TIP3   OH267209   4.489   3.009  15.656 -0.7613  0.1999  0.2278
15265TIP3    H167210   4.542   2.991  15.734  1.2723  2.5634 -0.5747
15265TIP3    H267211   4.544   2.982  15.582  0.0499  4.1607 -0.6990
15266TIP3   OH267212   6.496   4.202   6.288 -0.9023  0.0957  0.0262
15266TIP3    H167213   6.425   4.157   6.241  0.0774 -0.5136 -0.8980
15266TIP3    H267214   6.539   4.132   6.337 -0.4858  0.3355 -0.0034
15267TIP3   OH267215   4.730   5.007  14.897 -0.1888  0.6378  0.2769
15267TIP3    H167216   4.816   4.986  14.861 -0.8042 -1.7501  0.1306
15267TIP3    H267217   4.688   5.061  14.830  0.5571  0.4127 -0.3753
15268TIP3   OH267218   1.038   2.213   0.935  0.4833 -0.3940  0.1645
15268TIP3    H167219   1.099   2.260   0.878 -1.3367  1.6136 -0.1926
15268TIP3    H267220   1.067   2.235   1.024  1.7287 -1.3962  0.0094
15269TIP3   OH267221   3.259   5.638  13.119 -0.0573 -0.2924 -0.7505
15269TIP3    H167222   3.193   5.576  13.148  1.1106 -1.8887 -1.4567
15269TIP3    H267223   3.274   5.694  13.195 -3.2057  1.0145 -1.0047
15270TIP3   OH267224   4.664   6.098  12.805 -0.2529 -0.0540  0.6709
15270TIP3    H167225   4.732   6.085  12.870 -1.8745  1.0286  2.6504
15270TIP3    H267226   4.616   6.175  12.836 -0.9529  0.5892 -1.9046
15271TIP3   OH267227   0.062   5.386   2.473 -0.2227  0.0859 -0.0485
15271TIP3    H167228  -0.004   5.318   2.488  0.4163 -0.3825  0.6236
15271TIP3    H267229   0.045   5.451   2.541 -1.5582  1.1571 -1.3804
15272TIP3   OH267230   3.694   2.328   2.477 -0.3888 -0.1350  0.3862
15272TIP3    H167231   3.721   2.326   2.385  0.1335  1.6152  0.4907
15272TIP3    H267232   3.766   2.371   2.523 -0.5753 -1.1452  1.6464
15273TIP3   OH267233   5.866   1.898  15.923 -0.9059 -0.2150  0.8627
15273TIP3    H167234   5.942   1.928  15.972  0.0668 -1.7332  0.3244
15273TIP3    H267235   5.801   1.875  15.990 -0.4741  0.0020  1.3553
15274TIP3   OH267236   6.020   3.513  16.173  0.1798  0.0153  0.4746
15274TIP3    H167237   6.037   3.467  16.090  0.3408  1.6677 -0.4205
15274TIP3    H267238   5.929   3.489  16.194  0.0839 -0.2935 -0.2504
15275TIP3   OH267239   1.143   4.950  15.481  0.0664 -0.5460  0.0292
15275TIP3    H167240   1.154   5.040  15.513 -1.5920 -0.3849  0.1796
15275TIP3    H267241   1.093   4.907  15.550 -1.2179 -0.9324 -1.1341
15276TIP3   OH267242   6.155   0.471   1.181  0.2932  0.3000 -0.2204
15276TIP3    H167243   6.176   0.500   1.270  0.5622  0.3440 -0.2990
15276TIP3    H267244   6.161   0.550   1.128  0.7707  0.1517 -0.3886
15277TIP3   OH267245   6.142   1.768  11.699 -0.2480  1.1676 -0.1623
15277TIP3    H167246   6.059   1.799  11.735  0.2588  1.2568  0.9692
15277TIP3    H267247   6.194   1.745  11.776  1.6070  3.2191 -0.7516
15278TIP3   OH267248   2.238   0.156  11.889 -0.2179  0.0728  0.8075
15278TIP3    H167249   2.296   0.215  11.938 -0.9544  1.7104 -0.2522
15278TIP3    H267250   2.156   0.157  11.939 -1.0030  1.8242 -0.4672
15279TIP3   OH267251   1.844   4.522  12.723 -0.3126 -0.4515  0.3009
15279TIP3    H167252   1.822   4.457  12.790  1.7298 -2.0366 -0.5302
15279TIP3    H267253   1.919   4.485  12.677  0.0584  1.9004 -1.0610
15280TIP3   OH267254   5.013   2.972  11.220 -0.2196  0.0696 -0.2910
15280TIP3    H167255   5.040   2.881  11.209  0.8803 -0.1242  3.2760
15280TIP3    H267256   5.093   3.022  11.208 -0.2632  0.3302  0.4863
15281TIP3   OH267257   3.577   1.725   5.912 -0.2455 -0.0817 -0.0941
15281TIP3    H167258   3.556   1.764   5.997 -2.7378 -1.7746  0.1180
15281TIP3    H267259   3.626   1.646   5.933 -1.4682 -0.8744 -0.1685
15282TIP3   OH267260   2.132   4.367  12.717  0.2120  0.1946 -0.1265
15282TIP3    H167261   2.069   4.298  12.699  0.9137 -0.5661  0.2603
15282TIP3    H267262   2.217   4.325  12.703  0.6309  1.1146 -0.3446
15283TIP3   OH267263   2.567   6.618   2.254 -0.0865  0.3843  0.2638
15283TIP3    H167264   2.661   6.618   2.234 -0.3230  1.3112 -0.8766
15283TIP3    H267265   2.557   6.549   2.319  1.4522  0.5333  0.6956
15284TIP3   OH267266   6.573   3.409   3.886  0.0861 -0.0004  0.0169
15284TIP3    H167267   6.620   3.473   3.833 -2.2981 -0.5453 -2.8892
15284TIP3    H267268   6.504   3.459   3.929 -0.9861 -0.3980 -1.2417
15285TIP3   OH267269   3.472   6.323   4.503 -0.2635 -0.1393  0.6145
15285TIP3    H167270   3.484   6.417   4.486 -0.7759 -0.1196  0.3536
15285TIP3    H267271   3.406   6.320   4.573 -0.8781 -0.3283  0.0311
15286TIP3   OH267272   5.520   3.301  12.888  0.2659 -0.1163 -0.0344
15286TIP3    H167273   5.501   3.394  12.892 -2.8091 -0.6718 -0.2773
15286TIP3    H267274   5.470   3.263  12.961  1.4829 -1.5891  0.0768
15287TIP3   OH267275   1.746   0.351   0.348  0.1526  0.1195 -0.5017
15287TIP3    H167276   1.698   0.395   0.418  0.3935 -0.4366  0.0145
15287TIP3    H267277   1.827   0.321   0.389  1.3200  1.7370 -1.5532
15288TIP3   OH267278   4.777   5.752  12.311  0.1672  0.0909 -0.2567
15288TIP3    H167279   4.814   5.712  12.389  1.8953 -1.2500 -1.7388
15288TIP3    H267280   4.725   5.683  12.270  0.6249  0.2865 -1.1804
15289TIP3   OH267281   4.956   0.232   0.872 -0.0962 -0.5003  0.2960
15289TIP3    H167282   5.028   0.193   0.822  0.9156  0.7597  0.7214
15289TIP3    H267283   4.999   0.273   0.948 -1.2279  0.5136  0.4145
15290TIP3   OH267284   0.071   0.056  15.878  0.0746 -0.5447 -0.0544
15290TIP3    H167285   0.106  -0.033  15.882  1.2818 -0.1199 -0.9599
15290TIP3    H267286   0.112   0.095  15.801 -1.6642  0.2889 -0.5981
15291TIP3   OH267287   0.493   5.382  11.135  0.1645  0.4226 -0.3624
15291TIP3    H167288   0.414   5.337  11.104 -0.1303  1.5529 -1.2520
15291TIP3    H267289   0.465   5.472  11.152  0.1836 -0.2154  3.6818
15292TIP3   OH267290   4.568   5.459  12.845 -0.5247  0.0234 -0.0038
15292TIP3    H167291   4.570   5.426  12.934  2.6201 -1.2311 -0.4725
15292TIP3    H267292   4.544   5.383  12.791  1.8881 -0.3599 -0.6038
15293TIP3   OH267293   2.472   0.774   0.620 -0.1304  0.2190  0.6165
15293TIP3    H167294   2.495   0.746   0.709 -0.4081 -2.4802 -0.1197
15293TIP3    H267295   2.430   0.697   0.581 -1.2737  1.8226 -1.3944
15294TIP3   OH267296   5.726   6.450  15.813  0.3599  0.0626  0.0235
15294TIP3    H167297   5.667   6.472  15.885 -0.4860 -1.0214 -0.3331
15294TIP3    H267298   5.669   6.440  15.737  1.1000 -0.1542 -0.5135
15295TIP3   OH267299   1.168   4.483   2.111 -0.6618 -0.3172  0.4633
15295TIP3    H167300   1.228   4.476   2.037 -1.3066  0.7041 -0.1786
15295TIP3    H267301   1.136   4.573   2.107 -0.0522  0.0154  2.5137
15296TIP3   OH267302   1.854   4.460   6.633 -0.0972 -0.1168  0.7397
15296TIP3    H167303   1.878   4.529   6.571 -0.0702  0.8591  1.8146
15296TIP3    H267304   1.769   4.429   6.602 -0.0904  0.3640  0.2209
15297TIP3   OH267305   3.839   0.994   2.936 -0.2417  0.2700  0.0105
15297TIP3    H167306   3.806   1.048   3.008  2.0370 -0.1649  1.4470
15297TIP3    H267307   3.905   1.048   2.894  0.5305 -0.5895  0.1115
15298TIP3   OH267308   6.230   0.305   2.652 -0.7152 -0.4464 -0.4153
15298TIP3    H167309   6.158   0.367   2.662 -1.4193 -1.0186 -1.7367
15298TIP3    H267310   6.190   0.219   2.664  0.1816 -0.6803  1.0325
15299TIP3   OH267311   0.514   1.526   3.238  0.2702  0.7171 -0.0094
15299TIP3    H167312   0.541   1.476   3.161 -1.9774 -0.3433 -0.1281
15299TIP3    H267313   0.522   1.464   3.311 -0.2530  0.8951  0.2004
15300TIP3   OH267314   5.157   3.981   5.325 -0.1755  0.4948  0.1281
15300TIP3    H167315   5.224   4.038   5.287 -0.5077  0.5775 -0.3458
15300TIP3    H267316   5.206   3.916   5.375  0.1246  3.0139  3.2654
15301TIP3   OH267317   0.011   3.697   5.746  0.0644 -0.4705 -0.3929
15301TIP3    H167318   0.062   3.688   5.827 -0.1727  2.7389  0.1887
15301TIP3    H267319   0.047   3.632   5.687  3.5287  0.3584  0.6915
15302TIP3   OH267320   6.708   3.093  15.817  0.1182 -0.1533  0.1689
15302TIP3    H167321   6.635   3.054  15.866 -0.9991  1.0595 -0.5040
15302TIP3    H267322   6.712   3.184  15.848  0.1732  0.2894 -1.1154
15303TIP3   OH267323   4.520   1.380  15.844  0.7924 -0.3925  0.0037
15303TIP3    H167324   4.425   1.371  15.850  0.7105 -0.5983 -1.4918
15303TIP3    H267325   4.553   1.290  15.843  1.0681 -0.3211  1.2261
15304TIP3   OH267326   5.311   5.010   3.115 -0.4391 -0.0149 -0.3741
15304TIP3    H167327   5.276   5.098   3.101 -1.2999  0.4492  3.9592
15304TIP3    H267328   5.260   4.976   3.189 -0.2937 -4.2736 -2.1544
15305TIP3   OH267329   0.290   2.922   2.854  0.4629  0.3636  0.0436
15305TIP3    H167330   0.260   3.010   2.876 -0.8226 -0.2005  0.5716
15305TIP3    H267331   0.263   2.868   2.928 -1.8396 -1.1162 -1.7749
15306TIP3   OH267332   1.901   5.002  11.686 -0.4093 -0.1234 -0.0885
15306TIP3    H167333   1.884   5.059  11.761  1.6327  1.3232 -0.7000
15306TIP3    H267334   1.831   5.022  11.624 -1.2748 -0.2960  0.8227
15307TIP3   OH267335   3.698   4.925  17.106  0.3488 -0.0972 -0.1769
15307TIP3    H167336   3.722   4.873  17.183 -0.1319 -0.4662 -0.2797
15307TIP3    H267337   3.646   4.866  17.051 -0.8770  0.7301  0.0777
15308TIP3   OH267338   5.204   3.227   1.219  0.1511  0.0593 -0.6162
15308TIP3    H167339   5.290   3.190   1.203  0.7460  0.3585  1.6727
15308TIP3    H267340   5.144   3.169   1.172  1.3656 -1.8060  0.0716
15309TIP3   OH267341   3.599   5.789  11.333  0.6653 -0.0628  0.4184
15309TIP3    H167342   3.537   5.741  11.387  1.0017  1.2419  2.0174
15309TIP3    H267343   3.604   5.876  11.374  2.2484  0.3908 -0.6797
15310TIP3   OH267344   2.901   1.167  13.074 -0.0432  0.6765 -0.1186
15310TIP3    H167345   2.806   1.161  13.087  0.0477  0.1123  0.2992
15310TIP3    H267346   2.930   1.232  13.138  0.1112 -0.5698  1.1217
15311TIP3   OH267347   5.861   0.850   4.760  0.0849  0.1416 -0.1159
15311TIP3    H167348   5.929   0.819   4.820  1.3860  1.8978 -0.6387
15311TIP3    H267349   5.804   0.774   4.747  1.6861 -1.2376  0.6862
15312TIP3   OH267350   5.964   2.655   3.489  0.2000 -0.0210  0.3837
15312TIP3    H167351   5.915   2.667   3.407  1.4746  0.4048 -0.3296
15312TIP3    H267352   6.007   2.571   3.479  0.0586 -0.1426  0.7847
15313TIP3   OH267353   4.528   0.813   3.348 -0.3354  0.3675  0.0101
15313TIP3    H167354   4.565   0.896   3.379 -1.0583  0.9998 -0.7803
15313TIP3    H267355   4.436   0.832   3.333 -0.2554 -0.2384 -1.3455
15314TIP3   OH267356   2.087   4.566   1.922 -0.2869 -0.6429  0.2653
15314TIP3    H167357   2.057   4.565   2.013 -0.8741  1.8117  0.1385
15314TIP3    H267358   2.182   4.578   1.928 -0.4980  0.9688  0.5483
15315TIP3   OH267359   4.556   4.310   2.369  0.3505 -0.1603  0.1003
15315TIP3    H167360   4.562   4.374   2.298  0.2257  0.1703  0.3853
15315TIP3    H267361   4.484   4.253   2.343 -0.9770  1.1114  0.8720
15316TIP3   OH267362   5.204   0.231   0.687  0.2296  0.8627  0.4328
15316TIP3    H167363   5.286   0.225   0.736  0.1313 -0.7035  0.4160
15316TIP3    H267364   5.197   0.324   0.664  2.7690  0.7556 -0.9142
15317TIP3   OH267365   5.557   1.281   2.106  0.1159  0.2477  0.2364
15317TIP3    H167366   5.541   1.302   2.198 -1.7601  0.2732 -0.0713
15317TIP3    H267367   5.475   1.241   2.076  1.1649 -0.9836 -1.0774
15318TIP3   OH267368   1.906   1.215  14.412  0.4188  0.5059 -0.0810
15318TIP3    H167369   1.856   1.271  14.471  2.4536  1.8551  0.4212
15318TIP3    H267370   1.990   1.259  14.403  0.8675 -0.7457 -2.3803
15319TIP3   OH267371   6.482   3.337   5.648 -0.0132 -0.5133  0.0895
15319TIP3    H167372   6.577   3.352   5.648  0.3619 -2.7193  0.8477
15319TIP3    H267373   6.470   3.261   5.704 -2.0773 -1.2584 -1.3137
15320TIP3   OH267374   5.565   0.515   3.776  0.1009 -0.3126  0.0441
15320TIP3    H167375   5.506   0.573   3.728  0.2961  0.0163  0.1991
15320TIP3    H267376   5.648   0.562   3.778  0.7822 -1.4317 -1.4718
15321TIP3   OH267377   1.807   2.573  16.035 -0.6885 -0.4778 -0.0597
15321TIP3    H167378   1.767   2.517  15.969 -1.4979 -0.8846  0.7605
15321TIP3    H267379   1.881   2.614  15.990  0.4997 -2.9101 -0.4223
15322TIP3   OH267380   1.127   5.379  12.933  0.3751  0.0566  0.3336
15322TIP3    H167381   1.062   5.320  12.894  1.6263 -1.2917  0.2334
15322TIP3    H267382   1.209   5.355  12.891  0.8445  2.1492  0.0448
15323TIP3   OH267383   2.723   1.159   1.457  0.6730 -0.0209 -0.2710
15323TIP3    H167384   2.766   1.210   1.525 -0.8190 -1.5233  1.8564
15323TIP3    H267385   2.770   1.076   1.456  0.1436 -0.3196 -0.4887
15324TIP3   OH267386   2.185   5.477  11.198  0.8078 -0.0529 -0.4310
15324TIP3    H167387   2.157   5.548  11.140  0.4886  1.4932  1.5633
15324TIP3    H267388   2.241   5.520  11.263  0.2908 -1.5614  1.0326
15325TIP3   OH267389   3.116   0.916   4.214  0.3311 -0.1022  0.1065
15325TIP3    H167390   3.207   0.941   4.200  1.0515 -2.5254  0.1539
15325TIP3    H267391   3.121   0.830   4.255 -1.9945 -1.3007 -1.9746
15326TIP3   OH267392   3.327   2.677  11.272 -0.0318  0.0280 -0.2399
15326TIP3    H167393   3.357   2.763  11.242 -3.1196  1.6730  1.1899
15326TIP3    H267394   3.244   2.663  11.227 -0.2303 -1.5955  0.5978
15327TIP3   OH267395   3.213   2.373   0.287 -0.4535  0.6214  0.1819
15327TIP3    H167396   3.301   2.361   0.323 -0.3916  0.5253 -0.0007
15327TIP3    H267397   3.198   2.468   0.292 -0.2126  0.6731 -0.0879
15328TIP3   OH267398   2.018   0.531  16.533  0.8074  0.0032  0.8709
15328TIP3    H167399   1.933   0.488  16.529  0.8212 -0.0819  1.3917
15328TIP3    H267400   2.011   0.591  16.608  0.2806  1.9993 -0.7197
15329TIP3   OH267401   3.918   5.562   3.928 -0.2213 -0.4041  0.4275
15329TIP3    H167402   3.936   5.643   3.880  1.6868 -1.0837 -0.0783
15329TIP3    H267403   3.879   5.504   3.863  1.6923 -1.0767 -0.1531
15330TIP3   OH267404   6.752   2.931   2.535 -0.3448 -0.6067  0.4492
15330TIP3    H167405   6.757   3.024   2.513 -0.3705 -0.6624  0.2023
15330TIP3    H267406   6.843   2.907   2.556 -0.0604 -0.9071 -1.0816
15331TIP3   OH267407   0.728   5.093  16.139 -0.5918  0.0609 -0.2564
15331TIP3    H167408   0.814   5.135  16.139 -0.5530  0.1201  2.8720
15331TIP3    H267409   0.701   5.094  16.048  1.9341  1.6641 -1.0541
15332TIP3   OH267410   1.720   6.573  17.129 -0.4924 -0.3938  0.5010
15332TIP3    H167411   1.811   6.556  17.151 -0.0216 -0.8471 -1.6900
15332TIP3    H267412   1.688   6.629  17.199  1.9461  1.1411  0.4309
15333TIP3   OH267413   3.515   1.172   3.409  0.3530  0.3003  0.4087
15333TIP3    H167414   3.428   1.201   3.382 -0.9638 -2.8617  1.1222
15333TIP3    H267415   3.511   1.165   3.504  1.2185 -0.3577  0.4080
15334TIP3   OH267416   6.311   4.800  11.980 -0.2037 -0.1152 -0.0524
15334TIP3    H167417   6.349   4.769  11.898 -0.3508  0.5582 -0.3793
15334TIP3    H267418   6.252   4.730  12.007  1.3572 -1.2397  0.5375
15335TIP3   OH267419   0.380   5.523   0.060  0.1122  0.1961  0.0049
15335TIP3    H167420   0.448   5.568   0.111 -0.0503 -0.9953  1.3201
15335TIP3    H267421   0.428   5.457   0.010 -0.1726 -1.6510  2.0578
15336TIP3   OH267422   2.158   4.633  12.201 -0.3678 -0.5824  0.0861
15336TIP3    H167423   2.084   4.588  12.162  0.6937 -1.7463 -0.6434
15336TIP3    H267424   2.230   4.619  12.139  0.7344 -0.4143  1.2984
15337TIP3   OH267425   5.491   4.322  14.503 -0.1955  0.3284  0.2366
15337TIP3    H167426   5.481   4.253  14.569 -2.3646  0.2572 -0.1373
15337TIP3    H267427   5.493   4.403  14.553 -1.3013  0.2349  0.4570
15338TIP3   OH267428   1.248   4.417  11.390  0.2920 -0.2547 -0.1038
15338TIP3    H167429   1.199   4.403  11.471  2.4211  0.6483  1.3881
15338TIP3    H267430   1.317   4.350  11.391  1.0117  0.4650 -0.5908
15339TIP3   OH267431   0.828   1.741   4.549  0.5086 -0.6823 -0.1368
15339TIP3    H167432   0.879   1.773   4.623 -0.1081 -0.6088  0.2629
15339TIP3    H267433   0.883   1.674   4.508  0.4340 -1.4187  0.9751
15340TIP3   OH267434   2.883   5.974  11.446 -0.3482  0.1779 -0.5047
15340TIP3    H167435   2.939   6.049  11.465 -0.8837  0.3163  0.5944
15340TIP3    H267436   2.797   6.013  11.428 -0.3731 -0.1053 -1.0151
15341TIP3   OH267437   4.406   3.464  11.412  0.4957 -0.3472 -0.4616
15341TIP3    H167438   4.486   3.491  11.456  0.2575 -1.8719  0.9519
15341TIP3    H267439   4.435   3.395  11.352  0.2804 -0.7464 -0.1091
15342TIP3   OH267440   5.446   1.754  17.090  0.1040 -0.9087 -0.3562
15342TIP3    H167441   5.368   1.731  17.140 -1.2685  0.6525 -1.7161
15342TIP3    H267442   5.416   1.759  17.000  1.3960  1.3539 -0.6952
15343TIP3   OH267443   2.048   5.647  12.426 -0.2047  0.2601 -0.4937
15343TIP3    H167444   1.979   5.663  12.361 -1.6390  1.4589  1.2588
15343TIP3    H267445   2.026   5.561  12.464  0.7614 -0.5430 -1.7217
15344TIP3   OH267446   1.640   5.223  14.868 -0.7034  0.3977  0.0795
15344TIP3    H167447   1.668   5.156  14.931 -1.1080  0.8295  0.7192
15344TIP3    H267448   1.654   5.182  14.783  3.2562  1.0798  0.2746
15345TIP3   OH267449   5.967   3.314  15.925  0.2249 -0.3718  0.4725
15345TIP3    H167450   6.062   3.311  15.908  0.3454  1.5955  0.7117
15345TIP3    H267451   5.929   3.334  15.839 -0.0241 -1.6284  0.2811
15346TIP3   OH267452   5.147   3.032  14.799 -0.2569 -0.1889 -0.1942
15346TIP3    H167453   5.121   3.069  14.883 -0.5280  0.2681 -0.4738
15346TIP3    H267454   5.240   3.053  14.791 -0.5156  0.8441 -0.5540
15347TIP3   OH267455   0.092   4.386   1.770 -0.3488  0.6807  0.8237
15347TIP3    H167456   0.007   4.421   1.796 -0.7193  1.2217 -1.0074
15347TIP3    H267457   0.080   4.291   1.772 -1.4182  0.7541 -0.6349
15348TIP3   OH267458   1.017   3.273   5.528 -0.0151 -0.0397  0.1136
15348TIP3    H167459   1.064   3.300   5.449 -2.0988 -0.7004 -1.4059
15348TIP3    H267460   0.972   3.353   5.557  1.1525  0.3273  0.9446
15349TIP3   OH267461   5.679   6.477   2.736  0.1960 -0.0911 -0.6581
15349TIP3    H167462   5.633   6.406   2.692  0.5492 -0.6135 -0.1886
15349TIP3    H267463   5.749   6.434   2.785  0.0765  0.5165  0.0614
15350TIP3   OH267464   0.615   0.531   0.479 -0.2668  0.7960 -0.2979
15350TIP3    H167465   0.638   0.619   0.509 -1.2628  0.8548  0.3176
15350TIP3    H267466   0.651   0.472   0.545 -0.0093  0.7566 -0.4688
15351TIP3   OH267467   3.415   5.785   2.144  0.0902 -0.1147  0.1588
15351TIP3    H167468   3.493   5.835   2.169  0.4536 -0.2116 -0.7799
15351TIP3    H267469   3.449   5.712   2.092 -0.4194 -1.4065  1.5903
15352TIP3   OH267470   5.840   3.261  14.752  0.0093  0.7633 -0.3155
15352TIP3    H167471   5.917   3.313  14.779  0.4745 -0.2814  0.4108
15352TIP3    H267472   5.768   3.296  14.805  0.9541 -1.3997  2.5662
15353TIP3   OH267473   3.728   0.994   1.013 -0.3060  0.6967  0.0613
15353TIP3    H167474   3.760   1.060   1.075  1.9320  0.1097 -0.4230
15353TIP3    H267475   3.783   1.005   0.936 -1.2907 -0.3697 -0.8172
15354TIP3   OH267476   5.498   5.835   2.550  0.5126 -0.0151  0.0813
15354TIP3    H167477   5.454   5.785   2.481 -0.5627  0.0788  0.7022
15354TIP3    H267478   5.565   5.775   2.583  0.3260 -0.4449 -0.3112
15355TIP3   OH267479   1.228   5.284  12.155  0.5336 -0.2929 -0.3044
15355TIP3    H167480   1.169   5.208  12.147 -0.2608  0.1879  0.8020
15355TIP3    H267481   1.195   5.346  12.091  1.2255 -0.9073 -1.2598
15356TIP3   OH267482   1.763   6.632   5.341  0.0388 -0.0884 -0.0825
15356TIP3    H167483   1.857   6.652   5.334 -0.3422  1.3474 -1.4939
15356TIP3    H267484   1.733   6.628   5.250 -1.0171 -1.9032  0.3237
15357TIP3   OH267485   6.459   0.584  16.067 -0.6301 -0.0178 -0.2958
15357TIP3    H167486   6.489   0.502  16.106  0.8534  0.3693 -0.6152
15357TIP3    H267487   6.440   0.640  16.142  2.2487  0.7388 -0.0787
15358TIP3   OH267488   0.410   1.580  10.451 -0.1058 -0.3717  0.5461
15358TIP3    H167489   0.384   1.573  10.543 -1.8792 -2.6898 -0.0692
15358TIP3    H267490   0.370   1.503  10.409 -0.9437  1.6429 -2.5355
15359TIP3   OH267491   2.216   3.816  16.412 -0.0284  0.4101  0.1972
15359TIP3    H167492   2.164   3.863  16.477 -0.6681 -1.0875  0.7993
15359TIP3    H267493   2.250   3.740  16.459  2.9104  1.4496 -0.1250
15360TIP3   OH267494   6.611   0.088   4.499  0.4405 -0.8632 -0.2412
15360TIP3    H167495   6.564   0.009   4.526 -0.7022  0.5033  1.8484
15360TIP3    H267496   6.564   0.118   4.422 -1.9413  0.2734  1.6076
15361TIP3   OH267497   2.400   3.969   0.715 -0.0917 -0.2464 -0.0500
15361TIP3    H167498   2.414   3.975   0.809  1.2783 -1.5446 -0.1440
15361TIP3    H267499   2.328   3.906   0.706 -0.1390 -0.2197  0.1371
15362TIP3   OH267500   0.451   0.852   4.405  0.1673  0.5691 -0.1313
15362TIP3    H167501   0.434   0.767   4.364 -0.5194  1.5529 -1.9114
15362TIP3    H267502   0.528   0.885   4.359  0.4485  0.9276  0.5832
15363TIP3   OH267503   3.810   5.788  16.171  0.0906  0.3781 -1.1185
15363TIP3    H167504   3.729   5.788  16.119  0.2497  1.5147 -1.3758
15363TIP3    H267505   3.793   5.725  16.241 -1.4412  1.3715 -0.5543
15364TIP3   OH267506   0.864   3.832   0.511  0.1711 -0.0711  0.5026
15364TIP3    H167507   0.801   3.868   0.448 -1.3371 -0.3478  1.8203
15364TIP3    H267508   0.922   3.905   0.530  1.2774 -0.2497 -1.9411
15365TIP3   OH267509   1.182   1.590  14.805  0.4543  1.0660 -0.5002
15365TIP3    H167510   1.166   1.669  14.857  1.7655 -0.1802  1.9393
15365TIP3    H267511   1.105   1.535  14.821  1.2104  0.3573  0.8345
15366TIP3   OH267512   1.107   0.054  15.398  0.0407  0.2465 -0.1181
15366TIP3    H167513   1.145   0.071  15.312  0.2037 -1.0200 -0.3021
15366TIP3    H267514   1.034  -0.005  15.381 -0.5355  0.7616  0.5125
15367TIP3   OH267515   5.892   5.242   5.000 -0.2260 -0.2214 -0.3929
15367TIP3    H167516   5.976   5.285   4.985 -1.0425  1.3987 -0.4899
15367TIP3    H267517   5.852   5.294   5.070 -1.0388 -1.1282 -0.1829
15368TIP3   OH267518   1.553   2.407   5.639  0.5074 -0.3327  0.2259
15368TIP3    H167519   1.509   2.484   5.675  0.9842  0.1291 -0.1782
15368TIP3    H267520   1.520   2.400   5.549  1.6827  0.3465 -0.2646
15369TIP3   OH267521   3.401   1.366   2.411 -0.3390 -0.1177  0.8229
15369TIP3    H167522   3.311   1.354   2.380 -0.1793  1.6034 -0.3626
15369TIP3    H267523   3.451   1.299   2.365 -0.5177  0.8696 -0.8632
15370TIP3   OH267524   1.732   5.447  15.045 -0.3885 -0.1059 -0.3710
15370TIP3    H167525   1.695   5.392  14.976 -0.8635 -1.1780  0.7098
15370TIP3    H267526   1.659   5.463  15.104  0.3731 -0.4736  0.6792
15371TIP3   OH267527   4.316   4.849   3.105  0.3800  0.4432 -0.1647
15371TIP3    H167528   4.337   4.757   3.094 -0.0452  0.3135  0.0859
15371TIP3    H267529   4.286   4.856   3.196 -0.8636  0.5744 -0.5699
15372TIP3   OH267530   2.678   0.117   1.976 -0.3880 -0.7104 -0.8396
15372TIP3    H167531   2.748   0.145   1.917  0.2115 -0.1596  0.1030
15372TIP3    H267532   2.680   0.021   1.972  0.9774 -0.7247 -0.2041
15373TIP3   OH267533   6.016   0.066  13.848 -0.0401 -0.0536  0.3676
15373TIP3    H167534   6.043   0.153  13.877  1.6185 -0.9534  1.5536
15373TIP3    H267535   6.085   0.008  13.877 -1.6409 -1.9391  0.5069
15374TIP3   OH267536   3.894   0.634  14.323 -0.2323 -0.9363  0.4052
15374TIP3    H167537   3.914   0.727  14.334 -1.5419 -0.6332  0.3534
15374TIP3    H267538   3.853   0.629  14.237 -1.4833 -1.3314  1.0230
15375TIP3   OH267539   5.499   3.188   1.140  0.6670 -0.2730 -0.1061
15375TIP3    H167540   5.489   3.260   1.202  0.6088  0.0217 -0.4575
15375TIP3    H267541   5.589   3.197   1.107  0.6903 -0.4150 -0.0844
15376TIP3   OH267542   0.036   6.401   4.312  0.3660 -0.2372  0.6222
15376TIP3    H167543  -0.053   6.424   4.286  0.0724 -1.1148  0.8291
15376TIP3    H267544   0.066   6.476   4.363 -0.1171  0.2221  0.2380
15377TIP3   OH267545   1.570   5.544  14.646  0.2311 -0.1305  0.2130
15377TIP3    H167546   1.514   5.476  14.610 -0.3097  1.0186 -1.1233
15377TIP3    H267547   1.651   5.498  14.669 -0.3045 -1.3114 -0.2263
15378TIP3   OH267548   3.017   0.808   2.672  0.0411  0.3598 -0.2131
15378TIP3    H167549   2.937   0.756   2.672  0.9039 -1.0016  1.1488
15378TIP3    H267550   2.986   0.898   2.665 -1.6281 -0.1152  0.6716
15379TIP3   OH267551   3.183   2.417   3.181 -0.4010 -0.2046 -0.2673
15379TIP3    H167552   3.139   2.406   3.265 -0.9954  0.5261 -0.4754
15379TIP3    H267553   3.142   2.352   3.124 -0.8116  0.0828 -0.3031
15380TIP3   OH267554   0.467   3.021  14.117 -0.0188 -0.1462  0.1615
15380TIP3    H167555   0.558   3.018  14.090  0.2927  1.2502  0.9780
15380TIP3    H267556   0.417   3.001  14.038  0.9378  1.1290 -0.7815
15381TIP3   OH267557   6.075   5.393   1.307  0.6873  0.1600 -0.0351
15381TIP3    H167558   6.111   5.426   1.225  3.2835 -0.5867  0.7802
15381TIP3    H267559   6.028   5.468   1.343 -0.2604  0.5766 -2.0398
15382TIP3   OH267560   4.294   4.294   2.277 -0.1618  0.2765 -0.4597
15382TIP3    H167561   4.280   4.224   2.213  1.6486  0.1726 -0.7667
15382TIP3    H267562   4.266   4.374   2.232 -1.1686 -0.0859 -0.5037
15383TIP3   OH267563   4.516   5.563   5.487 -0.0498  0.1561  0.0229
15383TIP3    H167564   4.472   5.489   5.445  0.0181  0.2751 -0.2659
15383TIP3    H267565   4.483   5.564   5.576 -1.5035  0.9287 -0.5119
15384TIP3   OH267566   5.198   5.714   5.659  0.2207 -0.3468  0.6919
15384TIP3    H167567   5.196   5.711   5.755 -0.0940  0.3957  0.7082
15384TIP3    H267568   5.291   5.705   5.638  0.6663  2.4164  1.1898
15385TIP3   OH267569   6.721   1.889  15.929  0.3696  0.0420  0.0945
15385TIP3    H167570   6.697   1.870  15.839  1.7648  2.6594 -0.9134
15385TIP3    H267571   6.657   1.954  15.958 -0.1664 -0.9048  1.0349
15386TIP3   OH267572   0.747   2.249  16.337  0.1053  0.3922  0.3063
15386TIP3    H167573   0.816   2.246  16.271  0.5125  1.1104  0.6930
15386TIP3    H267574   0.726   2.341  16.345 -0.6831  0.2007  0.4203
15387TIP3   OH267575   4.884   0.372   0.284 -0.4572 -0.1998 -0.0237
15387TIP3    H167576   4.866   0.319   0.206 -0.1280 -1.1676  0.5502
15387TIP3    H267577   4.979   0.384   0.282 -0.4224 -0.4070  0.3344
15388TIP3   OH267578   3.386   0.704  12.491  0.4551  0.0401 -0.0567
15388TIP3    H167579   3.473   0.744  12.491 -0.0695  1.2194 -1.1262
15388TIP3    H267580   3.341   0.742  12.566  0.2500  0.7963 -0.5649
15389TIP3   OH267581   6.180   3.445   5.523 -0.1102  0.1090  0.1846
15389TIP3    H167582   6.104   3.497   5.501 -0.5262 -1.4888 -2.3626
15389TIP3    H267583   6.144   3.365   5.562  0.2421 -0.4361 -0.5797
15390TIP3   OH267584   5.307   1.804   4.747  0.2190  0.3357 -0.1244
15390TIP3    H167585   5.212   1.807   4.733  0.3155  0.0024 -0.9160
15390TIP3    H267586   5.334   1.895   4.747  0.3019  0.3752 -3.0232
15391TIP3   OH267587   0.564   2.682  16.266 -0.0232  0.6976  0.9410
15391TIP3    H167588   0.508   2.651  16.337 -0.6493  2.9978  1.4937
15391TIP3    H267589   0.504   2.713  16.199  0.5784 -0.3012 -0.0691
15392TIP3   OH267590   2.087   5.976  16.375  0.1465  0.2180 -0.6343
15392TIP3    H167591   2.144   5.940  16.308  0.9064  0.8542 -0.3380
15392TIP3    H267592   2.145   5.997  16.448 -0.6154 -0.1202  0.0845
15393TIP3   OH267593   2.088   2.117   2.523 -0.4206  0.0300 -0.3647
15393TIP3    H167594   2.109   2.100   2.431 -1.9819  1.0459 -0.9294
15393TIP3    H267595   2.029   2.192   2.520 -1.3373 -0.6141  1.4030
15394TIP3   OH267596   1.761   3.839  16.847 -0.0748  0.3524  0.1413
15394TIP3    H167597   1.810   3.896  16.906 -0.6195  1.3598 -0.3509
15394TIP3    H267598   1.799   3.752  16.859  3.5282  1.5367 -2.0211
15395TIP3   OH267599   5.029   2.477  16.122  0.5296  0.2893 -0.5648
15395TIP3    H167600   5.098   2.533  16.085  0.5285  0.6378 -0.0358
15395TIP3    H267601   5.043   2.392  16.080  1.1741  0.4055 -0.5955
15396TIP3   OH267602   5.491   6.520   4.190  0.1191 -0.7634 -0.3483
15396TIP3    H167603   5.524   6.581   4.124 -1.4365 -0.5158 -0.9180
15396TIP3    H267604   5.488   6.435   4.145  0.3785 -0.8728 -0.1631
15397TIP3   OH267605   0.265   2.744   6.003 -0.0963  0.8577  0.4186
15397TIP3    H167606   0.330   2.813   6.016 -0.6879  1.6880 -0.9096
15397TIP3    H267607   0.199   2.761   6.070  0.1779  1.1051  0.6271
15398TIP3   OH267608   4.403   4.756  12.571 -0.2491 -0.2054  0.2340
15398TIP3    H167609   4.315   4.739  12.603 -1.2987  1.6283 -1.5805
15398TIP3    H267610   4.460   4.732  12.645 -2.4023  1.0253  2.3800
15399TIP3   OH267611   2.183   4.226  16.180  0.5033 -0.0310 -0.0598
15399TIP3    H167612   2.206   4.266  16.096  0.4273  1.6165  0.6885
15399TIP3    H267613   2.163   4.300  16.237  1.1453 -1.1109  1.5925
15400TIP3   OH267614   5.882   3.182  16.689  0.0734  0.1031  0.6678
15400TIP3    H167615   5.934   3.207  16.766  0.5328  1.5134 -0.0828
15400TIP3    H267616   5.934   3.114  16.646  1.2741  1.4107 -0.0064
15401TIP3   OH267617   0.464   6.696   2.155  0.2988  0.3641 -0.4548
15401TIP3    H167618   0.391   6.688   2.217  0.9120  0.2461  0.2613
15401TIP3    H267619   0.475   6.608   2.120  0.5840  0.2199 -0.0030
15402TIP3   OH267620   6.605   0.635   5.880 -0.1348  0.2879 -1.0344
15402TIP3    H167621   6.548   0.559   5.879 -2.1924  1.7137  0.9659
15402TIP3    H267622   6.691   0.601   5.903 -0.8344 -1.5201 -1.0310
15403TIP3   OH267623   0.452   2.082   6.021  0.0030 -0.2511  0.3873
15403TIP3    H167624   0.374   2.031   6.041  0.3949 -0.6684  0.8933
15403TIP3    H267625   0.502   2.083   6.103  0.8090 -0.5028 -0.0925
15404TIP3   OH267626   2.423   3.379  12.494 -0.3689  0.1445 -0.4500
15404TIP3    H167627   2.455   3.418  12.413 -1.6688 -0.5978 -1.3370
15404TIP3    H267628   2.489   3.402  12.560 -0.2448  2.3509 -1.3127
15405TIP3   OH267629   6.538   4.557  13.223 -0.1388 -0.3196  0.0859
15405TIP3    H167630   6.564   4.641  13.187 -0.8573  0.6062  1.6599
15405TIP3    H267631   6.461   4.532  13.172 -1.6406  1.3668  1.4440
15406TIP3   OH267632   0.887   4.969   2.930  0.6407 -0.8336 -0.1101
15406TIP3    H167633   0.868   5.023   3.006 -0.1873 -0.3392 -0.6601
15406TIP3    H267634   0.922   4.888   2.966 -0.9537 -1.1148  0.8657
15407TIP3   OH267635   2.135   5.328   5.096 -0.0068  0.5465  0.1313
15407TIP3    H167636   2.060   5.276   5.066 -0.4644 -0.3448  2.6956
15407TIP3    H267637   2.099   5.415   5.110 -0.2701  0.4452  0.1078
15408TIP3   OH267638   4.864   0.207  15.536 -0.1487 -0.3381  0.5170
15408TIP3    H167639   4.773   0.193  15.562 -0.4456  1.3111  0.3974
15408TIP3    H267640   4.863   0.287  15.485  1.2310 -0.8479 -0.3554
15409TIP3   OH267641   4.511   0.963  11.430  0.0628  0.3675 -0.4840
15409TIP3    H167642   4.465   0.881  11.413  1.1848 -0.0346 -1.7097
15409TIP3    H267643   4.540   0.956  11.521  1.1378 -1.1124 -0.9164
15410TIP3   OH267644   1.179   6.190   2.836 -0.0879  1.3103  0.1328
15410TIP3    H167645   1.260   6.210   2.790  0.5677  0.3248  0.8372
15410TIP3    H267646   1.161   6.267   2.889  0.7071  1.2945  0.4227
15411TIP3   OH267647   6.092   2.366   4.345 -0.2088 -0.6212 -0.9397
15411TIP3    H167648   6.051   2.371   4.259  2.2150 -2.6703 -2.2951
15411TIP3    H267649   6.137   2.450   4.355 -1.4784  0.0897 -1.1474
15412TIP3   OH267650   3.844   2.903  16.452 -0.2497 -0.1041 -0.1564
15412TIP3    H167651   3.771   2.895  16.514  0.6589  0.3145  1.0054
15412TIP3    H267652   3.905   2.834  16.479  1.2133  1.5384  0.9414
15413TIP3   OH267653   1.463   5.155  12.189  0.1589  0.2058 -0.3335
15413TIP3    H167654   1.388   5.208  12.216 -0.1805 -0.1031 -0.6715
15413TIP3    H267655   1.437   5.117  12.105  0.5707 -0.1513 -0.3014
15414TIP3   OH267656   5.746   2.466  14.421 -0.5332  0.1961 -0.3104
15414TIP3    H167657   5.758   2.462  14.326 -1.6686 -0.0572 -0.4515
15414TIP3    H267658   5.659   2.504  14.433 -0.9577 -1.0209  0.6030
15415TIP3   OH267659   0.334   3.305   1.559 -0.2446  0.0860 -0.1534
15415TIP3    H167660   0.306   3.375   1.617 -2.2660 -1.6489  1.0290
15415TIP3    H267661   0.314   3.337   1.471 -0.0024  1.4793  0.2907
15416TIP3   OH267662   3.204   3.315   2.371  0.5941 -0.1603 -0.0999
15416TIP3    H167663   3.119   3.284   2.404  0.9089 -0.2182  0.6558
15416TIP3    H267664   3.253   3.339   2.450  1.0748  0.4019 -0.5677
15417TIP3   OH267665   1.302   5.150  16.860  0.5322  0.1267  0.5024
15417TIP3    H167666   1.312   5.170  16.953  2.6952  0.6454  0.1698
15417TIP3    H267667   1.344   5.064  16.849 -1.8733 -1.1073  0.4307
15418TIP3   OH267668   1.122   2.206   2.124  0.1143 -0.5819  0.3204
15418TIP3    H167669   1.103   2.147   2.197 -1.3373 -1.3810 -0.6792
15418TIP3    H267670   1.060   2.277   2.133 -0.6393 -1.0994 -0.5769
15419TIP3   OH267671   3.285   5.838  17.057 -0.0078 -0.1896  0.4190
15419TIP3    H167672   3.271   5.781  17.133 -0.3553 -1.0530 -0.2862
15419TIP3    H267673   3.363   5.802  17.014  0.9371  1.0475  1.0422
15420TIP3   OH267674   1.154   2.846   0.912 -0.3893  0.0478 -0.2963
15420TIP3    H167675   1.172   2.822   1.003  1.4583  1.3642 -0.2714
15420TIP3    H267676   1.149   2.942   0.914 -0.3006  0.0822 -1.5905
15421TIP3   OH267677   3.705   4.794  12.799 -0.3085  0.9805 -0.7037
15421TIP3    H167678   3.615   4.761  12.805 -0.0379  0.4099  0.5154
15421TIP3    H267679   3.703   4.877  12.847 -0.1308  0.8359 -0.4434
15422TIP3   OH267680   0.446   2.088  12.561  0.2689  0.0418 -0.9480
15422TIP3    H167681   0.398   2.137  12.495 -0.0843  1.0852  0.0725
15422TIP3    H267682   0.521   2.052  12.514  1.1439  2.4798 -1.5107
15423TIP3   OH267683   0.136   2.898   1.318  0.4593  0.3407 -0.0702
15423TIP3    H167684   0.045   2.903   1.346  0.3307 -0.1859 -0.3881
15423TIP3    H267685   0.170   2.986   1.332 -0.9532  1.3841 -2.8128
15424TIP3   OH267686   4.236   6.077   3.731 -0.0806  0.2752  0.3470
15424TIP3    H167687   4.260   5.985   3.720 -2.2782 -0.2932  0.1650
15424TIP3    H267688   4.210   6.105   3.643  0.0474  0.9303  0.5170
15425TIP3   OH267689   4.737   3.835  13.488 -0.0781  0.4500  0.0203
15425TIP3    H167690   4.713   3.747  13.518 -1.1120  0.7747  0.1599
15425TIP3    H267691   4.775   3.821  13.401  1.2643 -0.3026  0.7091
15426TIP3   OH267692   5.685   0.736   3.655 -0.4790  0.6627  0.4605
15426TIP3    H167693   5.735   0.777   3.585  1.3226 -0.6396  0.9633
15426TIP3    H267694   5.594   0.744   3.628  0.1284  1.3236 -1.4036
15427TIP3   OH267695   0.074   2.642  12.108 -0.4397 -0.0808  0.0299
15427TIP3    H167696   0.165   2.671  12.095 -0.7073  0.4195 -0.7803
15427TIP3    H267697   0.022   2.722  12.099 -0.7773  0.0608  2.8328
15428TIP3   OH267698   1.951   0.692   1.991  0.2438 -0.2038  0.6814
15428TIP3    H167699   1.885   0.623   1.982  0.6159 -0.5009  0.2677
15428TIP3    H267700   2.022   0.652   2.041  0.7359 -0.3035 -0.1039
15429TIP3   OH267701   4.144   2.461   2.975  0.4678 -0.0661  0.0589
15429TIP3    H167702   4.083   2.393   3.005 -0.0020  0.3754  0.1286
15429TIP3    H267703   4.209   2.414   2.923  1.0851 -0.7900  1.4685
15430TIP3   OH267704   0.999   2.115   3.384  0.9154  0.0344  0.5209
15430TIP3    H167705   0.912   2.096   3.420  0.9067 -0.7935  0.0688
15430TIP3    H267706   0.997   2.209   3.365  0.0417 -0.0249  0.3152
15431TIP3   OH267707   5.927   6.617  13.440 -0.2686  0.6403 -0.4505
15431TIP3    H167708   5.887   6.693  13.398  0.3513  1.6665  0.8020
15431TIP3    H267709   5.867   6.545  13.422  0.8330  0.6018 -4.7375
15432TIP3   OH267710   5.251   3.450  11.488  0.1571  0.7126  0.2675
15432TIP3    H167711   5.194   3.406  11.550 -1.1543  0.3057 -1.1966
15432TIP3    H267712   5.301   3.379  11.448  0.0733  0.8411 -0.0653
15433TIP3   OH267713   5.692   1.373   0.842 -0.2870  0.7708 -0.3196
15433TIP3    H167714   5.613   1.333   0.806  0.4053  0.0173 -1.0070
15433TIP3    H267715   5.691   1.351   0.935 -0.2686 -0.2607 -0.5619
15434TIP3   OH267716   3.470   4.851  13.885  0.0960  0.3853 -0.2601
15434TIP3    H167717   3.417   4.788  13.836 -1.4689 -0.5141  2.4648
15434TIP3    H267718   3.406   4.905  13.932  1.5213 -0.2799  2.5475
15435TIP3   OH267719   3.233   4.275   0.239 -0.0362 -0.3670 -0.1722
15435TIP3    H167720   3.177   4.351   0.224 -0.4873 -0.7422 -0.4049
15435TIP3    H267721   3.173   4.207   0.269  0.5930 -0.1745  1.5420
15436TIP3   OH267722   1.647   6.578  10.517  0.3151 -0.0009 -0.4890
15436TIP3    H167723   1.596   6.636  10.460 -1.6858 -0.8582  0.3899
15436TIP3    H267724   1.628   6.490  10.484  0.6723 -0.3745  0.3013
15437TIP3   OH267725   0.095   2.276  16.617  0.0894 -0.7054  0.1885
15437TIP3    H167726   0.118   2.225  16.695 -0.6159 -2.6615 -0.8302
15437TIP3    H267727   0.004   2.251  16.599  0.0784  0.1375 -0.9466
15438TIP3   OH267728   3.092   3.676   0.555 -0.4398  0.0486  0.4503
15438TIP3    H167729   3.076   3.632   0.639 -2.0879 -0.4517 -0.0950
15438TIP3    H267730   3.026   3.745   0.552 -0.1035  0.3343 -0.2467
15439TIP3   OH267731   0.406   5.440  16.207 -0.1275 -0.0119 -0.1715
15439TIP3    H167732   0.384   5.446  16.114  0.6428  2.3037 -0.2357
15439TIP3    H267733   0.421   5.346  16.222 -1.4657 -0.5632 -2.0799
15440TIP3   OH267734   5.543   2.702  16.555 -0.0630 -0.0064 -0.0137
15440TIP3    H167735   5.512   2.639  16.620 -0.5210 -0.8172 -1.0072
15440TIP3    H267736   5.561   2.782  16.606 -1.4003 -0.2955  0.9577
15441TIP3   OH267737   5.877   2.450  14.708  0.2569 -0.5522 -0.1224
15441TIP3    H167738   5.948   2.510  14.730 -0.9147  0.6048  0.5386
15441TIP3    H267739   5.865   2.462  14.614 -0.3970  0.7349  0.1122
15442TIP3   OH267740   2.956   5.668  16.075  0.2332  0.0218 -0.0059
15442TIP3    H167741   3.037   5.659  16.025 -0.2473 -1.6457 -0.5237
15442TIP3    H267742   2.927   5.578  16.089 -1.8792  0.6240 -0.3977
15443TIP3   OH267743   2.876   1.896   0.605  0.1618 -0.0495 -0.3532
15443TIP3    H167744   2.850   1.813   0.564 -0.4166 -0.8780  1.6002
15443TIP3    H267745   2.808   1.912   0.671  1.1659  1.1121  0.4256
15444TIP3   OH267746   0.324   4.736  11.754  0.6647  0.3190  0.1459
15444TIP3    H167747   0.309   4.645  11.726 -0.1641  0.8061 -1.0419
15444TIP3    H267748   0.344   4.783  11.673  2.7591  0.8802  0.9529
15445TIP3   OH267749   6.137   5.155   3.847 -0.2440  0.0073 -0.0153
15445TIP3    H167750   6.189   5.077   3.824 -0.6371 -0.5862  1.0519
15445TIP3    H267751   6.161   5.220   3.782 -2.7097 -2.1628 -3.2304
15446TIP3   OH267752   5.056   1.908   2.098  0.3411  0.0099  0.2084
15446TIP3    H167753   5.065   1.955   2.015 -0.5453  1.1547  0.7353
15446TIP3    H267754   4.964   1.918   2.120 -0.1144 -2.9410 -0.1916
15447TIP3   OH267755   6.336   4.805   0.548  0.0906 -0.5776  0.2356
15447TIP3    H167756   6.378   4.720   0.536  1.2754 -0.0799  0.7701
15447TIP3    H267757   6.384   4.864   0.491  1.1257  0.3142  1.9822
15448TIP3   OH267758   3.913   0.729   3.003 -0.4464 -0.1766  0.1053
15448TIP3    H167759   3.929   0.725   3.097 -0.2633  0.6648  0.1077
15448TIP3    H267760   3.887   0.819   2.986 -0.0109 -0.2022 -0.7230
15449TIP3   OH267761   0.202   6.223   1.378  0.5039 -0.6469 -0.0087
15449TIP3    H167762   0.106   6.226   1.370  0.2901 -0.9713  1.9672
15449TIP3    H267763   0.223   6.129   1.377  0.6238 -0.6444  1.0349
15450TIP3   OH267764   4.579   6.607   3.053  0.0876  0.2859  0.1844
15450TIP3    H167765   4.553   6.515   3.060 -1.1801  0.6014 -0.2632
15450TIP3    H267766   4.655   6.614   3.111  0.0049 -0.9703  0.4723
15451TIP3   OH267767   2.449   0.811   2.888  0.4133 -0.4305 -0.4108
15451TIP3    H167768   2.397   0.841   2.814  1.0617  0.9004 -0.3519
15451TIP3    H267769   2.386   0.778   2.951 -0.2435 -0.2784 -0.9891
15452TIP3   OH267770   5.181   3.426  14.923  0.0009  0.0350  0.2013
15452TIP3    H167771   5.199   3.505  14.974 -1.2985  0.3664  0.1653
15452TIP3    H267772   5.090   3.435  14.895  0.5057 -0.4314 -1.6668
15453TIP3   OH267773   2.336   5.792   2.213  0.0549 -0.4654  0.0809
15453TIP3    H167774   2.355   5.809   2.121  0.2540 -0.6308  0.0918
15453TIP3    H267775   2.275   5.719   2.212  0.7741 -1.0780  0.1141
15454TIP3   OH267776   5.629   3.187  16.831  0.8975  0.2339 -0.3109
15454TIP3    H167777   5.710   3.208  16.784  1.4232  0.6698  0.7730
15454TIP3    H267778   5.582   3.271  16.837  0.4278  0.0094 -0.8180
15455TIP3   OH267779   1.457   6.660  16.117  0.3679  0.0254  0.2317
15455TIP3    H167780   1.477   6.568  16.098  2.3329  0.2920  0.9227
15455TIP3    H267781   1.464   6.704  16.033 -0.7572 -0.4721 -0.1342
15456TIP3   OH267782   3.341   1.445  11.312  0.9336  0.7073  0.3129
15456TIP3    H167783   3.355   1.511  11.244  0.3410 -0.1885 -0.6898
15456TIP3    H267784   3.250   1.416  11.299  1.1235 -0.1709  0.8719
15457TIP3   OH267785   5.996   2.349   2.659 -0.0575 -0.0123 -0.2297
15457TIP3    H167786   5.968   2.440   2.649 -0.2682 -0.1882 -1.3047
15457TIP3    H267787   5.964   2.306   2.580  1.6051 -0.6430 -0.5670
15458TIP3   OH267788   1.506   1.689  11.291 -0.0259 -0.4008  0.2643
15458TIP3    H167789   1.544   1.705  11.378  1.3572 -2.2608  0.0212
15458TIP3    H267790   1.457   1.769  11.272  0.5127  0.4587  2.3030
15459TIP3   OH267791   3.898   0.044   5.797 -0.0944  0.0249  0.8382
15459TIP3    H167792   3.966   0.112   5.804  0.7151 -0.7309  0.4373
15459TIP3    H267793   3.869   0.030   5.887  1.0011 -0.3583  1.1442
15460TIP3   OH267794   2.637   2.221   3.717 -0.0408 -0.4279 -0.1835
15460TIP3    H167795   2.730   2.243   3.726 -0.9590  3.0249  1.8971
15460TIP3    H267796   2.601   2.288   3.660 -1.8945  0.3653  1.8306
15461TIP3   OH267797   2.940   4.445  13.666  0.4846 -0.3186  0.0970
15461TIP3    H167798   2.959   4.523  13.719 -0.0499 -0.8650  1.0974
15461TIP3    H267799   2.906   4.481  13.583 -0.8388  0.5038  0.9756
15462TIP3   OH267800   1.507   4.032   5.728 -0.8479  0.5705 -0.4134
15462TIP3    H167801   1.442   4.080   5.780  1.9536  1.2060  2.6236
15462TIP3    H267802   1.578   4.095   5.714  0.4036 -0.9806 -1.2242
15463TIP3   OH267803   5.137   1.346   4.768  0.1651  0.2026  0.6759
15463TIP3    H167804   5.116   1.420   4.710 -0.8504 -0.0510  0.7125
15463TIP3    H267805   5.078   1.277   4.741  0.5498 -0.3343  1.1947
15464TIP3   OH267806   3.641   4.700  14.071 -0.3432 -0.5401  0.2338
15464TIP3    H167807   3.689   4.644  14.010 -0.1112 -0.1281  0.0343
15464TIP3    H267808   3.591   4.759  14.014 -0.2306 -0.2429  0.4415
15465TIP3   OH267809   5.418   3.736  16.396  0.3575  0.2293 -0.0631
15465TIP3    H167810   5.326   3.733  16.371  0.0087 -0.0717  1.2038
15465TIP3    H267811   5.456   3.655  16.361  0.4183  0.8883 -1.5669
15466TIP3   OH267812   1.216   1.913   1.523  0.2989  0.6715 -0.2056
15466TIP3    H167813   1.167   1.995   1.534 -0.1929  0.3763 -0.1861
15466TIP3    H267814   1.258   1.900   1.609  0.3519  0.8797 -0.1970
15467TIP3   OH267815   0.398   5.569   1.505  0.2979 -0.3564  0.2887
15467TIP3    H167816   0.446   5.580   1.423  0.3358  0.3367  0.3978
15467TIP3    H267817   0.320   5.520   1.480 -0.4265  1.1310 -0.4409
15468TIP3   OH267818   3.527   4.050  12.012  0.1850  0.2739  0.4106
15468TIP3    H167819   3.556   3.989  12.079 -0.8913  0.0404  0.6666
15468TIP3    H267820   3.533   4.136  12.053  1.7515  0.3628  0.0338
15469TIP3   OH267821   6.647   2.936  13.268 -0.4775 -0.0315 -0.4407
15469TIP3    H167822   6.693   2.894  13.341 -0.8393 -1.3942 -0.9998
15469TIP3    H267823   6.707   2.928  13.194 -2.4288 -3.7622 -1.7475
15470TIP3   OH267824   0.756   0.491  15.908 -0.6532  0.5483  0.1197
15470TIP3    H167825   0.791   0.407  15.937 -0.8630  0.4770  0.1619
15470TIP3    H267826   0.689   0.469  15.844 -0.8117  0.6807  0.2415
15471TIP3   OH267827   5.945   0.848   3.857 -0.4430 -0.2868 -0.4476
15471TIP3    H167828   5.991   0.791   3.796  1.2655  0.3078  0.2606
15471TIP3    H267829   5.966   0.812   3.943 -0.7248  0.4192 -0.0862
15472TIP3   OH267830   3.631   5.620   1.960  0.4094  0.5911  0.1094
15472TIP3    H167831   3.694   5.692   1.952 -0.0299  0.7977 -1.8015
15472TIP3    H267832   3.678   5.551   2.007  1.9665  0.8429 -1.0589
15473TIP3   OH267833   0.285   4.467   3.635 -0.4141  0.7388  0.0318
15473TIP3    H167834   0.313   4.454   3.545  0.4578 -0.8528  0.5344
15473TIP3    H267835   0.278   4.379   3.672 -0.9509  1.3649  1.4723
15474TIP3   OH267836   3.159   1.802   0.869  0.0339  0.2906  0.5060
15474TIP3    H167837   3.159   1.887   0.825  4.2830  0.2419  0.2662
15474TIP3    H267838   3.132   1.740   0.801  0.0373  1.0560 -0.1976
15475TIP3   OH267839   4.372   1.875   3.962 -0.5522 -0.0823 -0.0721
15475TIP3    H167840   4.406   1.925   4.036 -0.9589 -1.0377  0.7817
15475TIP3    H267841   4.371   1.784   3.993  1.0812 -0.7570 -1.9208
15476TIP3   OH267842   0.534   2.072   0.760  0.3557  0.1547 -0.3194
15476TIP3    H167843   0.611   2.096   0.812 -0.5704  1.0060  0.6741
15476TIP3    H267844   0.542   2.123   0.680  0.8970  0.1324 -0.2820
15477TIP3   OH267845   4.307   2.348  14.155  0.1200  0.3412 -0.1838
15477TIP3    H167846   4.216   2.361  14.127  0.3745 -0.9145 -1.6822
15477TIP3    H267847   4.319   2.253  14.154  1.0932  0.4378  1.1985
15478TIP3   OH267848   4.658   2.988  11.711  0.1390  0.1414 -0.2111
15478TIP3    H167849   4.699   3.026  11.789 -1.0648  0.9733  0.0268
15478TIP3    H267850   4.715   2.914  11.688  0.4034 -0.2370  1.5708
15479TIP3   OH267851   3.448   6.113  12.992 -0.2645 -0.2531 -0.2795
15479TIP3    H167852   3.387   6.039  12.984 -3.2016  1.7936  1.8491
15479TIP3    H267853   3.407   6.182  12.939  0.7602  0.8220  0.3139
15480TIP3   OH267854   1.020   1.437   5.255  0.4680  0.7030 -0.0754
15480TIP3    H167855   0.960   1.438   5.181 -0.6380  1.2601  0.8196
15480TIP3    H267856   1.080   1.510   5.238  2.4362 -1.3280 -2.1921
15481TIP3   OH267857   5.755   3.450   5.566  0.0363  0.3123  0.2678
15481TIP3    H167858   5.669   3.487   5.583  0.1474  0.8141 -0.2139
15481TIP3    H267859   5.755   3.430   5.473  0.5872  0.7348  0.1673
15482TIP3   OH267860   6.699   5.936   3.669 -0.1613 -0.8939 -0.0601
15482TIP3    H167861   6.660   5.884   3.599 -0.8959 -2.2037  1.2888
15482TIP3    H267862   6.793   5.919   3.662  0.0511  1.0038 -2.3132
15483TIP3   OH267863   1.118   4.727  14.372 -0.8881  0.2424 -0.5207
15483TIP3    H167864   1.135   4.637  14.344  0.7205 -0.1124  1.4871
15483TIP3    H267865   1.100   4.775  14.291  1.3181 -1.2184 -1.9084
15484TIP3   OH267866   3.114   4.857  12.860  0.0575 -0.3957 -0.1371
15484TIP3    H167867   3.020   4.850  12.876  0.3659 -1.8320  1.2034
15484TIP3    H267868   3.135   4.948  12.879 -0.9745 -0.1770  0.0094
15485TIP3   OH267869   3.904   1.043   0.825  0.3913 -0.1215 -0.1955
15485TIP3    H167870   3.919   1.001   0.740  2.0147  0.2366 -0.1049
15485TIP3    H267871   3.992   1.056   0.861 -0.2512  0.3819  1.2270
15486TIP3   OH267872   4.338   0.258  11.702  0.0084  0.4079 -0.4174
15486TIP3    H167873   4.390   0.183  11.733  0.9883  0.5609 -1.6319
15486TIP3    H267874   4.295   0.226  11.623  2.3960  1.8413 -2.3595
15487TIP3   OH267875   4.625   1.247  14.689  0.6387  0.0310 -0.0515
15487TIP3    H167876   4.551   1.189  14.675  1.4847 -0.9059 -0.7228
15487TIP3    H267877   4.596   1.332  14.657 -1.0832  0.3184  2.1735
15488TIP3   OH267878   1.194   2.319  13.815 -0.4724 -0.3048 -0.1909
15488TIP3    H167879   1.221   2.340  13.726  0.5676  0.0390  0.1977
15488TIP3    H267880   1.212   2.225  13.823  0.8567 -0.0380  0.1349
15489TIP3   OH267881   3.558   3.339   6.222  0.5170  0.1759  0.3933
15489TIP3    H167882   3.630   3.350   6.160 -1.3971  0.1106 -1.9278
15489TIP3    H267883   3.550   3.424   6.265 -0.5374  1.3949 -2.1665
15490TIP3   OH267884   2.459   4.845  16.318 -1.0562 -0.0915  0.5791
15490TIP3    H167885   2.381   4.901  16.314 -1.0030 -0.1285 -1.2685
15490TIP3    H267886   2.431   4.762  16.281 -0.3535 -0.3551  0.6421
15491TIP3   OH267887   1.909   0.905   2.407  0.1402 -0.2662 -0.3223
15491TIP3    H167888   1.834   0.859   2.445  0.5040 -0.2359  0.4388
15491TIP3    H267889   1.875   0.942   2.326 -1.1427  1.1641  0.8246
15492TIP3   OH267890   1.522   2.535   0.336 -0.3342  0.1893 -0.0116
15492TIP3    H167891   1.503   2.463   0.395  0.8484  0.2028  0.3942
15492TIP3    H267892   1.514   2.497   0.248  0.0730 -0.3733  0.1942
15493TIP3   OH267893   6.570   1.089   1.475 -0.0289 -0.0708  0.3770
15493TIP3    H167894   6.596   1.176   1.505  0.8606 -0.2391  0.0946
15493TIP3    H267895   6.617   1.077   1.392  0.5271 -1.1797  0.8511
15494TIP3   OH267896   6.237   5.081  11.510  0.3448  0.0030  0.1069
15494TIP3    H167897   6.148   5.064  11.540 -0.2119  3.4261  0.5073
15494TIP3    H267898   6.230   5.080  11.414  0.1418 -0.8357  0.1192
15495TIP3   OH267899   1.219   5.802   4.263 -0.0896  0.4017 -0.0339
15495TIP3    H167900   1.140   5.754   4.288  1.4876 -2.7606 -0.9044
15495TIP3    H267901   1.284   5.779   4.330  0.5122  1.8565 -0.0967
15496TIP3   OH267902   1.022   3.908  11.884  0.2753 -0.0860  0.2217
15496TIP3    H167903   1.091   3.918  11.949  0.7380  1.8782 -0.5243
15496TIP3    H267904   1.061   3.939  11.803 -1.0756 -0.1811 -0.4851
15497TIP3   OH267905   4.707   4.530  11.808 -0.0378  0.0838  0.3472
15497TIP3    H167906   4.631   4.572  11.767  0.3464  0.9864  0.5502
15497TIP3    H267907   4.689   4.533  11.902  0.6832  1.1810  0.4643
15498TIP3   OH267908   5.730   6.667   2.376 -0.1501 -0.3406 -0.1753
15498TIP3    H167909   5.674   6.592   2.360 -2.1309  1.1635 -0.5071
15498TIP3    H267910   5.705   6.697   2.463  0.0211  0.4210 -0.3854
15499TIP3   OH267911   5.677   2.354  11.797  0.2386 -0.1473 -0.5439
15499TIP3    H167912   5.675   2.402  11.880 -0.2186 -1.9558  0.5351
15499TIP3    H267913   5.739   2.402  11.743  0.4091  1.1718  0.7866
15500TIP3   OH267914   0.358   0.951  15.797 -0.1056  0.0364  0.2737
15500TIP3    H167915   0.314   0.953  15.882  1.0251  2.9308  0.8339
15500TIP3    H267916   0.438   0.900  15.814 -0.9320 -1.2396  0.3934
15501TIP3   OH267917   1.284   0.679  14.089 -0.1234  0.2326 -0.2021
15501TIP3    H167918   1.316   0.722  14.168 -0.4832  0.4926 -0.1975
15501TIP3    H267919   1.190   0.696  14.088 -0.6002 -2.2115  0.8188
15502TIP3   OH267920   1.421   4.646  12.779  0.0062 -0.3426  0.0465
15502TIP3    H167921   1.370   4.651  12.698  0.5005  0.6154 -0.2065
15502TIP3    H267922   1.510   4.627  12.750 -0.0277 -1.1280  0.4386
15503TIP3   OH267923   3.729   3.320   4.479 -0.2795 -0.2508  0.0121
15503TIP3    H167924   3.734   3.247   4.417  2.5179 -0.0731 -0.0197
15503TIP3    H267925   3.685   3.390   4.431  0.7380 -0.5335 -1.3333
15504TIP3   OH267926   0.329   1.318   0.649  0.2773  0.5824  0.0094
15504TIP3    H167927   0.239   1.337   0.674 -0.1872  0.2783 -1.4020
15504TIP3    H267928   0.324   1.234   0.604  0.9711  1.5372 -1.8803
15505TIP3   OH267929   0.643   6.583  10.779 -0.1047 -0.5604 -0.1713
15505TIP3    H167930   0.594   6.616  10.854  0.0005  0.7882 -0.6771
15505TIP3    H267931   0.581   6.527  10.733 -0.8734  0.3467 -0.2618
15506TIP3   OH267932   0.517   4.815   4.325  0.4479  0.0225  0.5092
15506TIP3    H167933   0.478   4.793   4.240  0.5559 -1.6158  0.8629
15506TIP3    H267934   0.594   4.868   4.303  0.4015 -0.2807 -0.4182
15507TIP3   OH267935   1.345   2.650   5.252  0.1689 -0.1562  0.0271
15507TIP3    H167936   1.432   2.647   5.292 -0.4516  3.4674  1.9031
15507TIP3    H267937   1.358   2.699   5.171 -0.1478  0.6221  0.4420
15508TIP3   OH267938   4.752   1.285   1.593  0.3027  0.4774  0.3396
15508TIP3    H167939   4.809   1.283   1.670  0.4130  2.4686  0.3459
15508TIP3    H267940   4.812   1.279   1.519  0.3008 -0.0866  0.3799
15509TIP3   OH267941   4.811   5.200   5.840  0.0040  0.2844 -0.3564
15509TIP3    H167942   4.851   5.145   5.907 -1.0628 -0.3295 -0.2107
15509TIP3    H267943   4.866   5.278   5.836  0.1467  0.2657  1.1410
15510TIP3   OH267944   4.590   2.661  11.805 -0.0464  0.3118  0.1072
15510TIP3    H167945   4.662   2.678  11.744 -0.2038  0.9407  0.0961
15510TIP3    H267946   4.554   2.577  11.777  0.2380  0.3312 -0.3190
15511TIP3   OH267947   1.440   3.310   2.137 -0.0701 -0.2726 -0.8210
15511TIP3    H167948   1.492   3.385   2.164 -0.3675 -0.3113 -0.1298
15511TIP3    H267949   1.499   3.258   2.083  0.5994 -0.3147 -0.0466
15512TIP3   OH267950   5.976   0.866   2.921 -0.9789  0.2415 -0.3950
15512TIP3    H167951   6.038   0.800   2.890  0.4212  1.3394  0.0219
15512TIP3    H267952   5.903   0.861   2.859 -0.7513 -1.4666 -0.5542
15513TIP3   OH267953   2.483   4.299  16.413 -0.6474  0.5902  0.2323
15513TIP3    H167954   2.505   4.255  16.496 -0.2045  1.1352  0.4082
15513TIP3    H267955   2.420   4.241  16.372  1.2105 -1.1054 -0.3298
15514TIP3   OH267956   0.800   1.060  16.637  0.1809  0.5387 -0.2605
15514TIP3    H167957   0.806   1.025  16.726 -2.1008 -1.6297 -0.8880
15514TIP3    H267958   0.777   1.152  16.648 -1.7417 -0.1049  1.4289
15515TIP3   OH267959   6.576   6.653   0.895  0.0470 -0.5211 -0.8551
15515TIP3    H167960   6.611   6.742   0.906 -2.3172  0.6348 -2.1374
15515TIP3    H267961   6.485   6.667   0.868 -0.3349 -3.3597 -1.1582
15516TIP3   OH267962   3.714   5.110   4.072 -0.0037 -0.4037  0.9221
15516TIP3    H167963   3.736   5.198   4.103  0.1483  0.4854 -1.6032
15516TIP3    H267964   3.788   5.084   4.017 -0.9753 -1.2323 -0.0293
15517TIP3   OH267965   6.783   5.845  13.844 -0.5969 -1.1647 -0.1656
15517TIP3    H167966   6.732   5.889  13.776  2.6263  0.8558 -1.4071
15517TIP3    H267967   6.790   5.910  13.914 -1.1409 -2.0415  0.7103
15518TIP3   OH267968   5.619   3.508  10.852  0.8463  0.5257  0.2696
15518TIP3    H167969   5.700   3.463  10.828  0.5436 -0.3308  0.8100
15518TIP3    H267970   5.575   3.524  10.768  0.7729 -0.5677  0.0819
15519TIP3   OH267971   5.274   1.580  11.742 -0.0886 -0.0765  0.1051
15519TIP3    H167972   5.252   1.522  11.815  0.1127 -1.3632 -0.8235
15519TIP3    H267973   5.369   1.592  11.749 -0.1462  0.2165  0.3618
15520TIP3   OH267974   6.674   0.041   0.492 -0.0096  0.1393 -0.0140
15520TIP3    H167975   6.732  -0.003   0.430 -0.4811 -0.3079 -0.1471
15520TIP3    H267976   6.669  -0.018   0.567  1.1570  1.0353  0.7731
15521TIP3   OH267977   6.630   3.899   5.621 -0.1410 -0.3034  0.5161
15521TIP3    H167978   6.705   3.841   5.632  1.9225  2.2195  0.1288
15521TIP3    H267979   6.633   3.958   5.696 -0.0562  1.6377 -0.9816
15522TIP3   OH267980   1.302   6.275   5.029 -0.3686  0.3086 -0.0725
15522TIP3    H167981   1.396   6.268   5.045 -0.5630  1.0113  1.3906
15522TIP3    H267982   1.265   6.302   5.113 -1.8400  0.3703 -0.7299
15523TIP3   OH267983   0.176   3.965   5.117  0.5514 -0.6740  0.1162
15523TIP3    H167984   0.116   3.990   5.047  0.7209 -1.1355 -0.1916
15523TIP3    H267985   0.255   3.937   5.073  1.5757  1.4044  0.5765
15524TIP3   OH267986   0.717   1.734   5.186 -0.1501 -0.4315  0.4770
15524TIP3    H167987   0.784   1.777   5.240 -0.4021  1.3147 -0.5566
15524TIP3    H267988   0.634   1.759   5.227 -0.5715  3.9081 -2.6440
15525TIP3   OH267989   2.465   2.552   5.876 -0.0857 -0.2138 -0.5258
15525TIP3    H167990   2.438   2.486   5.939 -1.6096 -0.5669 -1.5028
15525TIP3    H267991   2.426   2.634   5.909  2.2636  0.3353  0.9809
15526TIP3   OH267992   0.642   1.715  14.451  0.0514 -0.6931 -0.1395
15526TIP3    H167993   0.640   1.626  14.415 -1.0731 -0.2006 -1.2872
15526TIP3    H267994   0.566   1.758  14.414  0.0691  0.4832  1.1550
15527TIP3   OH267995   5.845   4.843   5.758  0.3595 -0.0600 -0.0532
15527TIP3    H167996   5.807   4.930   5.743 -1.4072 -0.5154  1.6225
15527TIP3    H267997   5.888   4.850   5.843 -0.5231 -1.0413  0.4906
15528TIP3   OH267998   1.511   4.427  14.987  0.5256  0.0024  0.1948
15528TIP3    H167999   1.435   4.486  14.981  1.1233  0.6994 -0.8592
15528TIP3    H268000   1.482   4.356  15.043 -1.3424 -0.3623 -1.1654
15529TIP3   OH268001   4.412   0.303  15.462 -0.4415  0.0377 -0.1174
15529TIP3    H168002   4.393   0.389  15.425 -0.8577  1.0781  2.4052
15529TIP3    H268003   4.506   0.291  15.448 -0.5175  0.5621 -1.1337
15530TIP3   OH268004   0.513   2.297   0.517 -0.3869 -0.3587  0.7543
15530TIP3    H168005   0.557   2.382   0.513 -2.7359  0.8682  0.4722
15530TIP3    H268006   0.460   2.294   0.437  0.9594 -2.8368 -0.0922
15531TIP3   OH268007   3.195   1.239   4.489  1.0211 -0.7134  0.1182
15531TIP3    H168008   3.161   1.178   4.555  0.1845 -0.1088  0.2432
15531TIP3    H268009   3.132   1.233   4.417  0.1797  1.0429  0.6981
15532TIP3   OH268010   5.177   6.479  12.116  0.3306  0.1150  0.0786
15532TIP3    H168011   5.114   6.551  12.104 -0.2368 -0.0180  2.0818
15532TIP3    H268012   5.142   6.408  12.062  0.0054  0.8095 -0.6352
15533TIP3   OH268013   5.217   1.659   2.624  0.2214 -0.0527 -0.3030
15533TIP3    H168014   5.161   1.651   2.701  0.8254  1.4476  0.3063
15533TIP3    H268015   5.290   1.714   2.653 -0.8027  2.6415 -2.6147
15534TIP3   OH268016   1.756   1.707   1.199  0.5888  0.0941 -0.8074
15534TIP3    H168017   1.795   1.763   1.267  1.2253 -0.0675 -1.0355
15534TIP3    H268018   1.741   1.623   1.243  0.8802  0.0293 -0.8331
15535TIP3   OH268019   0.701   5.329   2.375  0.1177  0.5330  0.0583
15535TIP3    H168020   0.714   5.284   2.291 -0.4281 -0.2202  0.3787
15535TIP3    H268021   0.707   5.422   2.353  1.8818  0.2972 -0.5033
15536TIP3   OH268022   1.319   4.999   5.866 -0.0466 -0.0719 -0.1205
15536TIP3    H168023   1.285   5.049   5.941 -1.5969 -0.1282 -0.7670
15536TIP3    H268024   1.414   5.015   5.868 -0.5076  3.1906 -0.4825
15537TIP3   OH268025   3.311   3.003  12.532 -0.0789  0.2632 -0.0459
15537TIP3    H168026   3.271   3.081  12.569 -1.0160 -0.0778 -0.3358
15537TIP3    H268027   3.386   2.985  12.589 -0.5474  0.6890  0.7041
15538TIP3   OH268028   6.463   5.292  12.098 -0.2690 -0.5362  0.7407
15538TIP3    H168029   6.434   5.283  12.007 -0.3074 -0.5793  0.7571
15538TIP3    H268030   6.558   5.294  12.094 -0.3067  1.2290  0.5385
15539TIP3   OH268031   3.675   4.988   2.141  0.2468 -0.0541 -0.5616
15539TIP3    H168032   3.613   5.050   2.104 -0.7193 -1.2082 -0.9321
15539TIP3    H268033   3.635   4.902   2.126  0.8077 -0.6870  1.3080
15540TIP3   OH268034   6.058   6.377  13.306  0.0974  0.2377  0.1638
15540TIP3    H168035   6.006   6.375  13.386  0.4020  1.7807  0.4255
15540TIP3    H268036   6.009   6.434  13.247  0.0421 -0.6227 -0.6412
15541TIP3   OH268037   0.821   1.143   6.058 -0.2621 -0.7067 -0.5863
15541TIP3    H168038   0.875   1.222   6.046 -1.3817  0.1731 -0.0131
15541TIP3    H268039   0.880   1.070   6.041  0.3420  0.2913 -2.8951
15542TIP3   OH268040   1.249   0.171  16.518 -0.2448 -0.4403 -0.3492
15542TIP3    H168041   1.245   0.207  16.430 -1.4037 -0.5309 -0.3386
15542TIP3    H268042   1.282   0.082  16.506 -2.3943 -1.2044 -0.9379
15543TIP3   OH268043   2.158   5.634  10.376  0.6882 -0.0028  0.1318
15543TIP3    H168044   2.179   5.604  10.464  1.6289 -0.9582 -0.4125
15543TIP3    H268045   2.242   5.633  10.329  0.0225 -0.4870 -1.0662
15544TIP3   OH268046   4.041   3.586  14.738  0.4468 -0.2675  0.2249
15544TIP3    H168047   4.132   3.562  14.752  0.6904 -0.3923 -1.5612
15544TIP3    H268048   4.036   3.677  14.767  1.4723  0.1910 -0.9848
15545TIP3   OH268049   3.172   2.502  16.820  0.6971  0.1935 -0.1831
15545TIP3    H168050   3.081   2.492  16.794 -0.3745  1.4345  2.9572
15545TIP3    H268051   3.200   2.413  16.842 -0.7149  0.2005  1.7771
15546TIP3   OH268052   0.929   1.963  14.433  0.3282  0.4535 -0.4245
15546TIP3    H168053   0.909   1.910  14.510  0.7250  1.5868  0.4657
15546TIP3    H268054   1.024   1.957  14.424  0.6674  2.8009  1.0271
15547TIP3   OH268055   0.352   4.520   2.906 -0.1097  0.1105 -0.0444
15547TIP3    H168056   0.328   4.599   2.955 -0.1581  0.5493 -0.7686
15547TIP3    H268057   0.287   4.513   2.837  0.4418 -0.0346 -0.5560
15548TIP3   OH268058   1.580   1.001  12.804  0.2533  0.1163 -0.6471
15548TIP3    H168059   1.509   1.062  12.781 -0.9755 -1.1204 -0.1998
15548TIP3    H268060   1.660   1.050  12.785 -0.7104  1.2782 -1.8493
15549TIP3   OH268061   3.170   0.823   2.446  0.7123  0.2484  0.2975
15549TIP3    H168062   3.114   0.783   2.512  0.7790  0.3119  0.3919
15549TIP3    H268063   3.259   0.793   2.468  0.8830  1.1962  0.9211
15550TIP3   OH268064   4.249   2.326  12.936  0.3462  0.1657  0.1724
15550TIP3    H168065   4.213   2.355  13.019 -0.3289 -1.1884  0.3684
15550TIP3    H268066   4.186   2.262  12.904  0.5406  0.7601 -1.4441
15551TIP3   OH268067   3.260   4.352  10.706  0.5887  0.0996  0.6632
15551TIP3    H168068   3.276   4.299  10.784  0.0554 -0.4464  0.3997
15551TIP3    H268069   3.219   4.292  10.644 -2.5969  1.4825  1.3388
15552TIP3   OH268070   1.235   4.785  12.233  0.6344  0.6688 -0.0807
15552TIP3    H168071   1.327   4.796  12.253  1.1980 -0.2324 -2.0730
15552TIP3    H268072   1.221   4.837  12.154 -0.0606 -0.8365 -0.9862
15553TIP3   OH268073   6.153   6.311   4.043  0.0649  0.7352  0.2145
15553TIP3    H168074   6.240   6.352   4.046 -1.1355  3.2905  3.7356
15553TIP3    H268075   6.101   6.369   3.986  0.1139  0.3516 -0.2246
15554TIP3   OH268076   0.968   4.678   0.490 -0.5087  0.6062  0.5625
15554TIP3    H168077   0.885   4.655   0.533 -0.5722  2.0375  1.2298
15554TIP3    H268078   1.024   4.602   0.505 -0.8689  0.6600  2.3153
15555TIP3   OH268079   3.130   2.233  15.699 -0.8037 -0.1642  0.1650
15555TIP3    H168080   3.184   2.284  15.639 -1.2296  0.9402  0.7143
15555TIP3    H268081   3.041   2.262  15.683 -0.7735  1.2701  2.3794
15556TIP3   OH268082   2.228   0.799  11.450  0.2085  0.2019  0.8682
15556TIP3    H168083   2.290   0.866  11.422 -1.3066  1.4370  0.4318
15556TIP3    H268084   2.181   0.774  11.371  2.3129 -3.1099  0.5396
15557TIP3   OH268085   5.006   6.727  16.254  0.0773 -0.1396 -0.3359
15557TIP3    H168086   4.933   6.746  16.196  0.1118  2.0995  0.3009
15557TIP3    H268087   5.082   6.764  16.210  0.6768 -1.5133 -0.4860
15558TIP3   OH268088   5.869   4.541  14.088 -0.3806 -0.2877  0.1803
15558TIP3    H168089   5.899   4.499  14.169 -1.2584  0.6781  1.0067
15558TIP3    H268090   5.921   4.621  14.082 -0.5464 -0.1977 -0.0438
15559TIP3   OH268091   0.507   1.210  11.837  0.1654  0.2476 -0.3903
15559TIP3    H168092   0.528   1.240  11.926  0.8869 -1.7211  0.1093
15559TIP3    H268093   0.589   1.218  11.789 -0.1540  1.0324 -0.8080
15560TIP3   OH268094   3.456   1.943  16.061 -0.7436  0.1176  0.0506
15560TIP3    H168095   3.526   1.995  16.021 -0.2566 -1.2324 -0.9011
15560TIP3    H268096   3.399   1.919  15.988 -1.1810 -0.3434  0.5361
15561TIP3   OH268097   0.401   0.042   5.285  0.0293 -0.8013  0.7670
15561TIP3    H168098   0.346   0.087   5.349 -1.1841  0.5044 -1.1539
15561TIP3    H268099   0.485   0.088   5.288 -1.1403  1.5271 -1.0492
15562TIP3   OH268100   5.881   3.956   2.030  0.2113 -0.3308 -0.3454
15562TIP3    H168101   5.798   3.954   1.982  1.1620 -0.9549 -2.0065
15562TIP3    H268102   5.935   4.018   1.982  1.2049 -1.0109 -0.1214
15563TIP3   OH268103   0.041   1.647   0.910  0.1106 -0.2011  0.6902
15563TIP3    H168104   0.030   1.737   0.878 -1.0068 -0.4745  0.2808
15563TIP3    H268105   0.011   1.649   1.000 -1.2115 -0.4531  0.2637
15564TIP3   OH268106   6.459   1.366   6.801 -0.2499  0.2502  0.0040
15564TIP3    H168107   6.447   1.391   6.709  0.9570 -0.7900 -0.4478
15564TIP3    H268108   6.522   1.294   6.798  0.7873  1.0562  1.7498
15565TIP3   OH268109   6.203   5.678  12.053 -0.1729  0.0652  0.2322
15565TIP3    H168110   6.238   5.610  12.110 -1.6485 -1.2701 -0.4337
15565TIP3    H268111   6.229   5.651  11.965 -1.2166  0.0635 -0.0833
15566TIP3   OH268112   0.837   0.178  13.846 -0.3042 -0.3694  0.3390
15566TIP3    H168113   0.923   0.207  13.877  0.0979 -3.5660  2.4298
15566TIP3    H268114   0.856   0.101  13.792 -1.7089  0.2780 -1.1321
15567TIP3   OH268115   0.768   3.965   2.963 -0.3244  0.4352  0.0837
15567TIP3    H168116   0.825   3.918   2.903 -0.5072  2.3094 -1.5931
15567TIP3    H268117   0.809   4.050   2.974 -1.8810  1.1897  0.2195
15568TIP3   OH268118   2.795   5.435  14.413  0.1338 -0.3982 -0.0878
15568TIP3    H168119   2.872   5.489  14.395  0.0905 -0.3839 -0.2245
15568TIP3    H268120   2.747   5.484  14.480  0.4296 -0.5814  0.2629
15569TIP3   OH268121   4.062   5.367  13.191 -0.0791 -0.1080 -0.1877
15569TIP3    H168122   4.015   5.366  13.108 -1.0743  0.0705  0.3562
15569TIP3    H268123   4.006   5.317  13.250 -0.0073  0.8193  0.6921
15570TIP3   OH268124   0.305   0.126   0.653 -0.3450 -0.7393 -0.1943
15570TIP3    H168125   0.386   0.090   0.690 -0.7883 -3.2651 -1.5682
15570TIP3    H268126   0.327   0.215   0.627  0.8778 -0.0234  3.0775
15571TIP3   OH268127   4.712   1.416   6.022  0.4319 -0.2043  0.4425
15571TIP3    H168128   4.634   1.401   5.968  1.2451  0.3511 -0.9218
15571TIP3    H268129   4.715   1.511   6.035  0.7369 -0.2482  0.7100
15572TIP3   OH268130   0.127   0.136   3.192 -0.0713 -1.1657 -0.1439
15572TIP3    H168131   0.215   0.169   3.177 -0.9860  0.1933 -2.9261
15572TIP3    H268132   0.134   0.042   3.182  1.0560 -1.0509 -0.4511
15573TIP3   OH268133   4.387   2.062  15.948 -0.1889  0.7270  0.1828
15573TIP3    H168134   4.379   2.148  15.906 -1.3897  0.4411 -0.1745
15573TIP3    H268135   4.429   2.007  15.881 -1.0350  0.5745 -0.2246
15574TIP3   OH268136   4.503   2.593   0.072  0.4452  0.2828  0.9111
15574TIP3    H168137   4.438   2.642   0.023  1.9599  1.6689  0.2257
15574TIP3    H268138   4.553   2.547   0.005  0.2396 -0.6826  1.4225
15575TIP3   OH268139   5.648   5.461   4.002  0.1529  0.2873 -0.6142
15575TIP3    H168140   5.603   5.441   3.920  0.7997  1.1961 -1.2002
15575TIP3    H268141   5.586   5.436   4.071 -0.6604  0.1630 -1.3869
15576TIP3   OH268142   4.697   3.835   2.614 -0.1455 -0.3588 -0.1048
15576TIP3    H168143   4.637   3.886   2.559 -1.1847  0.0252  1.3608
15576TIP3    H268144   4.783   3.869   2.593 -0.6753  0.8016 -0.4156
15577TIP3   OH268145   0.952   1.542  16.846 -0.2143 -0.1596 -0.8181
15577TIP3    H168146   0.884   1.603  16.875 -0.5735 -0.5472 -0.8341
15577TIP3    H268147   0.988   1.582  16.767  1.2740  1.2707  0.5353
15578TIP3   OH268148   1.131   0.156   0.275 -0.1059 -0.1907  0.4772
15578TIP3    H168149   1.113   0.249   0.263  0.5410 -0.4270 -2.5988
15578TIP3    H268150   1.083   0.113   0.205  0.6660 -2.0580  1.0805
15579TIP3   OH268151   0.958   4.392   6.157 -0.0765  0.9318  0.2780
15579TIP3    H168152   0.943   4.409   6.250 -0.5811  0.7386  0.2376
15579TIP3    H268153   0.878   4.347   6.128 -0.0046  1.1698 -0.2946
15580TIP3   OH268154   1.323   0.324  10.929  0.4072  0.5217 -0.0452
15580TIP3    H168155   1.278   0.362  11.005  0.6323  0.5759  0.0595
15580TIP3    H268156   1.275   0.359  10.854 -1.7003 -1.8590  0.1215
15581TIP3   OH268157   2.565   0.488   1.750  0.5208 -0.0249 -0.5297
15581TIP3    H168158   2.592   0.399   1.731 -1.6459 -1.1923  1.5920
15581TIP3    H268159   2.471   0.489   1.732  0.1912  1.3164  1.1392
15582TIP3   OH268160   4.383   1.177   0.794 -0.2728  0.5232  0.2072
15582TIP3    H168161   4.362   1.215   0.709  1.2769 -1.6587 -1.2185
15582TIP3    H268162   4.305   1.128   0.819 -0.4897  0.6127 -0.2935
15583TIP3   OH268163   1.303   6.438  12.041 -0.4193  0.2916 -0.0648
15583TIP3    H168164   1.349   6.520  12.023  1.2813 -0.3462  1.2073
15583TIP3    H268165   1.253   6.455  12.121 -0.9507  0.4494 -0.4381
15584TIP3   OH268166   4.910   1.732   4.427  0.4648 -0.0696 -0.1093
15584TIP3    H168167   4.874   1.818   4.407 -0.2773 -0.6185 -1.2500
15584TIP3    H268168   4.970   1.713   4.355  1.2682 -0.1462  0.5771
15585TIP3   OH268169   4.646   2.792   2.926 -0.2467 -0.3255 -0.0986
15585TIP3    H168170   4.626   2.811   3.018  0.6147 -0.0874  0.0482
15585TIP3    H268171   4.589   2.718   2.904 -2.2735  1.2130 -0.1206
15586TIP3   OH268172   6.610   6.411  14.241  0.0385  0.1492  0.2509
15586TIP3    H168173   6.601   6.506  14.250 -2.1527  0.0367 -0.3165
15586TIP3    H268174   6.576   6.392  14.153  1.0738 -1.0841  0.1052
15587TIP3   OH268175   5.624   5.591  16.697 -0.1485 -0.3482  0.0326
15587TIP3    H168176   5.615   5.680  16.731  0.9680 -0.2727  0.1748
15587TIP3    H268177   5.554   5.582  16.633  2.9261  2.5487 -3.9812
15588TIP3   OH268178   6.666   2.972  16.226 -0.3886 -0.2748 -0.5123
15588TIP3    H168179   6.603   2.919  16.177 -0.3912 -0.3481 -0.4308
15588TIP3    H268180   6.649   2.951  16.318  0.6421 -1.3220 -0.5380
15589TIP3   OH268181   2.251   0.765   3.888  0.0714  0.2772  0.4160
15589TIP3    H168182   2.287   0.812   3.812 -0.6779 -0.9682 -0.7354
15589TIP3    H268183   2.221   0.834   3.947  1.6022  1.2897  0.0487
15590TIP3   OH268184   3.959   5.064   3.688  0.2548 -0.1553 -0.3779
15590TIP3    H168185   3.864   5.053   3.689 -0.0596  2.2074 -1.1030
15590TIP3    H268186   3.984   5.074   3.780 -0.6987  2.7377 -0.3693
15591TIP3   OH268187   3.992   0.346   0.071  0.2111 -0.3931 -0.2428
15591TIP3    H168188   3.962   0.265   0.030  0.8792 -0.6141 -0.3054
15591TIP3    H268189   3.923   0.368   0.133 -0.2591 -0.6842 -0.6599
15592TIP3   OH268190   0.607   2.363  12.665  0.0432  0.2512  0.1451
15592TIP3    H168191   0.598   2.369  12.570  0.3085 -0.2111  0.0882
15592TIP3    H268192   0.623   2.452  12.694 -0.6987  0.4955 -0.1734
15593TIP3   OH268193   2.230   1.007   0.585  0.6034 -0.4097 -0.1024
15593TIP3    H168194   2.323   1.016   0.561  0.8922  0.8084  1.3729
15593TIP3    H268195   2.231   0.957   0.667  0.0021  0.0763  0.2054
15594TIP3   OH268196   1.764   6.170   5.241 -0.5535 -0.2086 -0.1279
15594TIP3    H168197   1.837   6.221   5.276  0.2866 -0.8707 -0.8749
15594TIP3    H268198   1.713   6.145   5.318 -0.0101  0.3032  0.4032
15595TIP3   OH268199   3.945   4.523   3.901 -0.1796 -0.4535  0.7880
15595TIP3    H168200   4.038   4.500   3.893  0.1953  1.7049 -1.5279
15595TIP3    H268201   3.902   4.441   3.924  1.7497 -2.4014 -2.2617
15596TIP3   OH268202   2.930   6.690  14.321 -0.6223  0.0981  0.2547
15596TIP3    H168203   2.959   6.738  14.399  2.0129  0.3579 -0.8435
15596TIP3    H268204   2.841   6.722  14.305 -1.7624 -0.9198  3.8798
15597TIP3   OH268205   6.704   4.821   0.617 -0.7253 -0.2189  0.5537
15597TIP3    H168206   6.774   4.775   0.662  0.7198  2.6210  1.3569
15597TIP3    H268207   6.687   4.898   0.672 -2.1612  0.8732 -1.3581
15598TIP3   OH268208   5.468   6.545   2.025 -0.0787 -0.3538  0.3692
15598TIP3    H168209   5.446   6.579   1.938  0.1208 -0.2693  0.3512
15598TIP3    H268210   5.532   6.608   2.059 -0.2719 -0.3043  0.6385
15599TIP3   OH268211   6.068   3.985  12.149  0.0915 -0.0242  0.4167
15599TIP3    H168212   6.066   4.022  12.061  1.3060 -0.4036  0.2278
15599TIP3    H268213   6.137   4.033  12.195  0.7850 -1.1300  0.5650
15600TIP3   OH268214   1.466   5.276  11.374  0.2125 -0.3354 -0.3288
15600TIP3    H168215   1.518   5.306  11.448  0.8925 -0.7912 -0.6118
15600TIP3    H268216   1.493   5.185  11.361 -2.3300 -1.3373  0.9722
15601TIP3   OH268217   4.172   4.831  16.712  0.1978  0.3743 -0.1656
15601TIP3    H168218   4.221   4.858  16.635 -0.0035  0.1310 -0.3755
15601TIP3    H268219   4.238   4.793  16.770  0.1763 -0.4015 -0.6530
15602TIP3   OH268220   0.583   3.605   1.549  0.3420  0.1692 -0.4799
15602TIP3    H168221   0.542   3.595   1.635  1.1351  1.4821  0.0711
15602TIP3    H268222   0.512   3.594   1.486 -0.1067 -1.5805  0.3035
15603TIP3   OH268223   6.706   4.764  16.486 -0.4864 -0.0792  0.5814
15603TIP3    H168224   6.615   4.793  16.493 -0.6854 -0.5238 -0.0411
15603TIP3    H268225   6.704   4.696  16.419  0.3682  0.1680  0.2902
15604TIP3   OH268226   5.338   3.248  10.601  0.9597 -0.3863  0.4307
15604TIP3    H168227   5.326   3.342  10.591  0.6284 -0.5549 -0.9451
15604TIP3    H268228   5.433   3.235  10.597  0.9464 -0.2291 -0.7804
15605TIP3   OH268229   2.274   1.284   0.697 -0.0826  0.9761  0.3633
15605TIP3    H168230   2.184   1.292   0.728 -0.0328  1.0823  0.4783
15605TIP3    H268231   2.321   1.243   0.769 -0.2325  0.0758 -0.0385
15606TIP3   OH268232   3.497   5.415   2.886 -0.4627  0.0941 -0.2801
15606TIP3    H168233   3.449   5.489   2.924  1.8536  2.1304 -1.1102
15606TIP3    H268234   3.515   5.442   2.796  0.1158 -1.6648 -0.7128
15607TIP3   OH268235   4.734   3.842   3.442  0.2126 -0.2638 -0.0386
15607TIP3    H168236   4.788   3.920   3.428 -0.5052  0.4139  0.8919
15607TIP3    H268237   4.719   3.807   3.354  2.5450 -0.7336 -0.2942
15608TIP3   OH268238   3.253   5.633  13.425  0.4490 -0.1271 -0.5619
15608TIP3    H168239   3.222   5.607  13.512 -0.0052  1.6952 -0.1672
15608TIP3    H268240   3.296   5.554  13.391  3.5276  0.0539  2.6033
15609TIP3   OH268241   1.602   4.162   0.641 -1.1989 -0.1071 -0.2948
15609TIP3    H168242   1.592   4.101   0.568  0.4848 -2.3700  1.2336
15609TIP3    H268243   1.679   4.214   0.618 -1.7294  0.4026 -0.9240
15610TIP3   OH268244   1.538   3.824   0.729 -0.0232  0.0400 -0.0645
15610TIP3    H168245   1.451   3.854   0.705 -0.5863 -1.2838  0.2411
15610TIP3    H268246   1.539   3.829   0.825 -0.3503 -1.4534  0.0318
15611TIP3   OH268247   6.423   4.230  10.995  0.4998  0.5805  0.7234
15611TIP3    H168248   6.372   4.264  10.922  0.1585 -0.3264  0.5385
15611TIP3    H268249   6.508   4.274  10.988 -0.4297  2.5484  1.3879
15612TIP3   OH268250   2.739   2.460  10.916  0.0522 -0.3290 -0.1484
15612TIP3    H168251   2.745   2.404  10.839 -0.5592 -0.4480 -0.1042
15612TIP3    H268252   2.825   2.452  10.958 -0.4329 -2.1801  0.5338
15613TIP3   OH268253   6.165   5.751  13.279 -0.0741 -0.0695  0.3888
15613TIP3    H168254   6.191   5.704  13.200  0.4213  0.1181  0.4388
15613TIP3    H268255   6.095   5.809  13.249  1.1355  1.0958 -0.2432
15614TIP3   OH268256   1.206   1.117   1.559  0.6857 -0.0189 -0.0480
15614TIP3    H168257   1.156   1.061   1.619  1.8781 -0.5599  0.4710
15614TIP3    H268258   1.232   1.059   1.488 -1.4096  0.8129 -1.5160
15615TIP3   OH268259   5.646   2.732  15.886 -0.3732  0.0530  0.1057
15615TIP3    H168260   5.720   2.672  15.901  0.4444  1.5046  2.2120
15615TIP3    H268261   5.651   2.754  15.793  2.1853  0.4922  0.3041
15616TIP3   OH268262   1.248   1.477  13.593 -0.0079 -0.2743  0.0474
15616TIP3    H168263   1.253   1.391  13.635 -0.7408 -0.4639 -0.2542
15616TIP3    H268264   1.290   1.464  13.507 -1.7439 -0.7907 -0.7380
15617TIP3   OH268265   3.562   1.845  14.110  0.0899 -0.1906 -0.4194
15617TIP3    H168266   3.555   1.799  14.026 -0.3546 -0.1730 -0.3909
15617TIP3    H268267   3.500   1.917  14.104  0.3813  0.0766 -0.2454
15618TIP3   OH268268   6.012   3.617  13.861 -0.4376  0.8707  0.5137
15618TIP3    H168269   6.034   3.604  13.953  0.2103  1.0794  0.3889
15618TIP3    H268270   6.096   3.622  13.816 -0.7567  0.0812 -0.1878
15619TIP3   OH268271   3.605   1.857   2.345 -0.1386  0.1883  0.2751
15619TIP3    H168272   3.516   1.833   2.321 -0.5226  0.1967  1.6412
15619TIP3    H268273   3.638   1.907   2.271 -0.6310 -1.3648 -1.0244
15620TIP3   OH268274   3.057   5.298  11.339  0.1538 -0.0140  0.3692
15620TIP3    H168275   3.138   5.256  11.369  1.8443  0.8705 -2.7102
15620TIP3    H268276   3.083   5.386  11.315 -1.7202  0.2600 -0.7809
15621TIP3   OH268277   4.251   0.309  11.013 -0.2723  0.2794 -0.4534
15621TIP3    H168278   4.251   0.250  11.088  1.2928 -0.5945 -1.1068
15621TIP3    H268279   4.337   0.350  11.015 -0.3590  0.5278 -1.5595
15622TIP3   OH268280   6.744   0.254  17.125 -0.1005 -0.1749 -0.0328
15622TIP3    H168281   6.756   0.280  17.217 -1.3177 -0.2171  0.1545
15622TIP3    H268282   6.753   0.336  17.076 -1.5510  0.2253  0.3351
15623TIP3   OH268283   2.549   2.339  14.112  0.0477  0.2202  0.3082
15623TIP3    H168284   2.510   2.349  14.198  0.5502 -2.9482  0.9488
15623TIP3    H268285   2.476   2.344  14.051 -0.3680  2.0038  0.9361
15624TIP3   OH268286   0.810   1.257  11.721  0.3838  0.2812 -0.0205
15624TIP3    H168287   0.851   1.231  11.803 -0.3998  0.7951  0.5438
15624TIP3    H268288   0.776   1.345  11.738  0.1619  0.3628 -0.8730
15625TIP3   OH268289   0.854   0.709   3.296 -0.0799 -0.4326 -0.1176
15625TIP3    H168290   0.827   0.643   3.232  0.9610 -0.5060 -0.4877
15625TIP3    H268291   0.779   0.716   3.356 -1.9788  1.2272 -2.5615
15626TIP3   OH268292   4.057   3.330  14.446  0.9902 -0.0425 -0.0605
15626TIP3    H168293   3.986   3.281  14.488  0.7195  0.4449  0.0606
15626TIP3    H268294   4.137   3.285  14.472  0.7297 -0.5416 -0.1229
15627TIP3   OH268295   1.181   0.587   6.087  0.1903  0.0822 -0.7862
15627TIP3    H168296   1.248   0.655   6.086 -0.9890  1.3821  2.2141
15627TIP3    H268297   1.108   0.624   6.037  0.6332 -0.2024 -1.6592
15628TIP3   OH268298   1.425   0.652   1.390  0.6789  0.1640  0.6807
15628TIP3    H168299   1.334   0.679   1.376  0.5709 -0.9858 -1.1090
15628TIP3    H268300   1.473   0.733   1.400 -0.3803  0.8321  0.4598
15629TIP3   OH268301   0.478   0.218  15.534  0.1126 -0.6985  0.1719
15629TIP3    H168302   0.407   0.153  15.533 -2.5791  2.1020 -0.3844
15629TIP3    H268303   0.471   0.260  15.448  1.6001  0.5253  0.6521
15630TIP3   OH268304   1.134   0.308   1.397 -0.2613  0.5854  0.0382
15630TIP3    H168305   1.086   0.254   1.335  1.2982  0.0033 -0.7060
15630TIP3    H268306   1.226   0.297   1.371  0.3491  0.9167  1.9993
15631TIP3   OH268307   3.498   4.894   2.937 -0.2417  0.2556 -1.1590
15631TIP3    H168308   3.552   4.853   2.869 -1.3688 -1.4561 -1.0456
15631TIP3    H268309   3.560   4.917   3.006  0.4892 -0.8033 -1.4461
15632TIP3   OH268310   2.044   0.671  12.385 -0.8531  0.4369 -0.5233
15632TIP3    H168311   2.070   0.598  12.329  0.0688  0.1371  0.2688
15632TIP3    H268312   2.087   0.747  12.347  1.4796 -0.0936  0.9202
15633TIP3   OH268313   0.816   3.814   0.782  0.2928  0.2342 -0.3201
15633TIP3    H168314   0.838   3.803   0.689  0.8220 -2.1975  0.0604
15633TIP3    H268315   0.721   3.814   0.785  0.2755 -1.5035 -0.6782
15634TIP3   OH268316   0.934   5.134  11.233 -0.7454 -0.2715 -0.2302
15634TIP3    H168317   0.980   5.116  11.151 -0.8728 -0.5251 -0.2484
15634TIP3    H268318   0.936   5.050  11.280 -1.7238 -0.4516 -0.4956
15635TIP3   OH268319   0.231   1.347  16.885  0.4888  0.0868  0.6952
15635TIP3    H168320   0.249   1.323  16.977  1.2818 -1.0294  0.2666
15635TIP3    H268321   0.301   1.409  16.863 -0.5911  1.5401  1.2959
15636TIP3   OH268322   6.290   3.243   4.481 -0.7693  0.5538 -0.2759
15636TIP3    H168323   6.236   3.248   4.402  0.9385 -0.0462 -1.5026
15636TIP3    H268324   6.228   3.219   4.550 -1.9361 -1.0178 -1.8072
15637TIP3   OH268325   3.521   0.340   3.958 -0.1772  0.1385 -0.0329
15637TIP3    H168326   3.496   0.379   3.874 -0.8702 -3.3129 -1.4956
15637TIP3    H268327   3.438   0.314   3.998  0.2189  0.9231  1.3407
15638TIP3   OH268328   0.658   1.490   3.617 -0.3794  0.5391  0.2900
15638TIP3    H168329   0.699   1.533   3.692 -1.7223 -0.4032  1.5874
15638TIP3    H268330   0.699   1.531   3.541  0.6336  1.8711  1.5205
15639TIP3   OH268331   1.569   0.952   1.358 -0.5100 -0.0099 -0.5174
15639TIP3    H168332   1.596   1.033   1.400 -0.9747  0.6671 -1.4954
15639TIP3    H268333   1.478   0.967   1.333 -0.8273 -1.1050 -0.0468
15640TIP3   OH268334   2.386   4.301   4.704 -0.0711 -0.3374 -0.5916
15640TIP3    H168335   2.392   4.382   4.653 -0.7830  0.5179  0.6223
15640TIP3    H268336   2.292   4.292   4.722  0.0841 -1.0633 -0.1327
15641TIP3   OH268337   3.984   6.775  12.216  0.3407 -0.1123 -0.5272
15641TIP3    H168338   3.974   6.745  12.126 -1.0879 -1.0683 -0.0497
15641TIP3    H268339   3.901   6.754  12.258  1.1030  0.0811  1.0919
15642TIP3   OH268340   6.403   5.709   5.174 -1.0536  0.2293  0.1303
15642TIP3    H168341   6.368   5.700   5.263 -0.3823  1.8297  0.5701
15642TIP3    H268342   6.331   5.748   5.123 -0.8583  0.9469  0.3934
15643TIP3   OH268343   1.406   6.339  12.810 -0.0255 -0.6021  0.0266
15643TIP3    H168344   1.454   6.349  12.728 -0.7333 -1.3394 -0.4842
15643TIP3    H268345   1.471   6.307  12.872  0.2622 -1.0814 -0.5227
15644TIP3   OH268346   6.216   0.672  16.383 -0.6553 -0.1711 -0.2914
15644TIP3    H168347   6.227   0.635  16.470 -1.6689  1.5316  0.5652
15644TIP3    H268348   6.303   0.708  16.361 -0.1722 -1.3512 -0.3665
15645TIP3   OH268349   2.870   1.659  12.436  0.1219 -0.4273  0.6583
15645TIP3    H168350   2.824   1.589  12.391  0.5357  0.7195 -1.6157
15645TIP3    H268351   2.962   1.647  12.411  0.1884  0.9203  0.2309
15646TIP3   OH268352   0.475   5.367   3.282 -0.1039 -0.5379 -0.7508
15646TIP3    H168353   0.522   5.448   3.260 -0.0932 -1.1256 -2.9819
15646TIP3    H268354   0.541   5.298   3.276 -0.6947 -1.0457 -1.4646
15647TIP3   OH268355   0.412   3.827  14.649  0.4153  0.0736 -0.0281
15647TIP3    H168356   0.373   3.803  14.733  2.2026 -0.0533  0.7977
15647TIP3    H268357   0.339   3.861  14.597 -0.6383  0.4971  1.6994
15648TIP3   OH268358   2.818   0.997  16.280  0.7040  0.3964  0.6045
15648TIP3    H168359   2.791   1.056  16.350  1.2292  0.7008  0.5521
15648TIP3    H268360   2.846   1.056  16.209 -1.7613  0.1473 -0.6461
15649TIP3   OH268361   0.295   5.382  12.956 -0.2862  0.4849  0.2608
15649TIP3    H168362   0.232   5.450  12.933 -0.0260  1.4412  2.2817
15649TIP3    H268363   0.242   5.302  12.961 -0.7251  0.6516 -1.3872
15650TIP3   OH268364   1.499   1.016   4.543 -0.1809 -0.1575  0.5805
15650TIP3    H168365   1.471   1.107   4.545 -2.7777 -0.9268  1.1573
15650TIP3    H268366   1.465   0.978   4.623 -0.2044 -1.9485 -0.2502
15651TIP3   OH268367   3.277   5.589  16.727  0.2949  0.1499 -0.1981
15651TIP3    H168368   3.331   5.659  16.765  1.9496 -0.5278 -1.2283
15651TIP3    H268369   3.231   5.550  16.802 -0.1839  1.9419  0.4588
15652TIP3   OH268370   5.260   0.477   2.811  0.0033 -0.1599  0.1462
15652TIP3    H168371   5.349   0.448   2.790 -0.0862 -0.1122 -0.3055
15652TIP3    H268372   5.208   0.452   2.735 -0.2849  0.2139  0.2191
15653TIP3   OH268373   3.099   5.276  16.587  0.1767  0.3418  0.5633
15653TIP3    H168374   3.063   5.219  16.656 -0.5224 -0.2270 -0.2528
15653TIP3    H268375   3.050   5.358  16.596 -0.2269  0.1136  0.4636
15654TIP3   OH268376   0.364   5.424  11.489  0.5126 -0.5119  0.8603
15654TIP3    H168377   0.448   5.404  11.529  0.2302 -1.7770  0.8303
15654TIP3    H268378   0.304   5.431  11.564  0.1411 -2.1043  0.7129
15655TIP3   OH268379   5.846   5.748  17.152 -0.4172 -0.6038 -0.3662
15655TIP3    H168380   5.889   5.800  17.084 -0.3120 -0.2755 -0.0522
15655TIP3    H268381   5.828   5.663  17.111  1.0386 -0.9390 -0.3156
15656TIP3   OH268382   2.667   3.910   4.483  0.2471  0.4392  0.5635
15656TIP3    H168383   2.730   3.927   4.553 -0.1401  0.2305  0.9669
15656TIP3    H268384   2.584   3.943   4.518  0.3767  1.8672 -0.4682
15657TIP3   OH268385   5.443   1.698   2.923 -0.2767  0.2482 -0.0496
15657TIP3    H168386   5.488   1.774   2.960  3.0422 -1.4198 -0.5488
15657TIP3    H268387   5.505   1.662   2.859 -2.3668 -2.0899 -0.8207
15658TIP3   OH268388   4.853   2.316  16.972 -0.0624  0.4078 -0.0814
15658TIP3    H168389   4.801   2.388  16.936  0.8280  0.9044 -0.3666
15658TIP3    H268390   4.927   2.358  17.016  0.4011 -0.3280 -0.1379
15659TIP3   OH268391   4.283   5.871  13.281  0.0556  0.1507  0.3283
15659TIP3    H168392   4.253   5.924  13.354 -1.4141  0.8680 -0.7749
15659TIP3    H268393   4.275   5.929  13.204 -0.3781 -1.2413 -0.7001
15660TIP3   OH268394   3.847   5.597   3.016 -0.1387  0.0744 -0.4174
15660TIP3    H168395   3.832   5.511   2.978 -0.5539 -0.2839  0.5475
15660TIP3    H268396   3.806   5.658   2.954  0.0091 -0.4269 -1.0126
15661TIP3   OH268397   3.770   2.946   2.281 -0.1153  0.0971  0.1339
15661TIP3    H168398   3.699   2.888   2.308  1.2091 -1.5616  0.1721
15661TIP3    H268399   3.818   2.965   2.362 -0.9664  1.8583  0.2392
15662TIP3   OH268400   6.276   4.143  14.081  0.2486 -0.3647  0.2832
15662TIP3    H168401   6.332   4.144  14.003  2.4879  0.5203  1.8314
15662TIP3    H268402   6.229   4.060  14.076  2.1092 -1.3815 -0.8316
15663TIP3   OH268403   2.306   6.356  16.113  0.0629  0.1985  0.2485
15663TIP3    H168404   2.223   6.399  16.089  0.6444  0.5278 -1.2044
15663TIP3    H268405   2.330   6.306  16.036  0.4765 -1.0965  1.2017
15664TIP3   OH268406   6.423   2.185   4.431 -0.1092 -0.5786  1.1683
15664TIP3    H168407   6.415   2.210   4.339 -0.4807  1.8920  1.8345
15664TIP3    H268408   6.383   2.098   4.436  0.1994 -0.8650 -1.0518
15665TIP3   OH268409   2.915   2.491  16.743  0.0149 -0.7943  0.0468
15665TIP3    H168410   2.859   2.483  16.666 -0.2283 -0.9824  0.2440
15665TIP3    H268411   2.855   2.489  16.817  0.1432  0.7446  0.1923
15666TIP3   OH268412   0.862   2.328   4.828 -0.1552 -0.7890 -0.7756
15666TIP3    H168413   0.826   2.240   4.821  0.8811 -1.2736 -0.0248
15666TIP3    H268414   0.790   2.381   4.862 -1.0285 -1.1699 -1.9987
15667TIP3   OH268415   4.878   4.317  14.071 -0.3400 -0.2663 -0.1620
15667TIP3    H168416   4.790   4.289  14.047 -0.2767 -0.1487 -0.5308
15667TIP3    H268417   4.878   4.411  14.055  0.4372 -0.5499 -2.0044
15668TIP3   OH268418   0.334   2.060  12.846  0.5091  0.6448 -0.3397
15668TIP3    H168419   0.371   2.053  12.757  1.3052  1.6284 -0.0954
15668TIP3    H268420   0.336   1.970  12.880 -2.0474 -0.1873 -2.1760
15669TIP3   OH268421   5.109   1.078   4.242 -0.2656  0.0083 -0.1108
15669TIP3    H168422   5.168   1.138   4.197 -1.4169  0.6916 -0.7270
15669TIP3    H268423   5.100   1.004   4.182 -0.2983  0.0518 -0.1593
15670TIP3   OH268424   1.760   4.913  14.263  0.4250 -0.5978  0.1833
15670TIP3    H168425   1.839   4.963  14.286 -0.3320  0.5466  0.3801
15670TIP3    H268426   1.735   4.947  14.177  0.3011 -1.1607 -0.0039
15671TIP3   OH268427   3.568   4.117  16.813  0.3387 -0.4913  0.8817
15671TIP3    H168428   3.480   4.082  16.797 -0.0530  0.9170 -0.0710
15671TIP3    H268429   3.598   4.148  16.728  1.1386  0.4439  1.4968
15672TIP3   OH268430   6.618   5.498   0.580 -0.1729  0.3516 -0.0242
15672TIP3    H168431   6.646   5.559   0.513  1.4598 -0.4525 -0.0974
15672TIP3    H268432   6.688   5.499   0.645 -0.0270 -1.5924 -0.1254
15673TIP3   OH268433   3.385   2.668   3.705  0.7826 -0.0094  0.6173
15673TIP3    H168434   3.320   2.616   3.657 -0.2734 -0.1790  2.1890
15673TIP3    H268435   3.470   2.637   3.672  0.1668 -2.4143  1.1763
15674TIP3   OH268436   4.803   0.671  12.497 -0.2035  0.2315 -0.1922
15674TIP3    H168437   4.830   0.733  12.429  2.6008 -0.3074  0.3477
15674TIP3    H268438   4.809   0.720  12.579 -2.2136  0.4715 -0.1689
15675TIP3   OH268439   2.649   4.460  14.630  0.2622  0.0324 -0.1114
15675TIP3    H168440   2.621   4.549  14.610  0.2621  0.3347  1.2275
15675TIP3    H268441   2.628   4.448  14.722 -1.5456 -2.0409 -0.7634
15676TIP3   OH268442   6.443   3.820   4.882 -0.5765 -0.3996 -0.2238
15676TIP3    H168443   6.444   3.778   4.796 -0.4553 -0.6072 -0.1202
15676TIP3    H268444   6.524   3.791   4.924  0.3885  1.3342 -0.8258
15677TIP3   OH268445   2.871   1.356  16.346 -0.0972 -0.0878 -0.2849
15677TIP3    H168446   2.844   1.308  16.424 -0.2084  1.2996  0.5570
15677TIP3    H268447   2.957   1.320  16.324  0.9867  1.0753  1.8514
15678TIP3   OH268448   3.960   1.318  14.871 -0.0375 -0.3376 -0.0754
15678TIP3    H168449   4.015   1.275  14.936 -0.1399 -0.5229 -0.1125
15678TIP3    H268450   3.880   1.340  14.918  0.0162 -0.1804 -0.0551
15679TIP3   OH268451   6.635   5.602  13.922 -0.1648  0.5063 -0.0442
15679TIP3    H168452   6.680   5.687  13.926  1.8368 -0.5702  1.0651
15679TIP3    H268453   6.593   5.601  13.836 -0.5120  2.7591  0.0610
15680TIP3   OH268454   3.499   0.974   3.128 -0.2841 -0.4469  0.6049
15680TIP3    H168455   3.469   0.930   3.207  2.8003 -1.9041  1.0386
15680TIP3    H268456   3.504   0.904   3.062  1.1760 -0.0923  0.3095
15681TIP3   OH268457   6.258   4.438  14.075  0.1559 -0.1900 -0.2087
15681TIP3    H168458   6.333   4.457  14.018  0.8930 -2.2630  0.0474
15681TIP3    H268459   6.263   4.344  14.091 -2.5738 -0.3800 -0.2589
15682TIP3   OH268460   3.568   0.091  15.522 -0.1578  0.5396 -0.1648
15682TIP3    H168461   3.566   0.159  15.590  0.5826  0.9549 -0.5552
15682TIP3    H268462   3.611   0.016  15.564 -2.8340 -0.4194  0.9234
15683TIP3   OH268463   6.638   4.314  15.434  0.5246  0.8353 -0.0283
15683TIP3    H168464   6.635   4.277  15.522 -1.5953  0.0260 -0.4109
15683TIP3    H268465   6.561   4.370  15.429 -0.0948 -0.1332 -1.7824
15684TIP3   OH268466   1.036   3.474  13.133 -0.1047 -0.0367 -0.5214
15684TIP3    H168467   1.130   3.456  13.131  0.2978  1.9882 -0.7491
15684TIP3    H268468   1.008   3.462  13.042  0.3044  1.1713 -0.8164
15685TIP3   OH268469   4.132   5.124   4.825  0.0203 -0.4397  0.1963
15685TIP3    H168470   4.204   5.170   4.780  0.1740 -0.1796  0.7008
15685TIP3    H268471   4.098   5.063   4.760  1.1103 -1.0072  0.1470
15686TIP3   OH268472   3.037   0.803  12.815  0.2045 -0.2874  0.3078
15686TIP3    H168473   3.099   0.739  12.850  0.1989 -0.7918 -0.5940
15686TIP3    H268474   3.084   0.886  12.820  0.7320 -0.5756  0.1832
15687TIP3   OH268475   0.809   5.429  16.030  0.2103 -0.4774 -0.0919
15687TIP3    H168476   0.745   5.468  16.090  0.6803 -1.3739  1.0012
15687TIP3    H268477   0.873   5.387  16.087  1.8579  0.5173 -1.1681
15688TIP3   OH268478   0.652   4.608  16.678 -0.5387  0.0700  0.4194
15688TIP3    H168479   0.715   4.610  16.606  0.5781 -1.6932  1.3062
15688TIP3    H268480   0.573   4.647  16.641  0.2732 -0.0122 -1.4944
15689TIP3   OH268481   4.422   5.326  11.623 -0.0234  0.2963 -0.3488
15689TIP3    H168482   4.508   5.288  11.608 -0.2938  0.1441 -1.5523
15689TIP3    H268483   4.414   5.394  11.556 -0.4012  1.0295  0.4406
15690TIP3   OH268484   3.677   3.951   2.502  0.3788  0.0543  0.7320
15690TIP3    H168485   3.639   3.864   2.512  1.7936 -0.4409  2.1520
15690TIP3    H268486   3.693   3.960   2.408 -0.8450 -0.7449  0.4383
15691TIP3   OH268487   0.994   0.922  15.224  0.1135  0.2167  0.6048
15691TIP3    H168488   1.043   0.841  15.217 -0.3964  0.0896 -1.8826
15691TIP3    H268489   1.059   0.988  15.249  0.8077 -0.6405  1.0772
15692TIP3   OH268490   5.595   2.565  16.308  0.4643  0.0005 -0.0525
15692TIP3    H168491   5.562   2.640  16.257 -0.3451 -0.0465  0.3937
15692TIP3    H268492   5.561   2.580  16.396  1.9566  0.1329  0.5034
15693TIP3   OH268493   3.905   2.220   3.725  0.6483  0.6190  0.0344
15693TIP3    H168494   3.887   2.161   3.652  0.8708  1.2248 -0.5249
15693TIP3    H268495   3.893   2.167   3.804 -0.6939  0.2464 -0.4128
15694TIP3   OH268496   4.765   5.148  14.195 -0.1758  0.1781  0.2232
15694TIP3    H168497   4.737   5.235  14.168 -0.9739  0.0334  0.5696
15694TIP3    H268498   4.821   5.118  14.124 -1.6739  0.0875 -0.9488
15695TIP3   OH268499   5.574   1.030   0.393  0.7097  0.9278 -0.0517
15695TIP3    H168500   5.534   0.955   0.349  1.0249  0.7377 -0.0194
15695TIP3    H268501   5.586   1.001   0.483 -2.5655  2.3159  0.8936
15696TIP3   OH268502   2.925   0.959  12.166  0.3624  0.1899  0.3140
15696TIP3    H168503   2.975   0.948  12.085  1.0808  0.0776  0.7723
15696TIP3    H268504   2.988   0.994  12.229 -0.1232  0.0057  0.9088
15697TIP3   OH268505   2.951   5.530   0.409 -0.1098  0.1013 -0.1681
15697TIP3    H168506   2.900   5.450   0.395 -0.1644  0.3219 -1.2717
15697TIP3    H268507   2.938   5.581   0.330 -0.0610  1.2064  0.5282
15698TIP3   OH268508   3.333   6.691  17.115  0.0730 -0.4229 -0.1270
15698TIP3    H168509   3.320   6.768  17.060  0.0118  0.0313  0.5207
15698TIP3    H268510   3.247   6.673  17.152  0.0406 -0.9360 -0.4482
15699TIP3   OH268511   3.088   2.824   1.553 -0.0132  0.7697  0.3220
15699TIP3    H168512   3.063   2.795   1.640  1.1678 -0.0556  0.4001
15699TIP3    H268513   3.021   2.789   1.495  1.0108 -1.5396  0.4987
15700TIP3   OH268514   1.491   1.534   2.733 -0.0253  0.3198 -0.1140
15700TIP3    H168515   1.556   1.465   2.747 -0.5282 -0.8153 -3.1064
15700TIP3    H268516   1.446   1.542   2.818  0.8773 -2.1371  0.6512
15701TIP3   OH268517   1.862   0.990   4.428  0.4069  0.0103 -0.0332
15701TIP3    H168518   1.856   1.080   4.459 -1.6223 -0.3779  0.8187
15701TIP3    H268519   1.820   0.992   4.341  1.9231  0.2032 -0.7776
15702TIP3   OH268520   3.658   6.359  16.367 -0.4462  0.2190  0.2556
15702TIP3    H168521   3.634   6.441  16.323 -0.5086  0.6114  1.0215
15702TIP3    H268522   3.582   6.302  16.355 -0.5753  0.4202  0.0998
15703TIP3   OH268523   4.585   5.404  11.242  0.1295  0.1254  0.0013
15703TIP3    H168524   4.499   5.446  11.238  0.6387  1.0687 -1.3358
15703TIP3    H268525   4.568   5.318  11.279 -1.2892  0.5779  0.4346
15704TIP3   OH268526   2.824   1.795   5.337 -1.0426 -0.2430  0.1610
15704TIP3    H168527   2.835   1.774   5.430  1.2192 -2.2489 -0.5079
15704TIP3    H268528   2.795   1.713   5.297  1.7418 -0.4762 -1.4970
15705TIP3   OH268529   3.650   0.306   5.431 -0.1573 -1.1142 -0.1724
15705TIP3    H168530   3.660   0.231   5.373 -0.4885 -1.5803  0.3640
15705TIP3    H268531   3.636   0.380   5.372 -0.7487 -1.6173 -0.6861
15706TIP3   OH268532   5.432   6.059   5.549  0.0380  0.2007 -0.5210
15706TIP3    H168533   5.490   6.129   5.580 -2.0297  2.0231 -0.6504
15706TIP3    H268534   5.457   5.983   5.602 -0.1242  1.9704  2.2187
15707TIP3   OH268535   2.878   1.778  13.660  0.0582  0.8187  0.1542
15707TIP3    H168536   2.839   1.842  13.600  0.3751 -0.7563 -1.7648
15707TIP3    H268537   2.816   1.706  13.662  1.3591 -0.3390 -0.4737
15708TIP3   OH268538   2.867   2.492   0.995  0.2474 -0.9119 -0.3240
15708TIP3    H168539   2.795   2.442   0.958 -0.0523 -2.0756  1.7303
15708TIP3    H268540   2.825   2.567   1.037  0.3718 -0.7182 -0.5491
15709TIP3   OH268541   6.598   3.416  14.686  0.5166 -0.0743 -0.5597
15709TIP3    H168542   6.529   3.349  14.682  0.6981 -0.3839  1.0309
15709TIP3    H268543   6.552   3.496  14.709  0.7029 -0.3462  0.8216
15710TIP3   OH268544   4.935   2.073   0.618 -0.6214 -0.5929 -0.3050
15710TIP3    H168545   4.846   2.062   0.651 -0.3786  1.2891  1.0170
15710TIP3    H268546   4.927   2.140   0.550 -0.3373 -1.0206 -0.7649
15711TIP3   OH268547   6.307   6.517  16.895 -0.2339  0.0083  0.0773
15711TIP3    H168548   6.238   6.513  16.829 -0.2230  0.4760  0.0315
15711TIP3    H268549   6.299   6.605  16.933  1.7249  0.8811 -1.4533
15712TIP3   OH268550   4.992   5.185   3.575 -0.0457 -0.1292  0.5766
15712TIP3    H168551   5.032   5.272   3.568 -0.0229 -0.1746  0.1536
15712TIP3    H268552   4.953   5.169   3.489  0.5384 -0.8285  0.4355
15713TIP3   OH268553   6.711   5.952  12.128  0.1187 -1.0214 -0.1785
15713TIP3    H168554   6.656   5.946  12.049 -1.1059  0.8117  0.5108
15713TIP3    H268555   6.782   6.011  12.103  0.2470 -1.1792 -0.1912
15714TIP3   OH268556   1.498   2.675   0.574  0.4195  0.6866  0.4811
15714TIP3    H168557   1.538   2.665   0.488 -1.0085 -0.1967 -0.1016
15714TIP3    H268558   1.538   2.606   0.627  1.0340  1.0039  0.4373
15715TIP3   OH268559   4.846   0.880  12.234  0.8092 -0.0085 -0.1300
15715TIP3    H168560   4.929   0.838  12.257  0.0140 -1.7127 -0.3034
15715TIP3    H268561   4.796   0.811  12.190 -0.5316  1.1261 -0.3948
15716TIP3   OH268562   4.640   3.975  11.333 -0.3732 -0.7027  0.1819
15716TIP3    H168563   4.608   3.900  11.283 -0.8316 -1.9265  2.2764
15716TIP3    H268564   4.695   4.023  11.271  0.0922 -2.8566 -1.1239
15717TIP3   OH268565   1.085   3.219   2.064 -0.6525 -0.8630  0.0867
15717TIP3    H168566   1.101   3.194   2.154  0.5403  0.0276  0.1299
15717TIP3    H268567   1.045   3.306   2.070  0.3047 -0.3869 -0.2641
15718TIP3   OH268568   4.662   2.537   4.535  0.6214  0.0313  0.1943
15718TIP3    H168569   4.720   2.576   4.601  1.5538  0.3410 -0.7993
15718TIP3    H268570   4.715   2.467   4.496 -0.1067 -0.4797  0.1053
15719TIP3   OH268571   0.185   0.750   5.195 -0.0981  0.1076  0.2461
15719TIP3    H168572   0.181   0.773   5.288  1.3107  0.8950  0.1195
15719TIP3    H268573   0.216   0.830   5.151 -1.1068 -0.1435 -0.9465
15720TIP3   OH268574   0.613   6.164  15.609  0.4327  0.2067 -0.0345
15720TIP3    H168575   0.559   6.134  15.683  0.1519  0.8360  0.0192
15720TIP3    H268576   0.600   6.098  15.542 -0.8268  0.6114 -0.2123
15721TIP3   OH268577   1.439   0.593  12.890  0.0416 -0.4739 -0.0216
15721TIP3    H168578   1.497   0.558  12.958  1.5029 -1.3410 -1.6899
15721TIP3    H268579   1.379   0.520  12.872 -0.0856 -0.3841  0.0382
15722TIP3   OH268580   0.335   5.407   2.660 -0.3381  0.3165  0.6754
15722TIP3    H168581   0.351   5.346   2.588  0.0055  0.4501  0.6397
15722TIP3    H268582   0.240   5.406   2.671 -0.3222 -0.3382  0.7686
15723TIP3   OH268583   2.640   3.028   2.624  0.2256 -0.0987  0.1992
15723TIP3    H168584   2.615   2.984   2.542  1.3756 -0.4351  0.0178
15723TIP3    H268585   2.657   2.956   2.685  1.1914  0.1094  0.1827
15724TIP3   OH268586   3.289   1.128   1.060 -0.2072 -0.4804  0.1408
15724TIP3    H168587   3.266   1.127   0.967  5.1745 -1.2320 -1.3684
15724TIP3    H268588   3.292   1.035   1.085  0.5799 -0.3865  0.4176
15725TIP3   OH268589   3.179   5.154   6.326 -0.2679 -0.0668  0.4181
15725TIP3    H168590   3.106   5.204   6.289 -0.1777 -1.4163 -1.6387
15725TIP3    H268591   3.141   5.108   6.400 -2.0193 -2.2692 -1.7773
15726TIP3   OH268592   4.935   1.139   3.125  0.2770 -0.2584  0.7865
15726TIP3    H168593   4.864   1.087   3.089 -1.5274  1.8530  1.1294
15726TIP3    H268594   4.999   1.075   3.157 -0.9831 -2.1908 -0.4810
15727TIP3   OH268595   1.826   3.756  13.786 -0.2102 -0.1522 -0.3700
15727TIP3    H168596   1.732   3.747  13.770 -0.1480  1.4246 -1.7605
15727TIP3    H268597   1.838   3.848  13.808  1.2107 -0.0254 -1.6362
15728TIP3   OH268598   4.127   6.120   6.555 -0.1993  0.0969  0.2329
15728TIP3    H168599   4.170   6.086   6.633  1.1101 -1.0685 -0.9803
15728TIP3    H268600   4.090   6.204   6.583  1.1516  0.1876  1.8284
15729TIP3   OH268601   3.255   2.092   2.864  0.2032  0.1162  0.1473
15729TIP3    H168602   3.302   2.057   2.939  0.9117 -0.9632 -0.7701
15729TIP3    H268603   3.321   2.095   2.794 -1.0901 -1.5530 -1.1986
15730TIP3   OH268604   1.718   4.491   5.748  0.6698  0.1018  0.0934
15730TIP3    H168605   1.766   4.570   5.773 -1.0991  1.9671 -2.1042
15730TIP3    H268606   1.691   4.508   5.657 -2.4772 -1.6564  0.6208
15731TIP3   OH268607   6.293   2.373  15.005  0.3081 -0.1909 -0.1299
15731TIP3    H168608   6.271   2.339  15.092  0.0054 -0.1230 -0.1803
15731TIP3    H268609   6.251   2.312  14.944 -1.1408  0.8769 -0.2157
15732TIP3   OH268610   6.330   4.824   5.404 -0.0725 -0.5831  0.3370
15732TIP3    H168611   6.413   4.786   5.375 -0.1906  0.4834 -1.4429
15732TIP3    H268612   6.352   4.913   5.431 -0.5304 -0.5200  0.5138
15733TIP3   OH268613   2.168   5.500  13.894 -0.2981 -0.2503 -0.1754
15733TIP3    H168614   2.220   5.439  13.841 -1.0247 -1.0969  0.0657
15733TIP3    H268615   2.078   5.476  13.875 -0.5793  0.4482  0.2860
15734TIP3   OH268616   2.541   2.945  11.118  0.1648  0.1957  0.2158
15734TIP3    H168617   2.496   3.020  11.156 -1.1481  0.0549 -0.9998
15734TIP3    H268618   2.553   2.969  11.026  0.0403 -0.9375 -0.1065
15735TIP3   OH268619   2.935   5.494   5.471  0.1345  0.9073 -0.1070
15735TIP3    H168620   3.009   5.439   5.448 -1.0430  0.0326 -1.9090
15735TIP3    H268621   2.905   5.460   5.556  0.0196 -0.5960 -0.7417
15736TIP3   OH268622   6.184   6.704  11.321  0.3397  0.3576 -0.2510
15736TIP3    H168623   6.117   6.662  11.268 -0.0652  0.1469  0.4342
15736TIP3    H268624   6.261   6.707  11.263 -0.1533  0.3090 -0.9200
15737TIP3   OH268625   6.361   5.050  12.621 -0.0014  0.4260  0.0151
15737TIP3    H168626   6.439   5.065  12.568 -0.5189  0.8774 -0.6240
15737TIP3    H268627   6.293   5.028  12.557  0.0524 -1.8736  0.6854
15738TIP3   OH268628   2.389   4.679   5.001  0.0689  0.4543 -0.3094
15738TIP3    H168629   2.470   4.638   4.971 -0.6022 -1.6702  0.7363
15738TIP3    H268630   2.388   4.665   5.096 -1.3955  0.6793 -0.2734
15739TIP3   OH268631   6.097   2.952   3.193  0.1944 -0.0323 -0.1915
15739TIP3    H168632   6.039   2.981   3.263 -0.0419  0.3833 -0.5548
15739TIP3    H268633   6.046   2.887   3.145 -0.2317  0.8178 -0.9144
15740TIP3   OH268634   1.138   5.645   2.278  0.4572  0.3129 -0.2950
15740TIP3    H168635   1.155   5.739   2.274 -1.1193  0.5964 -0.4109
15740TIP3    H268636   1.209   5.605   2.227  0.2786  1.5236 -1.4868
15741TIP3   OH268637   5.312   1.391  12.286 -0.1846  0.8111 -0.1561
15741TIP3    H168638   5.223   1.359  12.273  1.2356 -3.1411 -0.9200
15741TIP3    H268639   5.328   1.382  12.380 -0.7669  2.1409  0.0848
15742TIP3   OH268640   2.993   6.185  13.972 -0.7351 -0.0923  0.3690
15742TIP3    H168641   3.025   6.172  13.883 -1.6004  0.7377 -0.0782
15742TIP3    H268642   3.059   6.143  14.027  0.2156  0.0643 -0.6164
15743TIP3   OH268643   5.008   4.874   3.805  0.6979  0.3600  0.0962
15743TIP3    H168644   4.939   4.810   3.784  0.8930  0.1324  0.1484
15743TIP3    H268645   5.034   4.852   3.894 -0.9407  2.0647  1.0232
15744TIP3   OH268646   1.191   6.482   2.598  0.1913 -0.2051  0.0290
15744TIP3    H168647   1.165   6.518   2.683 -0.2180 -1.0535  0.2685
15744TIP3    H268648   1.208   6.389   2.616  0.9162 -0.2071 -0.6442
15745TIP3   OH268649   2.261   1.409   3.693 -0.5810  0.3481 -0.1987
15745TIP3    H168650   2.219   1.454   3.765 -1.8718 -0.4828 -0.4249
15745TIP3    H268651   2.344   1.456   3.681 -0.7366  1.0233  1.2460
15746TIP3   OH268652   2.857   2.056  12.360 -0.3498  0.4129  0.0969
15746TIP3    H168653   2.931   2.000  12.336 -0.2509  0.2729  0.7038
15746TIP3    H268654   2.885   2.144  12.338 -0.0762  0.3380  0.1455
15747TIP3   OH268655   0.733   2.084   2.226  0.8279  0.2767 -0.3660
15747TIP3    H168656   0.718   2.179   2.219  0.5963  0.3356  0.8427
15747TIP3    H268657   0.677   2.057   2.299  0.4700 -0.8890 -1.0717
15748TIP3   OH268658   6.252   3.342   1.203 -0.3948  0.2324  0.0196
15748TIP3    H168659   6.276   3.328   1.295  0.1680 -1.2936 -0.3444
15748TIP3    H268660   6.275   3.259   1.160 -1.8062  0.4923 -1.2589
15749TIP3   OH268661   3.828   6.479   0.530 -0.3543 -0.1477 -0.2611
15749TIP3    H168662   3.907   6.427   0.519  0.2609  0.6073  0.5349
15749TIP3    H268663   3.855   6.569   0.510 -1.2859 -0.0465 -1.1288
15750TIP3   OH268664   0.840   1.906  15.744 -0.0934  0.0226 -0.1193
15750TIP3    H168665   0.761   1.870  15.784  0.5292 -0.7023  0.4755
15750TIP3    H268666   0.819   1.911  15.650 -0.9542  0.1427  0.0776
15751TIP3   OH268667   5.798   4.062   2.285  0.1060 -0.2281  0.7430
15751TIP3    H168668   5.847   4.084   2.206 -2.5910  1.5057 -0.5322
15751TIP3    H268669   5.849   4.102   2.356  1.5423 -0.1304 -0.3155
15752TIP3   OH268670   5.499   4.594   3.601 -0.3862 -0.1132 -0.3425
15752TIP3    H168671   5.430   4.537   3.634 -1.5856  1.1375 -0.6923
15752TIP3    H268672   5.580   4.546   3.621 -1.2390 -0.7623  1.6808
15753TIP3   OH268673   1.429   6.307  16.785 -0.1674 -0.5033  0.1853
15753TIP3    H168674   1.516   6.266  16.786 -0.1804 -0.5685 -1.1545
15753TIP3    H268675   1.442   6.392  16.828  0.5701 -0.4833 -0.0710
15754TIP3   OH268676   0.872   2.193  13.106  0.1183 -0.3069  0.4204
15754TIP3    H168677   0.942   2.130  13.124 -1.3093 -1.4396  2.1374
15754TIP3    H268678   0.849   2.178  13.015  1.5778 -0.4411  0.0488
15755TIP3   OH268679   1.564   6.465  16.955  0.2029  0.3115 -0.1426
15755TIP3    H168680   1.500   6.437  17.021  3.4248 -2.5446  1.9595
15755TIP3    H268681   1.619   6.528  17.002  1.9906 -1.0918 -0.3036
15756TIP3   OH268682   5.111   3.190  12.351 -0.2755  0.4337  0.0179
15756TIP3    H168683   5.040   3.185  12.415 -0.3532  2.4374  0.1122
15756TIP3    H268684   5.190   3.171  12.401 -0.5616 -0.2066  0.2359
15757TIP3   OH268685   3.000   0.518   5.091 -0.4423  0.7440  0.4802
15757TIP3    H168686   2.913   0.542   5.122 -1.2896 -0.6749 -0.7310
15757TIP3    H268687   3.053   0.597   5.103 -1.8799  1.5907  1.2797
15758TIP3   OH268688   5.990   5.909  16.321 -0.3913  0.3499 -0.3336
15758TIP3    H168689   6.004   5.988  16.374 -1.4912  0.5643 -0.3584
15758TIP3    H268690   6.068   5.903  16.266 -0.2583  1.3692 -0.2682
15759TIP3   OH268691   0.930   6.325   1.451  0.0346  0.0731  0.0381
15759TIP3    H168692   0.923   6.244   1.501  1.4453 -0.0570  0.0252
15759TIP3    H268693   0.920   6.394   1.517  1.4091 -0.0984  0.4266
15760TIP3   OH268694   3.472   4.604  13.768  0.1146  0.0182  0.3677
15760TIP3    H168695   3.556   4.576  13.803  1.2955  0.3749 -2.0696
15760TIP3    H268696   3.423   4.522  13.755  0.5682 -0.2896  0.5958
15761TIP3   OH268697   2.892   5.055  16.003 -0.1576  0.0254  0.4857
15761TIP3    H168698   2.811   5.010  15.977 -1.2846  1.7562  0.9297
15761TIP3    H268699   2.919   5.102  15.925  0.5221 -0.6606  0.2945
15762TIP3   OH268700   4.562   4.255  14.980  0.6515  0.2566  0.1041
15762TIP3    H168701   4.489   4.233  15.038  0.3072 -3.0772 -1.4572
15762TIP3    H268702   4.520   4.280  14.898  1.2050 -2.8705 -1.1933
15763TIP3   OH268703   0.565   0.747   4.959 -0.0449 -0.3779 -0.2283
15763TIP3    H168704   0.615   0.717   5.034 -0.5910 -0.3992  0.1260
15763TIP3    H268705   0.615   0.822   4.926  0.3664 -0.5685 -0.0483
15764TIP3   OH268706   0.073   0.955  13.836 -0.5164 -0.5479  0.5970
15764TIP3    H168707   0.126   0.884  13.802  1.5624  0.3207  1.9071
15764TIP3    H268708   0.098   1.031  13.784 -2.3441 -0.6359 -0.4510
15765TIP3   OH268709   6.762   5.999   4.354 -0.3674  0.8810  0.6563
15765TIP3    H168710   6.694   5.973   4.292 -0.2501  0.3757  0.7426
15765TIP3    H268711   6.827   6.044   4.301  1.2031 -2.1955 -0.0762
15766TIP3   OH268712   3.848   2.782  14.155  0.0574  0.7249 -0.1689
15766TIP3    H168713   3.875   2.700  14.114 -0.0325  1.2193 -1.2413
15766TIP3    H268714   3.926   2.813  14.201  1.0385  1.6005 -2.3599
15767TIP3   OH268715   1.651   1.406   5.846  0.3206 -0.1704 -0.3096
15767TIP3    H168716   1.584   1.434   5.908  0.1157  0.7148 -0.9275
15767TIP3    H268717   1.699   1.337   5.892 -1.7317 -1.6169 -0.2874
15768TIP3   OH268718   6.671   0.909  16.119 -0.4660 -0.0306  0.0279
15768TIP3    H168719   6.727   0.969  16.167  0.1303 -0.6707  0.1384
15768TIP3    H268720   6.709   0.822  16.135 -0.8869 -0.3585 -0.7196
15769TIP3   OH268721   0.924   6.764   0.352  0.0455 -0.0405  0.1033
15769TIP3    H168722   0.947   6.721   0.270  0.3665 -1.3109  0.8330
15769TIP3    H268723   0.862   6.833   0.327  1.9513  1.1450 -1.4658
15770TIP3   OH268724   4.898   4.063   4.086 -0.6713  0.1869 -0.2018
15770TIP3    H168725   4.988   4.094   4.076 -0.5418 -0.5894 -1.4864
15770TIP3    H268726   4.855   4.133   4.136  0.0684  1.6338 -1.5334
15771TIP3   OH268727   4.479   0.810   4.510  0.5421 -0.1388 -0.0549
15771TIP3    H168728   4.473   0.882   4.573 -1.9441 -0.2819 -0.1010
15771TIP3    H268729   4.413   0.747   4.539  0.5210 -0.9659 -1.8527
15772TIP3   OH268730   5.542   6.584  14.006 -0.5552  0.6708  0.1314
15772TIP3    H168731   5.592   6.580  14.087 -1.1076  0.9070  0.4847
15772TIP3    H268732   5.566   6.669  13.968 -0.3199  0.5731  0.0601
15773TIP3   OH268733   3.455   2.612  13.123  0.0386  0.7100  0.5888
15773TIP3    H168734   3.484   2.557  13.196  0.6872  0.6957  0.3236
15773TIP3    H268735   3.464   2.702  13.157  0.6859  0.7180  0.4071
15774TIP3   OH268736   2.668   2.057  14.856  0.2599  0.1236 -0.7087
15774TIP3    H168737   2.714   2.001  14.918 -0.2389 -0.5513 -0.9416
15774TIP3    H268738   2.589   2.084  14.903  0.0641 -0.0910 -0.9111
15775TIP3   OH268739   5.515   5.815  16.837 -0.1232  0.0688  0.1091
15775TIP3    H168740   5.507   5.911  16.829 -1.0008 -0.1832 -2.7791
15775TIP3    H268741   5.464   5.793  16.914 -1.6283  1.7601 -0.3674
15776TIP3   OH268742   2.766   2.381  12.015 -0.2799 -0.4231 -0.0741
15776TIP3    H168743   2.836   2.431  11.973 -0.7374  0.5859  0.3412
15776TIP3    H268744   2.745   2.312  11.952  0.5486 -0.2552 -0.5425
15777TIP3   OH268745   0.064   3.908  12.511  0.2167 -0.0044 -0.5952
15777TIP3    H168746   0.101   3.823  12.484 -0.9311 -0.4053 -0.9253
15777TIP3    H268747  -0.023   3.909  12.472 -1.2958 -0.3704  2.6603
15778TIP3   OH268748   5.045   0.659   0.357 -0.0428 -0.1727  0.1111
15778TIP3    H168749   5.042   0.754   0.362  0.4332 -0.2213  1.3080
15778TIP3    H268750   4.965   0.635   0.311 -0.4189  0.7743  0.2719
15779TIP3   OH268751   4.087   3.692   3.995 -0.4069  0.2630  0.0810
15779TIP3    H168752   4.065   3.599   4.001  0.0197  0.1945  0.5907
15779TIP3    H268753   4.099   3.719   4.086 -1.8382  1.1270  0.0260
15780TIP3   OH268754   5.074   6.023   3.086 -0.3938 -0.7288 -0.3463
15780TIP3    H168755   5.094   5.994   2.997  1.6961  0.1906 -0.1917
15780TIP3    H268756   5.150   5.996   3.137 -1.5106 -1.1024  1.1472
15781TIP3   OH268757   5.359   0.040   2.866  0.1625 -0.3402 -0.5749
15781TIP3    H168758   5.384  -0.051   2.877 -1.4698 -1.2286 -3.5885
15781TIP3    H268759   5.436   0.081   2.827  0.9700 -0.3365  0.9695
15782TIP3   OH268760   4.751   1.281  12.300  0.1027 -0.1477 -0.5548
15782TIP3    H168761   4.684   1.223  12.337  0.9233  0.2355  1.5660
15782TIP3    H268762   4.700   1.355  12.265 -0.6544 -0.1891  0.4172
15783TIP3   OH268763   1.607   0.603   2.234  0.6702 -0.0380  0.4198
15783TIP3    H168764   1.653   0.534   2.282 -0.5714 -0.2176  1.3473
15783TIP3    H268765   1.600   0.675   2.296  0.0148  0.1215  0.1584
15784TIP3   OH268766   5.083   4.822   1.889 -0.7199  0.0375 -0.1521
15784TIP3    H168767   5.108   4.732   1.869  1.0570  0.3436  0.5371
15784TIP3    H268768   5.016   4.844   1.825  0.5335 -0.9800 -1.8551
15785TIP3   OH268769   2.249   2.075  12.312  0.2885  0.3880 -0.4075
15785TIP3    H168770   2.284   2.050  12.397 -1.4058  1.4004  0.6083
15785TIP3    H268771   2.275   2.167  12.301 -1.5364  0.9836  0.1086
15786TIP3   OH268772   2.288   5.989  13.072 -0.2820  0.4078  0.0897
15786TIP3    H168773   2.278   6.084  13.078  1.1004  0.5533  0.2763
15786TIP3    H268774   2.342   5.976  12.995  1.4830 -0.0782  1.3879
15787TIP3   OH268775   6.578   4.730  11.836  0.6151  0.2745  0.5279
15787TIP3    H168776   6.648   4.701  11.779  0.0894  0.2942 -0.1335
15787TIP3    H268777   6.619   4.740  11.922  1.0930 -1.1270  0.4728
15788TIP3   OH268778   1.837   5.232   3.631  0.3031 -0.3630 -0.2154
15788TIP3    H168779   1.764   5.226   3.570  1.4211  0.5357 -1.6695
15788TIP3    H268780   1.908   5.183   3.589  1.0186  0.0937  0.4392
15789TIP3   OH268781   0.842   4.402  13.473 -0.0314  0.2815  0.4116
15789TIP3    H168782   0.808   4.483  13.434 -1.5007  0.2717  1.6447
15789TIP3    H268783   0.927   4.389  13.430 -0.2604  1.8896 -0.5791
15790TIP3   OH268784   5.012   4.537   5.485 -0.2807  0.0017 -0.0692
15790TIP3    H168785   4.999   4.541   5.390 -1.5483 -0.1913  0.0867
15790TIP3    H268786   5.078   4.469   5.497  0.8743  0.9666 -0.9033
15791TIP3   OH268787   4.509   5.081  12.085 -0.3828 -0.2608  0.0850
15791TIP3    H168788   4.425   5.049  12.051 -0.5774 -0.1895  0.4934
15791TIP3    H268789   4.565   5.003  12.084 -0.6844 -0.4867  0.5322
15792TIP3   OH268790   3.353   1.879  14.637 -0.1494  0.2016 -0.1186
15792TIP3    H168791   3.287   1.812  14.621 -0.2525  0.5303 -1.0846
15792TIP3    H268792   3.312   1.936  14.703  0.0030 -0.7526  0.8227
15793TIP3   OH268793   1.876   5.714  14.989  0.5231 -0.1287 -0.2839
15793TIP3    H168794   1.928   5.645  14.948 -1.2407 -2.2635  0.9466
15793TIP3    H268795   1.788   5.702  14.953  0.1390  1.3302  0.1397
15794TIP3   OH268796   3.390   5.164  15.022 -0.2064  0.2664  0.1466
15794TIP3    H168797   3.406   5.090  15.080 -0.4630  0.2574  0.2088
15794TIP3    H268798   3.295   5.175  15.024 -0.6371 -1.9922 -3.0103
15795TIP3   OH268799   0.217   4.572  13.426  0.5290  0.5136 -0.0760
15795TIP3    H168800   0.256   4.657  13.445 -3.0997  2.5256 -1.1631
15795TIP3    H268801   0.218   4.566  13.330  1.0762 -0.8572 -0.0031
15796TIP3   OH268802   3.595   5.121   4.469 -0.3973  0.0153 -0.1297
15796TIP3    H168803   3.624   5.052   4.409  2.2038 -1.8842  3.0960
15796TIP3    H268804   3.502   5.131   4.452 -0.2564 -2.3376 -2.6189
15797TIP3   OH268805   3.650   2.846  13.305  0.5272 -0.4793 -0.1001
15797TIP3    H168806   3.699   2.926  13.323 -0.7923 -0.0334  1.7136
15797TIP3    H268807   3.587   2.871  13.237  2.2004 -0.8268 -1.7948
15798TIP3   OH268808   6.351   0.770   1.320  0.6140 -0.8171 -0.0420
15798TIP3    H168809   6.406   0.691   1.327  0.9920 -0.5409  0.1044
15798TIP3    H268810   6.272   0.748   1.369  0.2737 -1.4900 -0.8721
15799TIP3   OH268811   6.109   4.263  15.260  0.3979 -0.0711  0.2336
15799TIP3    H168812   6.123   4.341  15.206 -0.6653 -0.5856 -0.7999
15799TIP3    H268813   6.059   4.296  15.335  0.3583  0.3304  0.0348
15800TIP3   OH268814   4.286   4.251  14.147  0.0058 -0.0538 -0.5319
15800TIP3    H168815   4.243   4.170  14.120  0.0503 -0.8429  1.6584
15800TIP3    H268816   4.214   4.310  14.169 -0.0049 -0.5440  0.7835
15801TIP3   OH268817   1.543   2.437   5.358 -0.1663  0.7987 -0.6707
15801TIP3    H168818   1.612   2.372   5.372 -0.5396  0.7303  0.8978
15801TIP3    H268819   1.586   2.521   5.373 -0.5977  0.7198  1.1538
15802TIP3   OH268820   6.631   0.202   3.759 -0.1026 -0.1228 -0.1794
15802TIP3    H168821   6.548   0.236   3.791 -0.3457 -0.8983  0.0419
15802TIP3    H268822   6.654   0.257   3.685 -1.7510 -1.0440 -1.3936
15803TIP3   OH268823   5.650   3.249  13.933 -0.1306  0.2118 -0.3073
15803TIP3    H168824   5.636   3.174  13.876  0.9974  0.1842 -0.5499
15803TIP3    H268825   5.599   3.320  13.893 -1.2964 -0.4472 -0.0067
15804TIP3   OH268826   2.766   6.016  15.886 -0.3693 -0.0087  0.5790
15804TIP3    H168827   2.856   6.000  15.857 -0.1079  0.7355  0.9654
15804TIP3    H268828   2.731   5.929  15.903 -0.0045 -0.3640 -0.3989
15805TIP3   OH268829   5.044   4.352   4.589 -0.0977  0.3466  0.0489
15805TIP3    H168830   4.966   4.298   4.591  0.1082  0.0142 -0.6759
15805TIP3    H268831   5.062   4.366   4.496 -0.2521  1.8044  0.2242
15806TIP3   OH268832   3.473   1.133  15.501 -0.3704  0.0085  0.0668
15806TIP3    H168833   3.439   1.154  15.588 -3.3199  0.0645 -1.0319
15806TIP3    H268834   3.462   1.038  15.494 -0.8068  0.1009 -0.5163
15807TIP3   OH268835   1.567   0.760   1.800  0.2814  0.0040  0.1528
15807TIP3    H168836   1.502   0.826   1.778  0.1585 -0.6664 -1.5561
15807TIP3    H268837   1.589   0.777   1.892 -1.4128  0.9793  0.3896
15808TIP3   OH268838   2.063   0.222   2.075 -0.6981 -0.5272 -0.8940
15808TIP3    H168839   2.111   0.159   2.128 -2.4108 -1.4446 -0.3928
15808TIP3    H268840   2.128   0.258   2.015  0.4949 -2.0885 -0.5532
15809TIP3   OH268841   1.972   5.315   4.645 -0.4209  0.2010 -0.6650
15809TIP3    H168842   1.936   5.383   4.702 -1.0268 -0.9240  0.3135
15809TIP3    H268843   1.998   5.362   4.565 -1.4976  1.4649 -0.2924
15810TIP3   OH268844   2.763   0.479  16.113  0.9580 -0.1201  0.1982
15810TIP3    H168845   2.709   0.462  16.190 -0.3758  1.5633 -0.3445
15810TIP3    H268846   2.771   0.574  16.110  0.2379 -0.1058 -2.2562
15811TIP3   OH268847   5.396   2.689   2.562 -0.1765  0.0218 -0.4191
15811TIP3    H168848   5.372   2.596   2.562  0.1366 -0.0639 -1.2744
15811TIP3    H268849   5.462   2.697   2.493  1.1511  0.5475  0.8927
15812TIP3   OH268850   5.981   2.153  11.879  0.0472  0.0612  0.4114
15812TIP3    H168851   5.901   2.184  11.923  0.8419  1.5650  0.8238
15812TIP3    H268852   5.954   2.137  11.789 -1.0465 -0.8105  0.8674
15813TIP3   OH268853   0.980   5.215  16.101  0.1515 -0.0959  0.2917
15813TIP3    H168854   1.032   5.186  16.027  0.3377  2.0295 -0.4383
15813TIP3    H268855   1.043   5.249  16.164 -0.2274  1.2528 -0.0351
15814TIP3   OH268856   5.048   1.693  15.759  0.2492 -0.0738  0.4928
15814TIP3    H168857   5.109   1.623  15.780  1.3931  0.1503 -1.9474
15814TIP3    H268858   4.995   1.659  15.687  2.3064  2.3079 -2.2626
15815TIP3   OH268859   4.335   4.543  13.700  0.0510  0.2064 -0.5881
15815TIP3    H168860   4.261   4.508  13.749  0.4356 -0.7941 -0.7087
15815TIP3    H268861   4.319   4.515  13.610  1.2586 -1.2052 -0.3909
15816TIP3   OH268862   2.573   1.915  15.230 -0.1890 -0.6485  0.2043
15816TIP3    H168863   2.602   1.917  15.321 -0.9930  1.2898  0.4281
15816TIP3    H268864   2.649   1.882  15.182  0.7633 -0.1976  1.3820
15817TIP3   OH268865   3.615   4.531  13.024 -0.2094 -0.0577 -0.5484
15817TIP3    H168866   3.657   4.531  12.938  0.8126 -0.9332 -0.0530
15817TIP3    H268867   3.523   4.511  13.005  0.2834 -1.6514 -1.3090
15818TIP3   OH268868   2.629   6.321   0.770 -0.2386  0.0568  0.1633
15818TIP3    H168869   2.573   6.337   0.846  0.1149 -0.3900  0.5245
15818TIP3    H268870   2.632   6.405   0.724 -2.0369 -0.1614 -0.4294
15819TIP3   OH268871   1.486   5.027   1.443  0.5024  1.3908  0.0551
15819TIP3    H168872   1.460   4.939   1.472  0.6898  1.4242  0.3241
15819TIP3    H268873   1.403   5.072   1.426  0.3001  2.0814  2.6337
15820TIP3   OH268874   0.006   5.419   3.337  0.9044  0.2101  0.4169
15820TIP3    H168875  -0.041   5.335   3.331 -1.3365  1.3235  1.4204
15820TIP3    H268876  -0.042   5.478   3.279  1.9774  1.0084  0.3192
15821TIP3   OH268877   4.195   4.061  15.381  0.7356 -0.0010  0.2341
15821TIP3    H168878   4.152   3.977  15.368 -0.1523  0.3423  0.8845
15821TIP3    H268879   4.124   4.125  15.376  1.0567  0.5276  1.9463
15822TIP3   OH268880   2.912   5.300   3.128  0.4537 -0.4382  0.4370
15822TIP3    H168881   2.904   5.207   3.146  0.3342 -0.6046 -0.4618
15822TIP3    H268882   2.825   5.327   3.100  0.4723 -0.0420  0.7538
15823TIP3   OH268883   3.522   1.022  11.928  0.1292  0.1678 -0.6908
15823TIP3    H168884   3.456   1.082  11.963  0.4427  0.3582 -0.4139
15823TIP3    H268885   3.605   1.058  11.960  0.1380 -1.9641  1.8229
15824TIP3   OH268886   4.879   3.197   5.637 -0.4272  0.0591 -0.6188
15824TIP3    H168887   4.841   3.285   5.633 -0.2938  0.1147 -0.6381
15824TIP3    H268888   4.968   3.210   5.669  0.0346  0.0723 -1.8727
15825TIP3   OH268889   2.145   1.718   3.184 -0.4241 -0.2773 -0.0431
15825TIP3    H168890   2.151   1.720   3.089  1.4153  0.4429  0.0599
15825TIP3    H268891   2.186   1.635   3.209  1.0718  0.5243  0.2202
15826TIP3   OH268892   6.649   6.064   2.290 -0.4583 -0.3125 -0.1504
15826TIP3    H168893   6.708   6.126   2.334 -1.4023  0.2895  0.2803
15826TIP3    H268894   6.644   5.989   2.349 -0.1135 -0.3685 -0.1919
15827TIP3   OH268895   3.707   6.587   3.316  0.6857  0.2194 -0.0842
15827TIP3    H168896   3.620   6.550   3.300  1.2401 -1.8205  1.2664
15827TIP3    H268897   3.694   6.681   3.319 -1.3637 -0.0351 -0.5530
15828TIP3   OH268898   0.699   1.242  10.340 -0.4256  0.0154  0.3231
15828TIP3    H168899   0.742   1.324  10.361  0.7042 -0.5809  0.4026
15828TIP3    H268900   0.752   1.204  10.270 -0.1806 -1.2320  1.1536
15829TIP3   OH268901   1.071   6.623  14.249  0.1756 -0.1892 -0.1143
15829TIP3    H168902   1.160   6.587  14.247  0.3445  0.2381 -0.2938
15829TIP3    H268903   1.035   6.603  14.163 -0.0380 -0.7102  0.0973
15830TIP3   OH268904   0.927   4.832  13.039 -0.2530  0.4908  0.5950
15830TIP3    H168905   0.854   4.826  12.979  0.2523 -0.0749  0.0398
15830TIP3    H268906   0.997   4.873  12.988  0.5083 -0.9292  0.4850
15831TIP3   OH268907   4.672   6.432   5.342 -0.1630 -0.3562 -0.2115
15831TIP3    H168908   4.630   6.464   5.262  0.8960  0.1607 -0.5684
15831TIP3    H268909   4.605   6.378   5.384 -1.6232  1.4589 -0.1417
15832TIP3   OH268910   5.445   6.510  11.950 -0.0357 -0.0056  0.3291
15832TIP3    H168911   5.489   6.429  11.977 -0.9159 -0.1019  1.5336
15832TIP3    H268912   5.373   6.519  12.012 -1.5056  0.3432 -1.4060
15833TIP3   OH268913   0.892   0.603   4.962  0.4728  0.2827 -0.0821
15833TIP3    H168914   0.931   0.683   4.997  0.3247  0.1381  0.4141
15833TIP3    H268915   0.939   0.587   4.880  2.0845 -0.3950  0.9543
15834TIP3   OH268916   5.542   5.904   5.762  0.4108  0.2877 -0.4504
15834TIP3    H168917   5.554   5.946   5.848 -0.5885  0.5183 -0.4127
15834TIP3    H268918   5.536   5.811   5.782  2.0853  0.1516 -0.4768
15835TIP3   OH268919   5.634   4.274  13.502  0.2345 -0.3296  0.6532
15835TIP3    H168920   5.603   4.272  13.593 -1.2231 -1.8175  0.1527
15835TIP3    H268921   5.682   4.191  13.492  0.2191 -0.2623  0.0055
15836TIP3   OH268922   1.767   4.242  14.605 -0.1447 -0.2599  0.1508
15836TIP3    H168923   1.706   4.287  14.664 -0.7107 -0.6368 -0.1555
15836TIP3    H268924   1.830   4.310  14.581 -1.9955  0.8474 -1.7013
15837TIP3   OH268925   5.452   5.052   4.641  1.0915  0.1114 -0.2110
15837TIP3    H168926   5.443   5.141   4.605 -0.1991  0.2463  0.4299
15837TIP3    H268927   5.379   5.003   4.603  0.4812 -0.0913  1.1886
15838TIP3   OH268928   6.165   2.888  15.095 -0.1319 -0.0214 -0.1671
15838TIP3    H168929   6.258   2.874  15.112 -0.1866  1.0729  1.1791
15838TIP3    H268930   6.127   2.899  15.182 -1.4386  0.0493 -0.7368
15839TIP3   OH268931   4.883   1.426   4.210 -0.0769 -0.4451  0.1610
15839TIP3    H168932   4.884   1.421   4.306 -2.9006 -1.4154  0.1986
15839TIP3    H268933   4.861   1.337   4.182  0.8137 -0.1830 -1.4141
15840TIP3   OH268934   1.064   1.112   0.671  0.3877 -0.1296 -0.3054
15840TIP3    H168935   1.012   1.163   0.609  1.0812  1.8731  0.7055
15840TIP3    H268936   1.001   1.084   0.737  0.1524  0.2815 -0.3500
15841TIP3   OH268937   4.354   4.762   6.148 -0.3986 -0.1853  0.3144
15841TIP3    H168938   4.286   4.790   6.087 -1.5650  0.4746  1.9197
15841TIP3    H268939   4.371   4.671   6.123  1.0343  0.8234 -2.7083
15842TIP3   OH268940   5.414   5.232  12.229 -0.1907 -0.0456  0.3290
15842TIP3    H168941   5.386   5.322  12.242 -1.9886 -0.6064  0.4665
15842TIP3    H268942   5.339   5.188  12.190  1.0520 -1.2353 -0.7872
15843TIP3   OH268943   5.667   0.258   0.701 -0.7374 -0.7242 -0.3679
15843TIP3    H168944   5.633   0.346   0.681 -1.6552 -1.6481 -3.0414
15843TIP3    H268945   5.593   0.200   0.685  0.1977 -2.1113  0.3026
15844TIP3   OH268946   0.545   4.042   5.299  0.3228  0.3899  0.0991
15844TIP3    H168947   0.524   3.949   5.304  1.4552  0.1161 -0.0750
15844TIP3    H268948   0.542   4.062   5.205 -2.0117  1.0301  0.2973
15845TIP3   OH268949   1.916   6.197   0.388  0.1239  0.1924  0.1226
15845TIP3    H168950   1.866   6.129   0.433  1.6644 -0.9741  0.1001
15845TIP3    H268951   1.906   6.275   0.443  0.2168 -0.6511  1.3513
15846TIP3   OH268952   0.454   5.035   0.529 -0.1815 -0.5339 -0.3855
15846TIP3    H168953   0.398   4.958   0.527 -2.3961  1.0242 -0.6597
15846TIP3    H268954   0.449   5.071   0.440  0.6432  0.0653 -0.1996
15847TIP3   OH268955   1.132   1.994   4.440 -0.0940  0.0481  0.4065
15847TIP3    H168956   1.102   1.975   4.351  1.5741 -0.3950 -0.0664
15847TIP3    H268957   1.186   2.072   4.431  1.2509 -0.8273  0.8080
15848TIP3   OH268958   0.150   0.954   2.447  0.2096  0.0599  0.5756
15848TIP3    H168959   0.169   0.879   2.503  1.2046  0.3823  0.6768
15848TIP3    H268960   0.234   0.979   2.410 -0.1091  1.1253  0.5444
15849TIP3   OH268961   0.424   6.596   4.238  0.6853  0.1564 -0.1732
15849TIP3    H168962   0.336   6.620   4.208 -0.1318 -1.8236  0.5593
15849TIP3    H268963   0.469   6.565   4.159 -0.0585 -1.0565 -0.1231
15850TIP3   OH268964   5.053   4.609  15.797 -0.0509  0.1495 -0.9051
15850TIP3    H168965   5.133   4.560  15.816 -0.3077 -0.3777 -1.1571
15850TIP3    H268966   5.077   4.701  15.808 -0.0751 -0.1111  1.5006
15851TIP3   OH268967   0.307   3.847   2.519  0.3740  0.3522  0.1625
15851TIP3    H168968   0.357   3.898   2.582  0.5596  0.2405  0.1061
15851TIP3    H268969   0.335   3.756   2.533  2.3563  0.5855 -1.8164
15852TIP3   OH268970   2.769   6.489  10.684  0.0229  0.0717  0.3358
15852TIP3    H168971   2.798   6.573  10.719 -5.2292  2.8077 -1.3632
15852TIP3    H268972   2.702   6.459  10.746  1.3463 -2.6202  0.5509
15853TIP3   OH268973   0.170   4.760   2.987  0.9993  0.3453 -0.2071
15853TIP3    H168974   0.139   4.688   3.043 -0.0507  1.1293  0.2465
15853TIP3    H268975   0.117   4.753   2.908 -0.0576  1.4016  0.3788
15854TIP3   OH268976   3.053   3.611  16.552  0.1234 -0.5512  0.6071
15854TIP3    H168977   3.049   3.527  16.508 -1.5447 -0.8776  1.3342
15854TIP3    H268978   3.031   3.591  16.643 -2.7900  1.0065  0.2958
15855TIP3   OH268979   6.474   5.790  14.805 -0.2144  0.0585  0.6733
15855TIP3    H168980   6.396   5.800  14.860 -2.0371  0.9119 -1.9767
15855TIP3    H268981   6.469   5.863  14.743  2.2185 -0.4161 -0.1291
15856TIP3   OH268982   3.667   2.556   4.049 -0.0471  0.1270  1.0467
15856TIP3    H168983   3.675   2.508   3.967  0.6520 -0.4650  1.4599
15856TIP3    H268984   3.648   2.646   4.022  1.1363  0.1410  0.2006
15857TIP3   OH268985   1.242   6.605  12.602  0.3686 -0.0588  0.0598
15857TIP3    H168986   1.223   6.604  12.696  1.9146 -0.3469  0.3847
15857TIP3    H268987   1.322   6.553  12.593 -0.2873 -0.8280 -1.5417
15858TIP3   OH268988   3.849   2.912   5.933 -0.1787 -0.5239  0.1864
15858TIP3    H168989   3.778   2.965   5.971  1.8209  0.6238  2.4402
15858TIP3    H268990   3.904   2.975   5.887  1.4251 -0.8260  1.6557
15859TIP3   OH268991   6.462   1.114  16.021 -0.6099 -0.7254  0.1904
15859TIP3    H168992   6.527   1.178  16.051  0.6109 -1.6547 -0.4409
15859TIP3    H268993   6.503   1.029  16.036 -2.1582 -1.3744  0.8765
15860TIP3   OH268994   6.679   6.529  11.674  0.5114 -0.3983  0.4794
15860TIP3    H168995   6.642   6.544  11.761  0.7224 -1.5205  0.7723
15860TIP3    H268996   6.760   6.579  11.674 -0.3732  1.0789  0.2728
15861TIP3   OH268997   5.552   3.948  14.367  0.7080 -0.0718  0.4269
15861TIP3    H168998   5.583   3.858  14.372 -1.1906 -0.6400  2.9706
15861TIP3    H268999   5.548   3.977  14.458 -0.3187  2.0253 -0.2557
15862TIP3   OH269000   0.447   3.787  15.643  0.0025 -0.4225  0.2180
15862TIP3    H169001   0.476   3.874  15.669 -2.7449  0.8324 -0.7512
15862TIP3    H269002   0.469   3.731  15.718  1.0924  1.2266  1.1646
15863TIP3   OH269003   6.409   0.430   2.161 -0.2342  0.3579  0.6726
15863TIP3    H169004   6.448   0.370   2.225  0.6988  0.2024 -0.0368
15863TIP3    H269005   6.315   0.411   2.165 -0.6174  2.5421  4.2684
15864TIP3   OH269006   1.772   4.108   0.228 -0.2816 -0.4416 -0.4677
15864TIP3    H169007   1.769   4.183   0.168 -0.2823  0.7939  1.0491
15864TIP3    H269008   1.807   4.144   0.310 -0.7974 -1.9783  0.4444
15865TIP3   OH269009   2.719   2.545   0.561 -0.2943  0.2216  0.1859
15865TIP3    H169010   2.800   2.589   0.585 -0.1340 -0.5078  1.0067
15865TIP3    H269011   2.730   2.522   0.469  0.9472 -0.9928  0.6313
15866TIP3   OH269012   2.139   3.223   3.593 -0.5057 -0.0023  0.2403
15866TIP3    H169013   2.122   3.305   3.639 -0.1284  0.3814 -0.3076
15866TIP3    H269014   2.227   3.232   3.558 -0.0150 -1.1120  1.1648
15867TIP3   OH269015   4.086   6.341   2.858  0.8562 -0.7252  0.5605
15867TIP3    H169016   4.140   6.419   2.869  1.1681 -0.7252 -0.9405
15867TIP3    H269017   4.060   6.317   2.948  0.4662  1.2863  1.0061
15868TIP3   OH269018   3.505   1.538   3.844  0.5961 -0.5588 -0.3895
15868TIP3    H169019   3.545   1.515   3.928 -0.1867 -2.2972 -0.4683
15868TIP3    H269020   3.553   1.616   3.814  1.2828 -0.2995  1.3653
15869TIP3   OH269021   5.920   5.654   0.941  0.5104 -0.0632  0.3415
15869TIP3    H169022   5.994   5.647   0.880 -0.7524 -1.9345 -1.0360
15869TIP3    H269023   5.915   5.567   0.982 -0.3834  0.3372  1.0724
15870TIP3   OH269024   1.379   3.505   5.232  0.2554  0.2098  0.1798
15870TIP3    H169025   1.360   3.575   5.294  3.2365 -0.0805  1.5052
15870TIP3    H269026   1.426   3.547   5.160  0.6848 -0.1930  0.2232
15871TIP3   OH269027   4.839   3.943   5.764 -0.1061  0.8494 -0.4876
15871TIP3    H169028   4.921   3.959   5.810  0.1967  0.2068 -0.7995
15871TIP3    H269029   4.864   3.935   5.672 -0.1246 -2.0580 -0.2897
15872TIP3   OH269030   6.186   3.891  12.431  0.0095  0.3668  0.0150
15872TIP3    H169031   6.100   3.875  12.393 -0.0434  0.4875  0.0794
15872TIP3    H269032   6.171   3.962  12.494 -0.0970 -0.4756  0.9524
15873TIP3   OH269033   6.623   6.696   2.871 -0.5367 -0.9104  0.1816
15873TIP3    H169034   6.543   6.746   2.853 -0.3480  0.6770  3.4073
15873TIP3    H269035   6.639   6.648   2.790 -2.5112  1.8353 -1.9728
15874TIP3   OH269036   5.781   1.333  13.590  0.3106 -0.2671  0.0716
15874TIP3    H169037   5.777   1.414  13.538  0.2356  0.1939  0.7886
15874TIP3    H269038   5.699   1.288  13.569 -0.6520  0.8514  1.2707
15875TIP3   OH269039   1.478   3.932   2.358  0.4982 -0.0793 -0.7609
15875TIP3    H169040   1.411   3.941   2.426 -0.1689 -2.2910 -1.1086
15875TIP3    H269041   1.557   3.968   2.398  0.3063 -2.0670  1.4720
15876TIP3   OH269042   5.502   0.393   0.926 -0.0549 -0.0044  0.3012
15876TIP3    H169043   5.475   0.447   0.851 -0.8316 -0.5924  0.1534
15876TIP3    H269044   5.467   0.306   0.906 -0.2607 -0.1610  1.3578
15877TIP3   OH269045   3.751   0.349   2.476 -0.5645  0.0804 -0.4191
15877TIP3    H169046   3.706   0.308   2.403  0.3424  1.2737 -1.6713
15877TIP3    H269047   3.841   0.316   2.471  0.1089  1.9815 -1.2912
15878TIP3   OH269048   6.585   6.405  15.482  0.1998 -0.3741 -0.5073
15878TIP3    H169049   6.607   6.318  15.517 -2.5056 -0.8875  0.0470
15878TIP3    H269050   6.489   6.410  15.491  0.2661  2.4122 -1.1313
15879TIP3   OH269051   1.800   5.371   1.456 -0.2637  0.3612 -0.5061
15879TIP3    H169052   1.795   5.446   1.398  0.3519  0.5509 -0.3187
15879TIP3    H269053   1.710   5.355   1.483 -0.4416  0.7994 -0.8413
15880TIP3   OH269054   5.279   5.629  13.415  0.8052  0.7389 -0.2877
15880TIP3    H169055   5.243   5.596  13.497 -0.8391  1.5955 -0.6460
15880TIP3    H269056   5.374   5.615  13.423  0.4998 -0.7189  1.0430
15881TIP3   OH269057   1.841   2.471   2.254 -0.3938 -0.7936  0.1404
15881TIP3    H169058   1.848   2.556   2.299  0.4115 -0.8493  0.1297
15881TIP3    H269059   1.833   2.407   2.325  1.7715 -0.9691  0.2619
15882TIP3   OH269060   6.452   5.378   3.457 -0.6899 -0.2837  0.3479
15882TIP3    H169061   6.414   5.406   3.374  1.2291  1.0272 -0.1215
15882TIP3    H269062   6.403   5.426   3.523 -3.7520 -2.9981  0.1952
15883TIP3   OH269063   3.380   4.439  11.420  0.1578  0.1175 -0.0940
15883TIP3    H169064   3.389   4.535  11.416  0.4570  0.0336 -4.1468
15883TIP3    H269065   3.287   4.424  11.401  0.3631 -0.4124 -0.6858
15884TIP3   OH269066   4.223   0.125  15.267 -0.5907  0.3755 -0.0673
15884TIP3    H169067   4.272   0.200  15.301  0.1538 -0.5604  0.9930
15884TIP3    H269068   4.205   0.147  15.176  1.9751  0.6696 -0.5498
15885TIP3   OH269069   2.826   6.190   3.255 -0.1894  0.0071 -0.1946
15885TIP3    H169070   2.922   6.192   3.258 -0.1774  0.5033 -0.8041
15885TIP3    H269071   2.806   6.125   3.187 -0.2892 -0.4011  0.2256
15886TIP3   OH269072   5.815   2.294   5.137  0.4825  0.3078 -0.4256
15886TIP3    H169073   5.830   2.320   5.046 -1.7408  1.3139 -0.5350
15886TIP3    H269074   5.899   2.257   5.166  1.9121  2.1535 -2.1220
15887TIP3   OH269075   3.069   0.700  17.208 -0.2999  0.3305  0.5656
15887TIP3    H169076   3.035   0.640  17.143  0.5419 -1.0050  1.3226
15887TIP3    H269077   3.034   0.668  17.291  2.9486 -1.2914  1.4065
15888TIP3   OH269078   1.075   3.846   1.592  0.4859  0.3061  0.0997
15888TIP3    H169079   0.996   3.880   1.634 -0.2712 -1.0763 -0.1789
15888TIP3    H269080   1.068   3.751   1.601  1.9194  0.1468 -0.2919
15889TIP3   OH269081   1.541   4.949   4.970  0.5185 -0.3076  0.5170
15889TIP3    H169082   1.483   4.912   4.904 -0.7923  1.5892  0.5762
15889TIP3    H269083   1.514   4.906   5.052 -0.1806 -0.1283  0.3859
15890TIP3   OH269084   3.251   1.471  17.125 -0.2133  0.1076  0.2368
15890TIP3    H169085   3.313   1.465  17.052  0.9261 -0.5641  1.2194
15890TIP3    H269086   3.222   1.381  17.139 -1.8785  0.5043 -0.5910
15891TIP3   OH269087   3.700   3.337  12.688  0.0518  0.3585  0.1178
15891TIP3    H169088   3.725   3.258  12.734  1.1215  0.3448 -0.4598
15891TIP3    H269089   3.608   3.350  12.710 -0.0663 -0.9046  0.4057
15892TIP3   OH269090   5.073   4.694  14.833  0.6125 -0.1673  0.1755
15892TIP3    H169091   5.155   4.687  14.784 -0.0888  1.8272 -1.3453
15892TIP3    H269092   5.019   4.624  14.798  0.9163 -0.1503 -0.3363
15893TIP3   OH269093   4.336   3.043   0.624 -0.4711  0.0011  0.4238
15893TIP3    H169094   4.296   3.027   0.538  0.4588 -1.4571  0.2400
15893TIP3    H269095   4.395   2.968   0.637 -1.4231 -0.3529  2.8449
15894TIP3   OH269096   5.820   0.060  16.896  0.2573  0.3556 -0.3237
15894TIP3    H169097   5.899   0.085  16.944  1.5171 -1.9593 -1.0914
15894TIP3    H269098   5.848   0.050  16.805 -0.6052 -1.7690 -0.3902
15895TIP3   OH269099   0.530   1.906   3.775 -0.8165  0.4469 -0.0589
15895TIP3    H169100   0.610   1.877   3.732 -0.9573  0.7920 -0.5630
15895TIP3    H269101   0.505   1.833   3.831  0.1888  0.5799  0.5725
15896TIP3   OH269102   0.130   2.517  11.222  0.5156 -0.2583  0.1601
15896TIP3    H169103   0.091   2.560  11.146  1.1577  0.0234 -0.0141
15896TIP3    H269104   0.121   2.581  11.293 -2.9977 -1.7589  1.1476
15897TIP3   OH269105   4.848   0.596   2.224  0.1204 -0.4865 -0.5280
15897TIP3    H169106   4.791   0.674   2.225  1.3979  0.4416  1.2227
15897TIP3    H269107   4.925   0.624   2.174  0.4347 -0.7434 -0.1800
15898TIP3   OH269108   6.522   2.212  17.212 -1.1928 -0.3106 -0.4581
15898TIP3    H169109   6.522   2.117  17.225  0.5536 -0.8759 -3.9219
15898TIP3    H269110   6.455   2.227  17.145  0.7579  0.4315 -2.3325
15899TIP3   OH269111   3.707   5.952   6.443 -0.4675  0.0632  0.1929
15899TIP3    H169112   3.756   5.907   6.374  1.4518  1.9968  0.2500
15899TIP3    H269113   3.747   5.921   6.524 -1.2170 -0.4711  0.3655
15900TIP3   OH269114   4.005   3.298   1.117  0.3116  0.6683 -0.1472
15900TIP3    H169115   4.090   3.282   1.078 -1.1777 -0.7083 -2.9625
15900TIP3    H269116   4.002   3.393   1.132  2.0994  0.7884 -0.5157
15901TIP3   OH269117   1.027   0.585   0.649  0.3219  0.5054  0.4401
15901TIP3    H169118   1.122   0.585   0.661  0.2562 -0.5949  1.0783
15901TIP3    H269119   1.013   0.521   0.579  0.0409  0.5909  0.4200
15902TIP3   OH269120   0.980   5.553   1.354  0.0060 -0.2858  0.0538
15902TIP3    H169121   0.958   5.618   1.420 -0.4649  1.2190 -1.5537
15902TIP3    H269122   1.060   5.511   1.387  0.2103  0.9757  1.1831
15903TIP3   OH269123   6.013   4.297  14.180 -0.1639 -0.5840  0.2630
15903TIP3    H169124   6.080   4.228  14.177 -0.5113 -0.8819 -1.0764
15903TIP3    H269125   5.959   4.281  14.102 -2.1228 -0.6606  1.6143
15904TIP3   OH269126   4.928   5.134  11.117 -0.2749 -0.4819  0.4664
15904TIP3    H169127   4.856   5.071  11.115 -0.3167 -0.4108 -2.3870
15904TIP3    H269128   5.006   5.083  11.097 -0.2435  0.2624 -1.3946
15905TIP3   OH269129   4.078   0.763   3.423 -0.2728  0.0067  0.4308
15905TIP3    H169130   4.021   0.802   3.357 -0.2967 -0.7919 -0.0349
15905TIP3    H269131   4.156   0.736   3.373 -0.2456 -0.5012  0.7506
15906TIP3   OH269132   5.015   0.332   5.430 -0.9745  0.0416 -0.1936
15906TIP3    H169133   4.941   0.365   5.480 -1.4572  0.8505 -1.4024
15906TIP3    H269134   4.989   0.344   5.338  0.0798 -0.9531 -0.6403
15907TIP3   OH269135   3.059   5.267   5.347  0.3653 -0.1104  0.0011
15907TIP3    H169136   3.022   5.327   5.282 -0.2597  1.5768  1.8682
15907TIP3    H269137   3.149   5.253   5.317 -0.1736 -0.0512 -1.6960
15908TIP3   OH269138   5.453   2.520  15.725 -0.0621 -0.9037  0.2620
15908TIP3    H169139   5.413   2.453  15.668 -1.5690 -1.2361  1.6712
15908TIP3    H269140   5.496   2.470  15.794 -1.5150 -0.4367  1.5306
15909TIP3   OH269141   0.987   3.389   0.033 -0.1248  0.0078 -0.2971
15909TIP3    H169142   0.986   3.327  -0.040  0.4050  0.1447 -0.4248
15909TIP3    H269143   0.924   3.354   0.095 -0.9982  0.1911 -1.0747
15910TIP3   OH269144   1.205   2.447  10.592  0.1098 -0.3528 -0.3806
15910TIP3    H169145   1.141   2.479  10.656 -1.2864 -1.1727 -1.3331
15910TIP3    H269146   1.151   2.409  10.522  1.6098  0.7117 -2.1508
15911TIP3   OH269147   3.564   0.518   4.965  0.1890 -0.4049 -0.9081
15911TIP3    H169148   3.471   0.502   4.984  0.1842 -2.4188 -2.4791
15911TIP3    H269149   3.564   0.599   4.914 -0.8252 -0.9374 -1.7839
15912TIP3   OH269150   4.022   0.634  12.688 -0.2300 -0.2606  0.3584
15912TIP3    H169151   4.033   0.728  12.700 -4.3133  0.4360 -0.5450
15912TIP3    H269152   4.019   0.599  12.776 -0.1258  0.6674  0.7392
15913TIP3   OH269153   2.526   0.726   5.133  0.5071  0.2998  0.1929
15913TIP3    H169154   2.580   0.670   5.190 -0.0597  2.5270  3.0087
15913TIP3    H269155   2.587   0.793   5.101 -0.1170  1.5737  1.6626
15914TIP3   OH269156   1.740   0.588  14.220 -0.5973 -0.2108 -0.3089
15914TIP3    H169157   1.648   0.603  14.198 -0.3611 -1.3899 -2.2494
15914TIP3    H269158   1.756   0.643  14.297 -3.4614 -1.5739  1.3394
15915TIP3   OH269159   4.434   2.090   1.535  0.0485 -0.2192  0.0398
15915TIP3    H169160   4.530   2.093   1.527  0.1800 -1.0029  1.1959
15915TIP3    H269161   4.413   2.163   1.594 -0.2283  0.9818 -1.5289
15916TIP3   OH269162   4.847   4.418   1.828 -0.2806 -0.0809  0.2013
15916TIP3    H169163   4.860   4.383   1.740 -0.7478 -0.4645  0.2817
15916TIP3    H269164   4.836   4.340   1.883 -1.2011  0.1784  0.4033
15917TIP3   OH269165   5.140   6.425   5.497  0.0593 -0.2275 -0.6380
15917TIP3    H169166   5.137   6.472   5.414  2.6086 -1.8467 -1.7276
15917TIP3    H269167   5.204   6.473   5.550  0.7508 -0.9657 -0.7921
15918TIP3   OH269168   4.262   5.447   2.459 -0.4809 -0.2193  0.2212
15918TIP3    H169169   4.321   5.387   2.506 -1.4763 -0.6437  0.9400
15918TIP3    H269170   4.195   5.390   2.422 -1.2640  0.4303  0.6405
15919TIP3   OH269171   5.275   1.403   3.735  0.2866  0.4605  0.2178
15919TIP3    H169172   5.189   1.439   3.715 -0.8696 -2.2630  0.0726
15919TIP3    H269173   5.335   1.450   3.677 -1.1325  2.0389 -0.0289
15920TIP3   OH269174   4.397   1.314  12.449  0.0360 -0.3114  0.1023
15920TIP3    H169175   4.384   1.251  12.378  0.6306  0.6210 -0.8462
15920TIP3    H269176   4.328   1.379  12.437  0.0524 -0.2266  0.4643
15921TIP3   OH269177   0.804   5.483  12.078  0.7181 -0.2664 -0.2859
15921TIP3    H169178   0.724   5.438  12.053 -0.0619  0.1263  1.4172
15921TIP3    H269179   0.790   5.574  12.050  0.5159 -0.1764  0.0993
15922TIP3   OH269180   2.835   6.718  16.211  0.1183  0.0036  0.3398
15922TIP3    H169181   2.856   6.811  16.205 -2.2490  0.6137  1.1456
15922TIP3    H269182   2.788   6.709  16.294 -1.4540 -1.5588 -0.6872
15923TIP3   OH269183   2.761   6.267   4.743  0.7076  0.2478  0.5683
15923TIP3    H169184   2.852   6.289   4.760  1.1929 -1.7865  0.7344
15923TIP3    H269185   2.765   6.210   4.665 -0.3388 -0.4221  0.9995
15924TIP3   OH269186   0.979   6.436  12.186 -0.2778 -0.4101  0.4792
15924TIP3    H169187   1.051   6.479  12.232  0.9553 -1.3864 -0.4751
15924TIP3    H269188   0.984   6.470  12.097 -0.2272 -1.3927  0.1005
15925TIP3   OH269189   4.638   2.181   2.947  0.7985  0.1586 -0.1446
15925TIP3    H169190   4.592   2.148   3.024 -1.0520  1.5579 -0.6287
15925TIP3    H269191   4.694   2.108   2.920 -1.7906 -1.9091 -0.0899
15926TIP3   OH269192   1.607   1.696  11.712 -0.0158  0.2764 -0.6144
15926TIP3    H169193   1.649   1.722  11.630  0.6073 -0.5983 -0.5789
15926TIP3    H269194   1.551   1.770  11.734 -0.2234  0.5065 -1.8526
15927TIP3   OH269195   4.075   3.232   1.386 -0.0610 -0.0595  0.4087
15927TIP3    H169196   4.073   3.226   1.290 -1.3754  1.5839  0.3297
15927TIP3    H269197   4.106   3.321   1.404 -0.1028 -0.2667  1.5224
15928TIP3   OH269198   5.909   5.296  11.311  0.1895  0.8732  0.0665
15928TIP3    H169199   5.958   5.216  11.328 -0.2362  0.5503 -0.1873
15928TIP3    H269200   5.975   5.366  11.310  0.6965  0.3984 -0.6325
15929TIP3   OH269201   1.020   6.647  11.988  0.1641 -0.9747  0.1943
15929TIP3    H169202   1.088   6.713  12.005 -1.0998  0.6257 -0.9065
15929TIP3    H269203   0.962   6.688  11.925 -2.3628 -1.9948  1.7981
15930TIP3   OH269204   3.852   3.403   3.772  0.5041  0.0441  0.3518
15930TIP3    H169205   3.843   3.497   3.791 -1.4452 -0.5472  2.5665
15930TIP3    H269206   3.785   3.385   3.706  2.0895  0.5394 -1.4327
15931TIP3   OH269207   1.310   6.525   3.415 -0.1589 -0.0856  0.2089
15931TIP3    H169208   1.303   6.518   3.320 -2.7616  0.7816  0.3094
15931TIP3    H269209   1.335   6.437   3.443 -2.5003 -1.2054 -1.0484
15932TIP3   OH269210   6.577   4.122  12.722 -0.0663 -0.0879  0.4114
15932TIP3    H169211   6.647   4.172  12.765  0.5377 -0.9273  0.4344
15932TIP3    H269212   6.557   4.172  12.643  0.5266  0.1928  0.4347
15933TIP3   OH269213   0.473   0.746   3.749  0.4659  0.1220 -0.2445
15933TIP3    H169214   0.431   0.745   3.835  0.7884  0.4600 -0.0841
15933TIP3    H269215   0.487   0.839   3.730 -1.0880  0.1406 -1.3848
15934TIP3   OH269216   0.950   3.579   2.750 -0.5426 -0.2789  0.0182
15934TIP3    H169217   0.918   3.493   2.779  0.4635 -0.8540 -0.5447
15934TIP3    H269218   0.990   3.562   2.665 -0.2476  0.7368 -0.0454
15935TIP3   OH269219   0.167   6.480  11.369 -0.1066 -0.3538 -0.0146
15935TIP3    H169220   0.188   6.486  11.275 -1.7643 -2.4160 -0.5471
15935TIP3    H269221   0.161   6.572  11.397  0.6700  0.2985 -1.8621
15936TIP3   OH269222   6.413   6.113  15.571  0.2268 -0.2497  1.0157
15936TIP3    H169223   6.468   6.041  15.542 -0.8742 -0.4136 -0.7460
15936TIP3    H269224   6.465   6.159  15.637  2.7695  0.0040 -1.1008
15937TIP3   OH269225   2.779   2.356  12.896  0.0821  0.2658 -0.1916
15937TIP3    H169226   2.863   2.380  12.856  0.4915  0.0669  0.5290
15937TIP3    H269227   2.795   2.363  12.991 -0.4085 -0.7516 -0.0205
15938TIP3   OH269228   5.430   5.657  14.837  0.3728 -0.1922 -0.0160
15938TIP3    H169229   5.507   5.645  14.782 -0.2182 -2.0415 -0.4724
15938TIP3    H269230   5.455   5.726  14.898  1.6679  0.6259 -1.4472
15939TIP3   OH269231   4.436   2.421   6.102  0.3350  0.7147  0.0025
15939TIP3    H169232   4.500   2.463   6.045  0.5190  0.9518  0.3816
15939TIP3    H269233   4.488   2.387   6.175  0.7456 -3.4585 -2.0895
15940TIP3   OH269234   0.248   1.896   5.953  0.0681  0.2181 -0.4884
15940TIP3    H169235   0.215   1.845   6.027 -0.1999  1.8870  0.5534
15940TIP3    H269236   0.170   1.939   5.917  0.4512  0.7120 -0.7283
15941TIP3   OH269237   0.971   2.614  15.961  0.2711 -0.2075  0.0879
15941TIP3    H169238   0.964   2.685  16.026 -2.2987 -1.3256  1.0993
15941TIP3    H269239   0.915   2.642  15.889  0.4322 -0.5363 -0.1656
15942TIP3   OH269240   6.063   2.807   6.078  0.0012 -0.7065 -0.2197
15942TIP3    H169241   6.089   2.899   6.082 -1.5287 -0.2996  1.0510
15942TIP3    H269242   6.103   2.768   6.155  0.0082 -0.9309 -0.3369
15943TIP3   OH269243   0.464   6.006  10.501  0.1189 -0.3521 -0.5134
15943TIP3    H169244   0.441   5.974  10.588 -0.6519 -0.1655 -0.6406
15943TIP3    H269245   0.429   5.939  10.441  2.1232 -1.3313 -0.6238
15944TIP3   OH269246   3.966   6.446  12.089 -0.6013  0.1320  0.0531
15944TIP3    H169247   3.974   6.356  12.059 -1.2736 -0.1157  0.6199
15944TIP3    H269248   3.884   6.449  12.139 -0.5394  1.0285  0.1222
15945TIP3   OH269249   4.838   3.862  15.128 -0.3520  0.0915  0.3041
15945TIP3    H169250   4.767   3.900  15.076 -0.6607  0.8562  1.2686
15945TIP3    H269251   4.890   3.938  15.157 -0.0602 -0.3402  0.9268
15946TIP3   OH269252   3.937   3.224  12.503  0.0272 -0.7215  0.8887
15946TIP3    H169253   3.890   3.302  12.533 -0.2899 -0.0722 -1.2027
15946TIP3    H269254   4.027   3.254  12.491  0.2641 -1.1117  1.6471
15947TIP3   OH269255   5.751   2.403  13.060 -0.1321 -0.3201 -0.4675
15947TIP3    H169256   5.807   2.326  13.070 -1.2403 -1.0294  0.3229
15947TIP3    H269257   5.776   2.439  12.975  0.6358 -1.3563 -0.6971
15948TIP3   OH269258   4.063   0.236   5.419  0.1514  0.0058 -0.3154
15948TIP3    H169259   4.077   0.313   5.475  1.4786 -1.6254  1.6496
15948TIP3    H269260   3.985   0.194   5.455  1.3871 -1.4081  0.7824
15949TIP3   OH269261   0.587   3.050  15.131  0.0282  0.0717 -0.3502
15949TIP3    H169262   0.597   3.132  15.180  0.9434  1.4945 -2.8342
15949TIP3    H269263   0.666   2.999  15.153 -0.4077 -0.0479  0.9745
15950TIP3   OH269264   4.583   6.084  15.214 -0.0180 -0.6356  0.4041
15950TIP3    H169265   4.524   6.130  15.273  0.3955 -2.4039  2.2314
15950TIP3    H269266   4.670   6.119  15.234 -0.0965  0.0923 -0.4769
15951TIP3   OH269267   5.694   3.987  15.824 -0.1665  0.1476 -0.6158
15951TIP3    H169268   5.644   4.062  15.793 -0.8647  0.3740  0.9862
15951TIP3    H269269   5.627   3.923  15.852  0.4275 -0.3909 -0.4078
15952TIP3   OH269270   6.436   2.187   3.674 -0.4809  0.4917  0.2363
15952TIP3    H169271   6.436   2.107   3.621 -2.1529  1.2133 -0.8962
15952TIP3    H269272   6.353   2.184   3.722 -0.0025  0.9507  1.0986
15953TIP3   OH269273   0.320   1.903   0.801  0.5503 -0.0744  0.4887
15953TIP3    H169274   0.386   1.957   0.757 -0.6396  1.4074  0.4791
15953TIP3    H269275   0.332   1.922   0.894  0.1256  0.2468  0.4841
15954TIP3   OH269276   4.443   6.423   0.557  0.0446  0.0414 -0.4252
15954TIP3    H169277   4.468   6.477   0.482  2.0339  2.3637  1.8091
15954TIP3    H269278   4.478   6.470   0.633 -2.4162 -1.9257  2.0231
15955TIP3   OH269279   2.603   6.533  14.290 -0.1506  0.1720 -0.2009
15955TIP3    H169280   2.578   6.569  14.205 -0.4342  0.9574  0.2112
15955TIP3    H269281   2.610   6.609  14.347  1.1726 -0.2359  0.2035
15956TIP3   OH269282   5.214   0.150  17.077 -0.0165 -0.4246  0.4349
15956TIP3    H169283   5.282   0.097  17.034 -0.0480 -0.4403  0.4050
15956TIP3    H269284   5.142   0.153  17.014  0.6758  1.1549 -0.3122
15957TIP3   OH269285   4.326   3.452   3.593  0.3005  0.0433 -0.0934
15957TIP3    H169286   4.381   3.486   3.523 -1.6739  0.0220 -1.6837
15957TIP3    H269287   4.366   3.486   3.673  2.0077  0.8797 -1.2701
15958TIP3   OH269288   4.534   3.472  12.956 -0.0362  0.2273 -0.1068
15958TIP3    H169289   4.488   3.500  13.035 -0.6974 -0.8752 -0.0963
15958TIP3    H269290   4.589   3.399  12.985  1.9322  1.6480 -0.0677
15959TIP3   OH269291   1.103   3.225  12.463  0.0635 -0.2710  0.1455
15959TIP3    H169292   1.022   3.212  12.414  1.1472 -1.5412 -1.3667
15959TIP3    H269293   1.100   3.159  12.533  0.5240 -1.4427 -0.9126
15960TIP3   OH269294   2.524   4.610  11.666 -0.2227 -0.3390  0.0501
15960TIP3    H169295   2.578   4.688  11.679  0.8990 -0.7907 -1.8149
15960TIP3    H269296   2.551   4.551  11.737 -0.7774  0.7781  1.2164
15961TIP3   OH269297   6.104   3.591   4.549 -0.2157 -0.0171  0.2020
15961TIP3    H169298   6.055   3.509   4.556 -1.6185  0.8450  0.7131
15961TIP3    H269299   6.176   3.571   4.490 -1.8514 -1.0174 -1.5064
15962TIP3   OH269300   1.108   4.443   5.844 -0.6402 -0.3697 -0.4717
15962TIP3    H169301   1.060   4.468   5.765 -0.7362 -1.7298 -0.8475
15962TIP3    H269302   1.119   4.349   5.837  1.4768 -0.1692 -0.0297
15963TIP3   OH269303   1.185   6.237  17.048 -0.0426  0.6792 -0.0431
15963TIP3    H169304   1.233   6.278  17.120  0.4835 -0.1446  0.0868
15963TIP3    H269305   1.163   6.309  16.990  0.2868  1.2363  0.5145
15964TIP3   OH269306   3.928   5.436  14.903  0.1440 -0.5925  0.4094
15964TIP3    H169307   3.921   5.431  14.808  1.1571 -1.7285  0.3780
15964TIP3    H269308   3.905   5.526  14.924 -0.2926 -0.3896 -0.8951
15965TIP3   OH269309   5.609   2.240   0.733  0.3241  0.0611  0.1903
15965TIP3    H169310   5.693   2.282   0.712 -0.9769  2.7298  0.1619
15965TIP3    H269311   5.612   2.229   0.828  0.2635  1.1512  0.3232
15966TIP3   OH269312   5.951   2.521  16.995 -0.5424 -0.4470 -0.4775
15966TIP3    H169313   5.912   2.567  17.069 -1.1455  1.5499 -2.0091
15966TIP3    H269314   6.033   2.567  16.979 -0.3212 -1.0008 -0.9279
15967TIP3   OH269315   3.525   2.029  13.774 -0.2035  0.1855 -0.1456
15967TIP3    H169316   3.464   1.959  13.794 -0.0931 -0.2445 -1.2632
15967TIP3    H269317   3.509   2.095  13.841 -1.9245  0.1004 -0.4477
15968TIP3   OH269318   2.335   5.917  16.250 -0.7610  0.0154 -0.4710
15968TIP3    H169319   2.352   6.011  16.257 -3.0865  0.4454 -0.0769
15968TIP3    H269320   2.338   5.899  16.156 -0.6743  0.5522 -0.5721
15969TIP3   OH269321   1.783   0.237   4.867  0.5972 -0.2390  0.1280
15969TIP3    H169322   1.786   0.242   4.963  1.8467 -0.9266  0.1322
15969TIP3    H269323   1.719   0.169   4.849  1.3024 -1.0249  0.5180
15970TIP3   OH269324   4.288   0.316   2.952  1.2115  0.2555 -0.0305
15970TIP3    H169325   4.356   0.250   2.939  0.0092 -0.9776 -0.2457
15970TIP3    H269326   4.228   0.275   3.016  1.2622  1.7675  1.0010
15971TIP3   OH269327   1.325   2.434  16.638  0.1506 -0.2447  0.2949
15971TIP3    H169328   1.240   2.428  16.594  0.5961 -1.2935 -0.4594
15971TIP3    H269329   1.388   2.444  16.566  0.6937  0.1613  0.8259
15972TIP3   OH269330   2.196   0.158   0.738 -0.0424 -0.4558 -0.0992
15972TIP3    H169331   2.125   0.143   0.799 -0.8928 -0.9310 -1.1868
15972TIP3    H269332   2.210   0.253   0.740 -0.2668 -0.4409  0.5960
15973TIP3   OH269333   4.211   0.490   2.531 -0.0209  0.2418  0.2684
15973TIP3    H169334   4.145   0.435   2.488 -0.0205  0.1693  0.3618
15973TIP3    H269335   4.161   0.556   2.578 -0.0083  0.9530 -0.6873
15974TIP3   OH269336   4.959   0.911   5.556 -0.4261  0.1188  0.1166
15974TIP3    H169337   4.897   0.956   5.613 -0.1255 -1.1819  1.4926
15974TIP3    H269338   4.969   0.824   5.595  1.2176 -0.1518 -0.8631
15975TIP3   OH269339   4.546   1.672  12.772  0.1633  0.5419  0.0695
15975TIP3    H169340   4.544   1.756  12.817  1.2167  0.2751  0.6338
15975TIP3    H269341   4.635   1.639  12.786 -0.3237 -0.7963  0.1153
15976TIP3   OH269342   6.749   0.748  17.041 -0.2299  0.2602 -0.1585
15976TIP3    H169343   6.792   0.794  16.969 -0.3041  0.2688 -0.1976
15976TIP3    H269344   6.819   0.726  17.102 -0.5035  2.4794  1.0015
15977TIP3   OH269345   5.650   0.125  11.609 -0.0593  0.1576  0.6885
15977TIP3    H169346   5.615   0.054  11.555 -1.6202  0.2164  1.5906
15977TIP3    H269347   5.688   0.082  11.685  1.7847  0.1041 -0.2218
15978TIP3   OH269348   4.727   1.060   0.473 -0.3371 -0.7689  0.2911
15978TIP3    H169349   4.722   1.023   0.561 -1.0980 -0.4369  0.3950
15978TIP3    H269350   4.646   1.110   0.464  0.4446  0.4542 -0.0411
15979TIP3   OH269351   3.730   5.425  16.892  0.3473 -0.3758  0.2864
15979TIP3    H169352   3.796   5.463  16.949  0.0503 -1.6176  1.4863
15979TIP3    H269353   3.718   5.336  16.925 -1.0809 -0.5480 -0.6356
15980TIP3   OH269354   4.048   6.010   0.256  0.2227 -0.1722 -0.1891
15980TIP3    H169355   3.957   6.040   0.257  1.5490  4.2616 -1.0035
15980TIP3    H269356   4.060   5.975   0.167 -1.0098 -1.9934  0.3429
15981TIP3   OH269357   2.383   2.722  13.296  0.5837  0.4154  0.4756
15981TIP3    H169358   2.314   2.787  13.311 -0.0782 -0.4187  1.0955
15981TIP3    H269359   2.404   2.689  13.383  0.0860 -1.0383  0.0597
15982TIP3   OH269360   2.088   6.246  12.722 -0.2806  0.3082  0.1560
15982TIP3    H169361   2.148   6.275  12.652  0.0337 -2.3676 -0.7205
15982TIP3    H269362   2.007   6.295  12.705  0.4095  1.1059 -0.9272
15983TIP3   OH269363   5.450   6.154   4.235  0.4444 -0.8366  0.8715
15983TIP3    H169364   5.357   6.133   4.222 -0.0122  0.6631  1.6247
15983TIP3    H269365   5.459   6.167   4.329  0.9866  0.9518  0.5921
15984TIP3   OH269366   3.029   0.482  10.515  0.1978 -0.1565  0.0136
15984TIP3    H169367   3.071   0.547  10.572 -1.5837  0.0123  1.1690
15984TIP3    H269368   3.090   0.408  10.515  0.7745  0.3034  1.2187
15985TIP3   OH269369   0.847   6.202   3.859  0.4172 -0.0534 -0.2015
15985TIP3    H169370   0.888   6.129   3.905 -1.7614 -1.0247  0.2944
15985TIP3    H269371   0.802   6.162   3.785 -0.4545  0.8316 -0.1708
15986TIP3   OH269372   4.937   3.212   2.385 -0.1783  0.0919 -0.6428
15986TIP3    H169373   4.931   3.233   2.478 -1.8272  0.5210 -0.8222
15986TIP3    H269374   4.889   3.283   2.342  2.2911  1.0201 -2.0022
15987TIP3   OH269375   5.202   6.411   1.832 -0.9023 -0.3050 -0.1198
15987TIP3    H169376   5.192   6.382   1.741 -0.3508  0.3097 -0.3926
15987TIP3    H269377   5.297   6.407   1.847 -0.7315  1.9563 -0.3996
15988TIP3   OH269378   5.532   4.799   3.105 -0.5041  0.3101 -0.5945
15988TIP3    H169379   5.525   4.762   3.193  1.3737  0.4682 -0.3538
15988TIP3    H269380   5.471   4.872   3.105 -2.6330 -1.4027 -0.3648
15989TIP3   OH269381   6.750   3.650  13.250 -0.0696  0.0420  0.0992
15989TIP3    H169382   6.690   3.587  13.210 -1.1005  0.1145  1.4990
15989TIP3    H269383   6.818   3.597  13.290 -0.1979 -0.1320  0.0868
15990TIP3   OH269384   5.848   6.543   6.657  0.4129  0.0940 -0.5127
15990TIP3    H169385   5.848   6.638   6.651 -2.5647  0.3718  2.4539
15990TIP3    H269386   5.910   6.523   6.727 -0.8713  0.0674  0.6428
15991TIP3   OH269387   2.389   3.567  13.031 -0.3727  0.4006 -0.8282
15991TIP3    H169388   2.425   3.484  13.062 -0.8747  0.3511 -0.3726
15991TIP3    H269389   2.465   3.626  13.030 -0.1412  0.1124 -0.5208
15992TIP3   OH269390   2.359   4.557   1.806 -0.0634  0.3122 -0.4416
15992TIP3    H169391   2.309   4.578   1.727  0.5599 -0.9771 -1.1743
15992TIP3    H269392   2.450   4.557   1.778  0.0162 -2.4000 -0.2279
15993TIP3   OH269393   5.190   3.787   4.185 -0.8644 -0.1499  0.4626
15993TIP3    H169394   5.148   3.706   4.158 -2.6675  0.3803  1.5657
15993TIP3    H269395   5.283   3.775   4.164 -1.2833 -2.0618 -0.3468
15994TIP3   OH269396   2.178   6.595  13.456 -0.3848  0.2419  0.6881
15994TIP3    H169397   2.082   6.595  13.456 -0.4112  1.9569  0.9343
15994TIP3    H269398   2.202   6.671  13.402  0.8745 -1.5514 -1.3782
15995TIP3   OH269399   1.623   4.217   6.192  0.2982 -0.1091  0.0776
15995TIP3    H169400   1.621   4.125   6.216  1.1620 -0.2458 -0.3435
15995TIP3    H269401   1.601   4.264   6.272  0.6978 -0.6494  0.5066
15996TIP3   OH269402   1.426   6.690  16.710  0.6328  0.0162 -0.0228
15996TIP3    H169403   1.346   6.687  16.657 -0.2729 -1.4991  1.4073
15996TIP3    H269404   1.485   6.627  16.667  0.2230 -0.5551  0.2437
15997TIP3   OH269405   5.719   5.516  14.417 -0.6820 -0.4128 -0.2924
15997TIP3    H169406   5.677   5.477  14.493  1.4806 -0.9632  0.6707
15997TIP3    H269407   5.683   5.469  14.342 -0.5979 -1.9491  0.6214
15998TIP3   OH269408   1.053   1.726   3.269  0.4356 -0.0066  0.0476
15998TIP3    H169409   1.093   1.659   3.213 -0.1659  0.7091 -1.2423
15998TIP3    H269410   1.111   1.802   3.261 -0.3322  0.5112 -0.5854
15999TIP3   OH269411   4.765   2.567  16.108 -0.1834  0.3713 -0.0578
15999TIP3    H169412   4.857   2.561  16.133 -0.5563 -0.5320  1.1594
15999TIP3    H269413   4.720   2.510  16.170 -1.5166  0.4913 -0.9052
16000TIP3   OH269414   2.420   4.811  12.822 -0.0267  0.1565 -0.2874
16000TIP3    H169415   2.349   4.875  12.824  0.2133  0.4029  0.6826
16000TIP3    H269416   2.377   4.727  12.810 -0.2731  0.5984 -2.7337
16001TIP3   OH269417   1.182   1.810   2.114 -0.3066 -0.5287 -0.1403
16001TIP3    H169418   1.168   1.727   2.070 -0.3637 -0.5673 -0.0479
16001TIP3    H269419   1.094   1.845   2.130 -0.2549  0.3037 -1.6235
16002TIP3   OH269420   5.855   6.204   0.338 -0.0980  0.0803 -0.0530
16002TIP3    H169421   5.942   6.177   0.368 -0.4489  0.4629  1.3253
16002TIP3    H269422   5.866   6.217   0.243  0.8895 -1.6225 -0.1907
16003TIP3   OH269423   1.190   5.931   5.635  0.1568 -0.1517 -0.2859
16003TIP3    H169424   1.262   5.978   5.678  0.2658 -0.9418  0.4303
16003TIP3    H269425   1.134   5.999   5.599  1.0837  0.4840 -0.5320
16004TIP3   OH269426   2.077   0.908   2.727  0.0829  0.5307  0.0733
16004TIP3    H169427   2.020   0.980   2.754 -1.1083 -0.6816  0.9057
16004TIP3    H269428   2.024   0.859   2.663  0.6850  0.1314 -0.1198
16005TIP3   OH269429   4.099   5.684   1.948  0.2500  0.0870  0.6077
16005TIP3    H169430   4.072   5.638   1.869 -2.2942  0.5254  1.1540
16005TIP3    H269431   4.144   5.617   2.000 -0.1486 -0.8357 -0.2037
16006TIP3   OH269432   3.741   0.148  10.168  0.0690  0.1529 -0.3367
16006TIP3    H169433   3.725   0.113  10.256 -0.1447  0.2431 -0.3406
16006TIP3    H269434   3.822   0.197  10.176 -0.1044  0.4067 -0.1183
16007TIP3   OH269435   0.081   4.593   3.238 -0.2139 -0.3831  0.3299
16007TIP3    H169436   0.077   4.516   3.294 -0.0375 -0.3007  0.4541
16007TIP3    H269437   0.008   4.648   3.267 -0.6315 -0.7195 -0.0747
16008TIP3   OH269438   2.108   3.472  10.726  0.4462 -0.0541  0.2505
16008TIP3    H169439   2.105   3.564  10.699 -0.0214  0.1625  1.0115
16008TIP3    H269440   2.146   3.474  10.813  0.9557 -0.6397  0.0433
16009TIP3   OH269441   0.082   6.784  12.367  0.0292  0.5344  0.4040
16009TIP3    H169442   0.048   6.866  12.403 -0.5743  0.0165  1.0433
16009TIP3    H269443   0.008   6.723  12.374  0.5436 -0.1218  0.1473
16010TIP3   OH269444   1.140   5.620   3.655  0.2020  0.3213  0.3635
16010TIP3    H169445   1.138   5.658   3.567 -0.6726 -1.4417 -0.3964
16010TIP3    H269446   1.229   5.586   3.665  1.0269  2.6208  1.0943
16011TIP3   OH269447   2.375   2.422   2.166 -0.4549  0.8908  0.3900
16011TIP3    H169448   2.395   2.336   2.204 -1.1175 -0.2355 -1.7466
16011TIP3    H269449   2.459   2.467   2.164 -0.1633  0.4333  1.8731
16012TIP3   OH269450   5.758   3.814  12.833 -0.3501 -0.4655 -0.2346
16012TIP3    H169451   5.791   3.752  12.898 -2.4936 -0.9145  0.4592
16012TIP3    H269452   5.726   3.888  12.884  0.9347  0.6078 -0.9814
16013TIP3   OH269453   0.533   5.384  15.097  0.3609 -0.6316 -0.4976
16013TIP3    H169454   0.628   5.379  15.108  0.5566  2.8754 -0.0948
16013TIP3    H269455   0.514   5.477  15.099 -3.1370 -1.3034 -0.4429
16014TIP3   OH269456   1.771   4.130  13.388  0.4700  0.0321 -0.5014
16014TIP3    H169457   1.734   4.209  13.428 -1.4626 -0.4002 -1.3915
16014TIP3    H269458   1.844   4.162  13.335  1.6626  0.8571  1.5959
16015TIP3   OH269459   1.344   3.440  11.633  0.1282  0.0755  0.3597
16015TIP3    H169460   1.268   3.390  11.606  1.6222 -1.7280 -0.5712
16015TIP3    H269461   1.361   3.413  11.723 -1.6261  2.1184  1.3416
16016TIP3   OH269462   3.421   5.674   6.313  0.6164 -0.4750  0.4108
16016TIP3    H169463   3.485   5.632   6.256 -0.6537 -0.7908 -0.8146
16016TIP3    H269464   3.450   5.765   6.319  1.3075 -0.6682  0.0455
16017TIP3   OH269465   2.768   1.955   3.853 -0.0997 -0.0063  0.3631
16017TIP3    H169466   2.805   1.991   3.772  0.0207 -0.2790  0.2963
16017TIP3    H269467   2.737   2.031   3.901  0.4457  0.2158  0.3647
16018TIP3   OH269468   6.292   3.148  16.158 -0.2810  0.4886  0.4018
16018TIP3    H169469   6.384   3.175  16.152 -0.5178  1.2557  0.2265
16018TIP3    H269470   6.247   3.202  16.094 -0.7601 -0.3302  0.0372
16019TIP3   OH269471   4.923   5.342   1.502 -0.3551  0.1598  0.4325
16019TIP3    H169472   4.853   5.390   1.546 -0.9677  0.1244 -0.4916
16019TIP3    H269473   4.884   5.313   1.420 -0.0687 -2.1481  1.0734
16020TIP3   OH269474   3.732   6.036   6.063 -0.3648  0.2312 -0.4218
16020TIP3    H169475   3.693   6.071   6.143  0.1005  1.2693 -0.6349
16020TIP3    H269476   3.793   5.968   6.093  0.2729  1.0505  0.1581
16021TIP3   OH269477   3.329   1.663   1.031 -0.0143 -0.9701  0.0879
16021TIP3    H169478   3.297   1.580   0.996 -0.8464 -0.2143 -0.9947
16021TIP3    H269479   3.285   1.730   0.978  0.4513  0.1653  1.1025
16022TIP3   OH269480   0.030   5.218   1.349  0.0539 -0.3366 -0.1444
16022TIP3    H169481   0.099   5.280   1.327  0.7956 -1.6942 -1.8341
16022TIP3    H269482   0.063   5.134   1.318 -2.3218 -1.0311 -0.9055
16023TIP3   OH269483   1.736   1.169  15.741  0.6071  0.5276  0.2461
16023TIP3    H169484   1.656   1.146  15.693  1.6401 -0.3631 -1.0597
16023TIP3    H269485   1.705   1.228  15.811 -0.8081  2.5916 -2.0204
16024TIP3   OH269486   4.370   5.547   1.923  0.5083 -0.1791 -0.2186
16024TIP3    H169487   4.451   5.510   1.959  1.5986  0.5296 -1.8898
16024TIP3    H269488   4.307   5.538   1.994  2.4216  0.6134  1.6472
16025TIP3   OH269489   5.722   1.019   5.884 -0.5970 -0.3980 -0.6071
16025TIP3    H169490   5.658   1.059   5.825 -1.0656 -0.5331 -0.1908
16025TIP3    H269491   5.733   1.082   5.955 -1.3336 -0.9961  0.0489
16026TIP3   OH269492   4.671   2.796   3.458 -0.3670  0.0514  0.1254
16026TIP3    H169493   4.740   2.852   3.494  0.1560  0.6446 -1.7767
16026TIP3    H269494   4.718   2.723   3.417 -0.9324 -0.2415 -0.0104
16027TIP3   OH269495   5.520   4.208  15.769 -0.4379 -0.1681  0.3464
16027TIP3    H169496   5.481   4.296  15.766 -1.2424 -0.5657 -1.7195
16027TIP3    H269497   5.489   4.171  15.852 -0.1809  1.4519  1.1901
16028TIP3   OH269498   1.212   3.016   3.590  0.4723  0.0184 -0.3069
16028TIP3    H169499   1.262   2.939   3.563  1.4683  0.3550  0.5708
16028TIP3    H269500   1.261   3.052   3.664 -1.3266  0.0669  0.8827
16029TIP3   OH269501   6.401   0.858  17.065 -0.1634 -0.0786  0.2215
16029TIP3    H169502   6.418   0.928  17.128 -1.8042  0.8789 -0.3520
16029TIP3    H269503   6.454   0.784  17.095  3.1417  2.0030 -0.2515
16030TIP3   OH269504   4.719   6.075  16.888  0.4546 -0.2506 -0.0902
16030TIP3    H169505   4.639   6.026  16.909 -0.6868  2.0288  1.0126
16030TIP3    H269506   4.724   6.073  16.793 -0.4239 -1.1888 -0.1269
16031TIP3   OH269507   2.285   1.051  11.679 -0.0276 -0.5155 -0.3340
16031TIP3    H169508   2.266   1.062  11.772  0.4184  0.2322 -0.3298
16031TIP3    H269509   2.199   1.058  11.636  0.0709  1.9414 -0.2247
16032TIP3   OH269510   5.928   5.357  14.901 -0.0237  0.2894  0.1229
16032TIP3    H169511   5.944   5.280  14.847 -0.3044  0.5404 -0.3190
16032TIP3    H269512   6.015   5.383  14.933  0.4379  1.4670 -2.0136
16033TIP3   OH269513   1.091   1.164   5.091  0.4741  0.0799 -0.3183
16033TIP3    H169514   1.131   1.191   5.173  1.6324  0.2159 -0.9039
16033TIP3    H269515   1.130   1.222   5.025  1.4194 -1.6220 -1.3028
16034TIP3   OH269516   3.118   1.777  14.563 -0.2055 -0.4988 -0.3274
16034TIP3    H169517   3.105   1.682  14.566  0.5106 -0.5923 -0.0830
16034TIP3    H269518   3.051   1.813  14.621 -0.9123 -0.8056 -0.9351
16035TIP3   OH269519   6.020   5.414   2.307  0.2406  0.0147  0.6832
16035TIP3    H169520   6.035   5.502   2.272  0.6351  0.6516  2.4073
16035TIP3    H269521   5.926   5.413   2.327  0.0360 -0.3138 -0.2558
16036TIP3   OH269522   5.166   6.778  12.028  0.0486 -0.2574 -0.5027
16036TIP3    H169523   5.179   6.786  11.934  0.7095 -0.1324 -0.4003
16036TIP3    H269524   5.254   6.771  12.065 -0.1256  1.2165  0.2456
16037TIP3   OH269525   6.239   1.966   5.247  0.1045 -0.0439  0.0920
16037TIP3    H169526   6.258   2.007   5.331 -0.3517  0.9108 -0.2611
16037TIP3    H269527   6.315   1.985   5.193  1.0472 -1.9083  0.7303
16038TIP3   OH269528   2.015   3.904  13.535  0.0017  0.2522  0.0676
16038TIP3    H169529   2.071   3.852  13.593 -1.1960 -0.3075  0.7405
16038TIP3    H269530   2.031   3.994  13.561  0.5329  0.0887  0.3100
16039TIP3   OH269531   1.938   0.645   1.251 -0.8255 -0.0859 -0.5637
16039TIP3    H169532   1.940   0.561   1.205 -1.7437 -0.0247 -0.7332
16039TIP3    H269533   1.970   0.625   1.339  1.9888 -0.0005 -1.5271
16040TIP3   OH269534   3.333   6.409  15.081  0.1723 -0.0396 -0.0093
16040TIP3    H169535   3.306   6.492  15.043 -1.8831 -1.0821 -0.8953
16040TIP3    H269536   3.339   6.426  15.175  1.3589  1.5125 -0.3565
16041TIP3   OH269537   1.885   6.382  12.487  0.2965  0.3523  0.3988
16041TIP3    H169538   1.948   6.433  12.435  1.2521  0.4364  1.5964
16041TIP3    H269539   1.848   6.445  12.548 -0.3517  0.1221  0.2482
16042TIP3   OH269540   4.790   1.482   3.248  0.1015  0.5212  0.0852
16042TIP3    H169541   4.798   1.424   3.172 -0.8442 -0.0848  0.4321
16042TIP3    H269542   4.723   1.546   3.222 -0.1049  0.4104  0.3357
16043TIP3   OH269543   4.728   1.218  15.567 -0.9304  0.3092  0.5274
16043TIP3    H169544   4.789   1.290  15.553 -1.0357  0.5696  1.3574
16043TIP3    H269545   4.642   1.256  15.548 -0.8801  0.0743 -0.1783
16044TIP3   OH269546   2.261   2.546  10.439 -0.5151  0.3500 -0.3709
16044TIP3    H169547   2.326   2.494  10.391 -0.7097 -0.5875  0.3568
16044TIP3    H269548   2.181   2.538  10.388  0.2921  2.8309 -2.1462
16045TIP3   OH269549   4.867   0.384  11.978 -0.3440  0.5220 -0.2636
16045TIP3    H169550   4.847   0.370  12.071  0.7822  0.5973  0.0092
16045TIP3    H269551   4.828   0.469  11.958  0.7329  1.2385  0.5731
16046TIP3   OH269552   3.332   4.109   3.524  0.6557 -0.1962 -0.2778
16046TIP3    H169553   3.412   4.142   3.483 -0.4021  0.3840 -1.9266
16046TIP3    H269554   3.325   4.018   3.494 -0.7558  0.5795 -2.4682
16047TIP3   OH269555   1.356   0.384   3.026  0.3395  0.2179 -0.3131
16047TIP3    H169556   1.415   0.344   3.090 -1.4040 -0.9849  0.5863
16047TIP3    H269557   1.279   0.409   3.077 -0.4249  0.6903 -1.6676
16048TIP3   OH269558   5.652   4.920  15.476  0.2833  0.1993 -0.4789
16048TIP3    H169559   5.724   4.958  15.525  0.1060  1.5261 -1.2263
16048TIP3    H269560   5.686   4.910  15.387 -0.4973  0.9630 -0.8692
16049TIP3   OH269561   1.046   0.949   1.710  0.1714  0.4891 -0.3582
16049TIP3    H169562   1.056   0.964   1.804 -0.8904 -1.0134  0.0060
16049TIP3    H269563   0.951   0.942   1.697  0.3682 -0.4409 -1.3530
16050TIP3   OH269564   4.907   5.669   6.495  0.4701 -0.1005 -0.0257
16050TIP3    H169565   4.859   5.597   6.455 -0.4525  1.2704 -1.4685
16050TIP3    H269566   4.841   5.718   6.544  0.8304  0.4521 -0.0841
16051TIP3   OH269567   3.198   4.213   4.518 -0.2437  0.0310 -0.4489
16051TIP3    H169568   3.270   4.185   4.575  0.9417  1.5655 -1.1619
16051TIP3    H269569   3.233   4.205   4.430 -0.9933  0.6848 -0.8084
16052TIP3   OH269570   5.412   2.987   2.686 -0.7341  0.4217  0.3510
16052TIP3    H169571   5.493   2.938   2.673 -1.0458 -0.6568  2.3176
16052TIP3    H269572   5.345   2.935   2.641 -0.3594  1.3055 -1.2607
16053TIP3   OH269573   1.892   1.529   5.769  0.4479 -0.2678  0.1027
16053TIP3    H169574   1.825   1.461   5.774  0.0969  0.0304 -0.4433
16053TIP3    H269575   1.889   1.572   5.855  0.6233 -0.8877  0.4242
16054TIP3   OH269576   4.603   4.074  16.748 -0.6364  0.2306 -0.2479
16054TIP3    H169577   4.564   4.052  16.833 -0.8780  2.8918  0.3676
16054TIP3    H269578   4.538   4.128  16.705  0.6209  1.1933 -0.9711
16055TIP3   OH269579   5.244   5.911   5.079 -0.1136 -0.0556  0.4482
16055TIP3    H169580   5.242   5.851   5.154 -0.6350 -0.5751  0.0275
16055TIP3    H269581   5.154   5.945   5.074 -0.0716  0.0013  0.0832
16056TIP3   OH269582   1.243   1.195   0.325 -0.0600 -0.5722 -0.2901
16056TIP3    H169583   1.191   1.146   0.389  0.0226  1.1240  1.1003
16056TIP3    H269584   1.216   1.159   0.241 -1.9879 -1.1329  0.5314
16057TIP3   OH269585   3.082   4.032   2.049  0.1276  0.9690  0.0226
16057TIP3    H169586   3.019   4.070   2.110 -0.2417  1.6206 -0.7553
16057TIP3    H269587   3.085   3.939   2.072  1.6090  1.5714  2.4608
16058TIP3   OH269588   2.264   4.586  12.798  0.1986  0.1036  0.5748
16058TIP3    H169589   2.320   4.525  12.845  0.4824 -0.0081  0.0971
16058TIP3    H269590   2.213   4.531  12.739  0.7229  0.3559 -0.1255
16059TIP3   OH269591   6.751   0.519  12.386  0.2593 -0.8253  0.0686
16059TIP3    H169592   6.845   0.506  12.369  0.8594 -1.3862  3.3584
16059TIP3    H269593   6.749   0.582  12.458 -1.8381 -2.1127  1.1712
16060TIP3   OH269594   1.413   3.274  16.340  0.0145 -0.1647 -0.2972
16060TIP3    H169595   1.418   3.195  16.286 -0.5360 -0.7316  0.4456
16060TIP3    H269596   1.496   3.318  16.327  0.3211 -0.8623 -0.7490
16061TIP3   OH269597   1.483   5.203   1.775 -0.3727 -0.0800  0.0953
16061TIP3    H169598   1.408   5.238   1.824  0.2839  0.7783  0.4883
16061TIP3    H269599   1.470   5.234   1.686 -1.1066 -0.9177 -0.0987
16062TIP3   OH269600   4.613   4.687  17.004 -0.7375 -0.0074  0.2709
16062TIP3    H169601   4.568   4.751  17.059  1.7424  1.9571  0.1238
16062TIP3    H269602   4.681   4.738  16.959  0.5715 -2.5437 -0.7312
16063TIP3   OH269603   1.743   3.284   1.571 -0.0811 -0.1342 -0.3382
16063TIP3    H169604   1.752   3.205   1.518  0.0624  1.5384 -2.9099
16063TIP3    H269605   1.809   3.275   1.640  1.7819 -1.0303 -2.1947
16064TIP3   OH269606   6.058   0.498  13.028 -0.3413 -0.1501 -0.1881
16064TIP3    H169607   6.129   0.518  12.967 -0.3999 -0.0660 -0.2300
16064TIP3    H269608   6.063   0.567  13.094 -0.2344 -0.2798 -0.0603
16065TIP3   OH269609   1.371   5.984  14.189 -0.0417 -0.0962 -0.3374
16065TIP3    H169610   1.305   5.987  14.119 -0.1206  0.6538 -0.2297
16065TIP3    H269611   1.339   5.916  14.248  0.4833 -1.3605 -1.4819
16066TIP3   OH269612   2.430   1.458   5.380  0.1120 -0.1393 -0.1382
16066TIP3    H169613   2.382   1.375   5.382  2.7396 -1.7282 -0.8380
16066TIP3    H269614   2.392   1.506   5.306 -3.0223  0.3277  1.7067
16067TIP3   OH269615   2.756   6.145  14.340 -0.2352 -0.2265 -0.0288
16067TIP3    H169616   2.825   6.098  14.387  0.4198 -0.4821 -1.2273
16067TIP3    H269617   2.735   6.219  14.397  0.9660 -0.1959  0.3960
16068TIP3   OH269618   1.307   4.402   6.135  0.0912  0.1435  0.5393
16068TIP3    H169619   1.364   4.403   6.211  0.2953  1.4366  0.3812
16068TIP3    H269620   1.363   4.431   6.063 -0.3808 -0.0313  0.0993
16069TIP3   OH269621   2.073   6.087  12.013 -0.1105  0.2275 -0.3076
16069TIP3    H169622   2.077   6.086  11.917  0.0034 -0.3190 -0.2948
16069TIP3    H269623   2.161   6.115  12.039  1.1918 -3.5672 -0.2671
16070TIP3   OH269624   0.696   2.931  12.109  0.0453 -0.2049 -0.4952
16070TIP3    H169625   0.604   2.907  12.115 -0.4692  1.7090 -0.4306
16070TIP3    H269626   0.732   2.912  12.196 -0.6497  0.4345 -0.0629
16071TIP3   OH269627   4.429   2.287   1.715  0.1756  0.4666 -0.3980
16071TIP3    H169628   4.336   2.269   1.720  0.3312 -0.3294 -0.3279
16071TIP3    H269629   4.439   2.374   1.753 -0.7143  1.1416 -1.6569
16072TIP3   OH269630   6.617   2.210  12.541  0.2587 -0.2404 -0.4556
16072TIP3    H169631   6.551   2.276  12.516  0.6907 -0.6862 -2.9554
16072TIP3    H269632   6.648   2.238  12.627 -2.1025  0.8310  0.0895
16073TIP3   OH269633   5.236   6.536  13.000  0.1235 -0.0587 -0.1235
16073TIP3    H169634   5.246   6.491  13.084  1.0013  0.0688 -0.1586
16073TIP3    H269635   5.153   6.503  12.966 -1.0250  1.0430  1.4918
16074TIP3   OH269636   3.824   3.891   0.036 -0.4922 -0.7475  0.3393
16074TIP3    H169637   3.801   3.896  -0.057  0.5792 -0.2110  0.0945
16074TIP3    H269638   3.802   3.978   0.070 -0.5548 -0.8308  0.5094
16075TIP3   OH269639   2.377   2.941  16.474 -0.0580  0.1549 -0.0218
16075TIP3    H169640   2.309   3.008  16.485 -0.7351 -0.4126 -0.7535
16075TIP3    H269641   2.369   2.885  16.552  0.3036  0.7230  0.4304
16076TIP3   OH269642   6.249   3.473   3.373  0.3469 -0.5818 -0.1151
16076TIP3    H169643   6.254   3.378   3.367  0.4522 -0.6511  0.8929
16076TIP3    H269644   6.319   3.497   3.434  0.2128  0.1242 -0.2302
16077TIP3   OH269645   2.736   5.702  14.175  0.3654  0.5315 -0.2896
16077TIP3    H169646   2.720   5.614  14.140  1.4225 -0.5071  1.6975
16077TIP3    H269647   2.674   5.710  14.247  1.8424  0.4494  1.0320
16078TIP3   OH269648   2.204   5.172  10.468  0.1559 -0.2140 -0.0477
16078TIP3    H169649   2.172   5.193  10.556  3.3038 -0.5560  1.2656
16078TIP3    H269650   2.262   5.246  10.447  0.7106 -0.9530 -1.1248
16079TIP3   OH269651   6.514   4.962  12.184 -0.1931 -0.2579 -0.1922
16079TIP3    H169652   6.525   4.884  12.239 -2.1837  0.6945  1.6333
16079TIP3    H269653   6.476   4.929  12.103  0.6782 -1.4137 -0.1402
16080TIP3   OH269654   4.656   3.895   4.286  0.2583 -0.7587  0.3347
16080TIP3    H169655   4.578   3.948   4.301  1.5441  1.2604  0.0199
16080TIP3    H269656   4.681   3.914   4.196  0.3146 -2.4832 -0.0203
16081TIP3   OH269657   4.289   2.198   3.329 -0.3750 -0.4172 -0.4304
16081TIP3    H169658   4.285   2.291   3.308  0.2413 -0.3907 -0.4382
16081TIP3    H269659   4.371   2.187   3.376  1.1789 -1.5241 -3.3062
16082TIP3   OH269660   1.251   3.230  10.596 -0.0625 -0.5960  0.1049
16082TIP3    H169661   1.310   3.299  10.625 -1.2559  0.4658  0.0323
16082TIP3    H269662   1.303   3.150  10.604  0.7743  0.0898  1.8316
16083TIP3   OH269663   4.347   6.782   1.313 -0.5071  0.0122 -0.1676
16083TIP3    H169664   4.426   6.836   1.312  1.9524 -3.3611  1.1767
16083TIP3    H269665   4.315   6.788   1.403 -0.2877 -0.6625 -0.0416
16084TIP3   OH269666   1.674   4.015  14.525 -0.0126  0.3562 -0.3503
16084TIP3    H169667   1.687   4.006  14.431  0.2087 -0.1361 -0.2735
16084TIP3    H269668   1.718   4.096  14.548  0.1805  0.3273 -0.6210
16085TIP3   OH269669   4.080   2.122   4.507 -0.3658  0.6544 -0.4174
16085TIP3    H169670   3.999   2.172   4.507 -1.0906 -0.4857  0.7318
16085TIP3    H269671   4.068   2.058   4.437 -0.0715  1.0863 -0.8652
16086TIP3   OH269672   3.237   4.354   1.341  0.2978 -0.0674  0.0390
16086TIP3    H169673   3.274   4.271   1.371  0.1340 -0.3972 -0.6665
16086TIP3    H269674   3.143   4.337   1.333  0.4307 -0.2124 -1.3816
16087TIP3   OH269675   1.615   2.289   6.227  0.0129  0.0002  0.0406
16087TIP3    H169676   1.678   2.225   6.195 -1.1626 -1.4734  0.6303
16087TIP3    H269677   1.669   2.356   6.269  1.2724 -0.4466 -0.8247
16088TIP3   OH269678   6.018   1.382   4.007 -0.4550 -0.2425  0.3468
16088TIP3    H169679   6.014   1.448   3.937  0.8166 -1.3970 -0.8396
16088TIP3    H269680   5.942   1.326   3.992 -0.3785 -0.2788  0.0887
16089TIP3   OH269681   2.150   3.370  13.442  0.3361  0.4890 -0.0213
16089TIP3    H169682   2.159   3.405  13.530  3.2053 -0.1819 -0.0083
16089TIP3    H269683   2.185   3.439  13.385  1.0542 -0.1807 -0.4067
16090TIP3   OH269684   3.052   2.716  14.005 -0.7520 -0.5238  0.1991
16090TIP3    H169685   2.961   2.741  13.992  0.0344  1.9879 -0.7548
16090TIP3    H269686   3.083   2.775  14.074  0.3881 -0.8243 -0.0539
16091TIP3   OH269687   0.351   0.782   4.700  0.2474  0.3798  0.0382
16091TIP3    H169688   0.335   0.786   4.794 -1.4773 -0.2698 -0.2012
16091TIP3    H269689   0.400   0.862   4.680  1.0047  0.3123  1.5388
16092TIP3   OH269690   6.636   2.839   1.432  0.6228  0.0316 -0.4830
16092TIP3    H169691   6.613   2.846   1.339  1.5972  3.3874 -0.5358
16092TIP3    H269692   6.556   2.860   1.479  0.4741 -0.3397 -0.5693
16093TIP3   OH269693   4.925   2.231  14.245  0.0549  0.2463 -0.0631
16093TIP3    H169694   5.006   2.280  14.227 -0.4529  1.0512 -0.1699
16093TIP3    H269695   4.857   2.280  14.200 -0.7491  0.4943  1.3936
16094TIP3   OH269696   4.173   5.799   0.729 -0.3970  0.1054 -0.1274
16094TIP3    H169697   4.249   5.831   0.778 -0.5604  0.6018 -0.1890
16094TIP3    H269698   4.200   5.807   0.637  0.4587 -2.2097 -0.0966
16095TIP3   OH269699   2.438   4.595   4.635  0.2933 -0.2142  0.1527
16095TIP3    H169700   2.460   4.589   4.543  0.3862 -0.0866  0.1667
16095TIP3    H269701   2.386   4.675   4.643 -0.6667 -0.8176  0.0204
16096TIP3   OH269702   2.982   3.287  14.916 -0.5886  0.7936 -0.2070
16096TIP3    H169703   3.067   3.326  14.896 -0.5210 -0.2909 -2.1449
16096TIP3    H269704   2.928   3.304  14.839 -1.0220 -1.5618 -0.4669
16097TIP3   OH269705   0.024   1.282   1.805  0.1448 -0.5307  0.0518
16097TIP3    H169706   0.004   1.297   1.713 -0.5549 -0.0742  0.2718
16097TIP3    H269707  -0.049   1.228   1.837 -0.4967  0.7130  0.7366
16098TIP3   OH269708   3.583   3.626   2.451  0.4158 -0.0374 -0.2822
16098TIP3    H169709   3.572   3.626   2.546  1.6563 -0.1672 -0.1334
16098TIP3    H269710   3.493   3.631   2.417 -0.0043  0.7150  0.8903
16099TIP3   OH269711   1.481   0.462  11.440  0.3439  0.3164  0.4565
16099TIP3    H169712   1.500   0.514  11.518 -1.4130 -0.5695  1.5123
16099TIP3    H269713   1.421   0.517  11.390  2.7660  1.5904 -1.1153
16100TIP3   OH269714   2.987   4.392  12.668  0.2940  0.2645 -0.1024
16100TIP3    H169715   2.949   4.309  12.695  0.1764 -0.0628 -1.2258
16100TIP3    H269716   2.938   4.458  12.717  1.1896 -0.3750  1.6914
16101TIP3   OH269717   3.951   3.397  15.880 -0.2530 -0.2054 -0.3595
16101TIP3    H169718   3.932   3.356  15.964  1.8641 -0.2145  0.1565
16101TIP3    H269719   4.042   3.373  15.862 -0.6222 -0.0519 -2.5712
16102TIP3   OH269720   1.438   6.315  13.366 -0.0161  0.4228 -0.4919
16102TIP3    H169721   1.511   6.325  13.428 -0.9423  0.6674  0.5659
16102TIP3    H269722   1.472   6.256  13.298  0.7165 -0.5495  0.7001
16103TIP3   OH269723   6.632   3.403  13.141  0.5086  0.5448 -0.2942
16103TIP3    H169724   6.551   3.395  13.089  0.1214 -0.0688  0.3976
16103TIP3    H269725   6.676   3.319  13.129  0.8589  0.7361 -0.3471
16104TIP3   OH269726   5.736   0.002  13.335 -0.5970  0.2988 -0.7525
16104TIP3    H169727   5.653  -0.038  13.362  0.8965 -2.2789  0.2071
16104TIP3    H269728   5.728   0.012  13.240 -2.2691  0.6973 -0.5804
16105TIP3   OH269729   6.622   4.939   2.748 -0.0442  0.3107  0.6240
16105TIP3    H169730   6.636   4.846   2.764 -1.1378 -0.5064 -2.8482
16105TIP3    H269731   6.701   4.981   2.783  0.5713 -1.9059  1.9954
16106TIP3   OH269732   3.913   2.462   2.577  0.7586  1.0724 -0.0498
16106TIP3    H169733   3.987   2.488   2.631 -0.0351  1.2448  0.9664
16106TIP3    H269734   3.903   2.533   2.514  2.8034  0.0540 -1.6089
16107TIP3   OH269735   5.822   0.355  15.541  0.0557 -0.4193 -0.7168
16107TIP3    H169736   5.787   0.426  15.487  0.5843  2.3325  2.4362
16107TIP3    H269737   5.915   0.351  15.518 -0.2376 -0.9955 -1.8356
16108TIP3   OH269738   5.313   1.179   0.076  0.0975 -0.4419 -0.3933
16108TIP3    H169739   5.326   1.084   0.064  0.9182 -0.1920 -1.5797
16108TIP3    H269740   5.354   1.218  -0.001  1.2580  0.9781  0.9088
16109TIP3   OH269741   4.629   0.621  11.231  0.1898  0.4710 -0.1675
16109TIP3    H169742   4.643   0.714  11.212 -1.8653  1.2165  1.7469
16109TIP3    H269743   4.584   0.587  11.154 -1.7298  1.8042  0.3274
16110TIP3   OH269744   6.577   6.529  15.817  0.6446  0.3250  0.0966
16110TIP3    H169745   6.567   6.578  15.735  0.6935  0.0182 -0.0920
16110TIP3    H269746   6.511   6.566  15.875 -0.4968 -0.5898 -0.6139
16111TIP3   OH269747   2.540   6.344  12.157  0.2969  0.0190  0.0218
16111TIP3    H169748   2.600   6.270  12.167 -0.4782 -0.6523 -0.2633
16111TIP3    H269749   2.590   6.408  12.106 -0.3426 -1.8619 -3.0949
16112TIP3   OH269750   5.358   3.092  16.559  0.1066 -0.1720  0.2965
16112TIP3    H169751   5.339   3.179  16.525 -0.9368  0.1948  1.7797
16112TIP3    H269752   5.440   3.067  16.518  0.4204  1.5194 -0.1108
16113TIP3   OH269753   4.387   3.991   2.830  0.1798 -0.0440  0.0716
16113TIP3    H169754   4.466   3.961   2.874 -0.1979 -0.5978  0.3932
16113TIP3    H269755   4.318   3.982   2.896 -0.2792 -0.2769 -0.4271
16114TIP3   OH269756   2.467   6.462   2.874  0.3594  0.1806 -0.6333
16114TIP3    H169757   2.557   6.457   2.906  0.0926  2.2668  0.5831
16114TIP3    H269758   2.474   6.511   2.791  0.2447  1.2508 -0.0181
16115TIP3   OH269759   0.329   4.593  15.837  0.2931 -0.6170  0.4120
16115TIP3    H169760   0.338   4.510  15.885  1.1036 -0.2561  0.8997
16115TIP3    H269761   0.257   4.638  15.880 -1.1950 -1.7263 -0.8404
16116TIP3   OH269762   6.555   2.982  14.521  0.7537  0.2892  0.0516
16116TIP3    H169763   6.495   2.909  14.539  0.6969  0.5903  1.1158
16116TIP3    H269764   6.515   3.028  14.448 -0.1990  0.3523  0.6050
16117TIP3   OH269765   6.526   2.504   2.168 -0.1438  0.8069  0.0781
16117TIP3    H169766   6.606   2.532   2.123 -1.2300  1.2172 -1.6366
16117TIP3    H269767   6.473   2.583   2.174 -1.5141  0.0162 -1.1400
16118TIP3   OH269768   2.396   1.518  12.845 -0.1841 -0.2350 -0.5275
16118TIP3    H169769   2.416   1.507  12.752 -3.9893 -2.8427 -1.1690
16118TIP3    H269770   2.378   1.611  12.856 -3.0515 -0.3959 -3.2300
16119TIP3   OH269771   3.363   1.730   2.358  0.0160  0.6468  0.1305
16119TIP3    H169772   3.328   1.809   2.316  0.6546 -0.2582 -2.1683
16119TIP3    H269773   3.288   1.671   2.364  0.4448 -0.1120 -1.9185
16120TIP3   OH269774   0.520   6.236   3.016 -0.4632 -0.0462  0.0371
16120TIP3    H169775   0.425   6.234   3.028 -0.3006  0.0915  1.3688
16120TIP3    H269776   0.551   6.300   3.080  0.3838  1.0774 -1.4662
16121TIP3   OH269777   6.376   2.342   2.794 -0.0162 -0.5813  0.3681
16121TIP3    H169778   6.432   2.269   2.767  0.4228 -0.0268 -0.2443
16121TIP3    H269779   6.322   2.306   2.865 -0.5825 -1.8112 -0.6728
16122TIP3   OH269780   6.384   1.929   2.675 -0.1548 -0.6463  0.3635
16122TIP3    H169781   6.296   1.967   2.669 -1.1377 -3.1117 -1.6625
16122TIP3    H269782   6.386   1.888   2.762 -0.6921  0.1099  0.7388
16123TIP3   OH269783   0.075   2.913   0.988 -0.1773 -0.1729  0.2277
16123TIP3    H169784   0.168   2.907   1.007 -0.4914 -0.9798  1.6297
16123TIP3    H269785   0.056   2.837   0.933 -0.1632 -0.4672  0.6278
16124TIP3   OH269786   1.266   2.740   1.140 -0.3182  0.0381  0.6627
16124TIP3    H169787   1.272   2.798   1.216 -0.1066 -1.4930  1.8308
16124TIP3    H269788   1.342   2.683   1.146  1.2661  1.7131 -2.2696
16125TIP3   OH269789   2.094   6.427  14.724 -0.2801 -0.2867  0.1744
16125TIP3    H169790   2.120   6.500  14.779  0.1524 -0.4551  0.1967
16125TIP3    H269791   2.009   6.452  14.689 -0.4712 -0.1037  0.7765
16126TIP3   OH269792   3.510   2.753  15.483 -0.0189  0.0571 -0.5553
16126TIP3    H169793   3.553   2.671  15.459 -1.1899 -0.8688  0.4156
16126TIP3    H269794   3.541   2.771  15.571 -2.3341 -1.1520  0.5470
16127TIP3   OH269795   5.320   5.148  16.521 -0.0025 -0.4582 -0.1030
16127TIP3    H169796   5.382   5.082  16.490 -1.0702 -1.2734 -0.5067
16127TIP3    H269797   5.283   5.186  16.442 -1.4962 -1.3758  0.1291
16128TIP3   OH269798   2.737   3.074  16.058  0.0437  0.7155 -0.2160
16128TIP3    H169799   2.691   2.992  16.077 -1.0140  1.5054  0.7126
16128TIP3    H269800   2.712   3.132  16.130  2.4668  1.1801  0.2813
16129TIP3   OH269801   2.168   5.936  13.649  0.0555 -0.1997 -0.4811
16129TIP3    H169802   2.252   5.892  13.649  0.4669  0.5733 -0.9442
16129TIP3    H269803   2.163   5.978  13.563 -0.9271 -0.4800 -0.5704
16130TIP3   OH269804   0.375   6.415   4.779 -0.4399 -0.1183  0.5881
16130TIP3    H169805   0.452   6.469   4.797 -1.9284  1.8942  1.1798
16130TIP3    H269806   0.370   6.411   4.684 -0.2767  0.7778  0.5395
16131TIP3   OH269807   5.831   2.019  16.210 -0.1783 -0.4361 -0.6459
16131TIP3    H169808   5.881   2.055  16.283  1.0093  1.1369 -2.1917
16131TIP3    H269809   5.843   1.924  16.218 -1.2673 -0.4098  2.0016
16132TIP3   OH269810   1.558   3.880  12.601 -0.3638 -0.2382  0.0483
16132TIP3    H169811   1.590   3.924  12.522 -4.6574  1.6006 -0.8185
16132TIP3    H269812   1.546   3.789  12.574  0.9177 -0.2501 -0.5345
16133TIP3   OH269813   5.506   0.769  13.800 -0.7046  0.3204 -0.3588
16133TIP3    H169814   5.411   0.760  13.799 -0.8925  2.0130  0.5914
16133TIP3    H269815   5.526   0.819  13.721 -0.9156  2.5108  0.9304
16134TIP3   OH269816   0.774   4.655  12.344 -0.0781  0.2250 -0.4040
16134TIP3    H169817   0.821   4.598  12.405 -0.0936  0.0902 -0.5184
16134TIP3    H269818   0.685   4.621  12.342 -0.3604  0.8866  0.3398
16135TIP3   OH269819   5.182   3.376  12.590  0.0391  0.6647  0.0286
16135TIP3    H169820   5.255   3.315  12.584  1.2095  2.0214  0.2096
16135TIP3    H269821   5.146   3.378  12.501 -0.4793 -0.8349  0.1921
16136TIP3   OH269822   3.465   3.540   4.547 -0.4995 -0.2170  0.2063
16136TIP3    H169823   3.545   3.585   4.521 -0.4459  0.5505  1.6278
16136TIP3    H269824   3.492   3.448   4.558 -0.5649 -0.5916 -2.4743
16137TIP3   OH269825   1.095   2.767  14.178 -0.1616 -0.7829 -0.2378
16137TIP3    H169826   1.084   2.759  14.083 -0.9319  1.9826 -0.4242
16137TIP3    H269827   1.008   2.792  14.210  1.0412  2.6360  0.6045
16138TIP3   OH269828   2.604   1.237   1.970  0.3110  0.0050  0.4248
16138TIP3    H169829   2.698   1.225   1.962 -0.0912 -2.0501 -1.6013
16138TIP3    H269830   2.587   1.322   1.929  1.1664 -0.0253 -0.0085
16139TIP3   OH269831   1.209   1.600  15.165 -0.1019 -0.3165 -0.3904
16139TIP3    H169832   1.153   1.654  15.110 -0.9766  0.3961  1.1604
16139TIP3    H269833   1.167   1.602  15.251  2.6397  0.6961  0.9639
16140TIP3   OH269834   5.134   4.292  10.891  0.0641 -0.2038  0.2171
16140TIP3    H169835   5.162   4.356  10.958 -0.0096  2.0674 -1.8611
16140TIP3    H269836   5.053   4.329  10.856  0.5665 -0.9273 -1.7285
16141TIP3   OH269837   0.263   1.195  14.663  0.5657  0.3902  0.6100
16141TIP3    H169838   0.271   1.127  14.597 -0.7853 -1.7062  2.5286
16141TIP3    H269839   0.343   1.189  14.715  1.1110  1.2713 -0.1160
16142TIP3   OH269840   2.794   3.252  13.499  0.1299 -0.1798  0.1016
16142TIP3    H169841   2.812   3.216  13.585 -1.9177 -1.5924 -0.0059
16142TIP3    H269842   2.838   3.192  13.438  0.9226  0.3715  0.1334
16143TIP3   OH269843   6.139   2.745   4.118  0.4251  0.7685 -0.1721
16143TIP3    H169844   6.159   2.837   4.105 -0.9515  1.0707 -0.2494
16143TIP3    H269845   6.055   2.745   4.165  0.5128 -0.4368  0.0139
16144TIP3   OH269846   4.817   0.683  16.062  0.1340 -0.5108 -0.2162
16144TIP3    H169847   4.865   0.730  16.131 -2.0310 -0.1286  1.1013
16144TIP3    H269848   4.842   0.591  16.074 -0.4078 -0.4886  1.2936
16145TIP3   OH269849   0.551   2.350  14.410  0.3865 -0.2775 -0.3493
16145TIP3    H169850   0.521   2.434  14.445  0.1394  0.1998 -1.6550
16145TIP3    H269851   0.620   2.322  14.469 -2.2794 -1.1712  2.4574
16146TIP3   OH269852   6.134   4.833   5.118 -0.2366  0.2284  0.5688
16146TIP3    H169853   6.219   4.864   5.147 -0.6512  0.6712  1.3264
16146TIP3    H269854   6.119   4.878   5.035  0.3983 -0.0772  0.2873
16147TIP3   OH269855   4.324   1.299   2.831 -0.3188 -0.1421 -0.4750
16147TIP3    H169856   4.419   1.300   2.818 -0.4287 -0.7933 -1.3826
16147TIP3    H269857   4.289   1.274   2.745 -1.1411 -3.3406  0.7486
16148TIP3   OH269858   5.274   1.057  16.084 -0.2651  0.3357  0.0699
16148TIP3    H169859   5.270   1.099  16.170 -1.2260  1.4719 -0.5152
16148TIP3    H269860   5.183   1.035  16.063  0.1775 -1.8140  0.2253
16149TIP3   OH269861   1.685   5.429   0.645 -0.3703  0.3098  0.1693
16149TIP3    H169862   1.745   5.504   0.643  0.5812 -0.4381  0.1309
16149TIP3    H269863   1.726   5.368   0.707 -0.9840 -0.3030 -0.0250
16150TIP3   OH269864   3.688   4.407   4.984  0.4438  0.1612 -0.7686
16150TIP3    H169865   3.694   4.311   4.990  1.2543  0.2323 -0.2925
16150TIP3    H269866   3.715   4.427   4.895  0.7043 -0.0303 -0.7364
16151TIP3   OH269867   3.713   1.237   2.647 -0.3534 -0.0089 -0.3552
16151TIP3    H169868   3.730   1.276   2.561 -0.5512 -0.9364 -0.8262
16151TIP3    H269869   3.724   1.143   2.633  0.9053 -0.0837  0.9384
16152TIP3   OH269870   1.872   5.103   6.575  0.0642  0.3579  0.0728
16152TIP3    H169871   1.910   5.141   6.654  0.2487  1.1422 -0.3847
16152TIP3    H269872   1.841   5.017   6.602 -0.6496  0.9606  1.2006
16153TIP3   OH269873   4.792   6.426   3.821  1.0186  0.5763  0.1291
16153TIP3    H169874   4.768   6.362   3.754 -1.0576  1.4531 -0.0236
16153TIP3    H269875   4.720   6.423   3.884  2.2447  0.8027  1.5604
16154TIP3   OH269876   2.155   4.235  10.745  0.4395 -0.0851  0.5756
16154TIP3    H169877   2.082   4.205  10.690  0.3393  0.3891  0.4463
16154TIP3    H269878   2.230   4.184  10.716 -0.0247 -1.1999  1.2964
16155TIP3   OH269879   4.530   2.868   0.672 -0.6823 -0.2762 -0.6083
16155TIP3    H169880   4.536   2.775   0.695  0.5810 -0.0644 -0.0733
16155TIP3    H269881   4.527   2.913   0.757 -0.7001  0.2056 -0.8664
16156TIP3   OH269882   0.664   5.766  17.125  0.0765  0.7407  0.4748
16156TIP3    H169883   0.672   5.723  17.211 -0.0596  0.0278  0.1387
16156TIP3    H269884   0.754   5.779  17.097  0.1211  0.8862  0.6848
16157TIP3   OH269885   1.843   3.175   5.155 -0.2338  0.4766 -0.0497
16157TIP3    H169886   1.850   3.265   5.186 -0.1039  0.5425 -0.2700
16157TIP3    H269887   1.927   3.157   5.115 -0.8409  0.8277 -1.5050
16158TIP3   OH269888   1.724   6.035   3.209 -0.0435 -0.6125  0.1911
16158TIP3    H169889   1.786   6.021   3.280  1.2856  1.4406 -0.5474
16158TIP3    H269890   1.776   6.068   3.137 -1.6931 -0.7411 -1.0967
16159TIP3   OH269891   3.940   6.524   3.612 -0.5570 -0.3721  0.5021
16159TIP3    H169892   3.920   6.480   3.529  1.2399  0.3612 -0.3410
16159TIP3    H269893   3.862   6.576   3.630 -0.9439 -0.4773 -0.7836
16160TIP3   OH269894   4.569   4.514   1.302 -0.4797  0.2532 -0.3672
16160TIP3    H169895   4.535   4.495   1.215  0.6821 -2.3296 -0.2946
16160TIP3    H269896   4.547   4.436   1.354  1.3333  0.5601  0.9061
16161TIP3   OH269897   4.189   5.527  16.828  0.4161 -0.4963  0.0171
16161TIP3    H169898   4.203   5.434  16.810  0.0768 -0.1475 -2.1148
16161TIP3    H269899   4.194   5.534  16.923 -1.0393 -2.9424  0.3002
16162TIP3   OH269900   0.951   0.752  15.629  0.4829  0.0426 -0.3706
16162TIP3    H169901   0.901   0.776  15.551 -1.1468 -1.3163  0.2405
16162TIP3    H269902   0.926   0.817  15.695 -0.1313 -0.3745 -0.1959
16163TIP3   OH269903   6.730   4.198  12.203  0.0233 -0.3452 -0.9557
16163TIP3    H169904   6.679   4.124  12.170 -1.5015  0.0126  0.5035
16163TIP3    H269905   6.687   4.222  12.285  1.8976  0.6891 -0.2399
16164TIP3   OH269906   2.088   5.785   2.091  0.0001  0.0395 -0.2569
16164TIP3    H169907   2.046   5.787   2.176 -1.1730  0.3694 -0.8360
16164TIP3    H269908   2.120   5.874   2.076  1.8041 -0.4355  0.6079
16165TIP3   OH269909   4.955   5.406   4.250  0.0558 -0.0925 -0.0351
16165TIP3    H169910   4.910   5.461   4.186 -0.7557 -0.6859  0.0142
16165TIP3    H269911   4.927   5.317   4.229  0.3836 -0.3687  0.6649
16166TIP3   OH269912   1.742   2.928   0.772 -0.6340 -0.4940  0.3701
16166TIP3    H169913   1.803   2.926   0.846 -0.7184 -2.0426  0.4234
16166TIP3    H269914   1.798   2.938   0.695 -0.0703 -4.0372  0.2350
16167TIP3   OH269915   4.306   4.093  16.795  0.1548 -0.1376 -0.3399
16167TIP3    H169916   4.231   4.049  16.757  1.7986 -1.0815 -2.5864
16167TIP3    H269917   4.323   4.167  16.736  1.6552 -0.5943 -0.5007
16168TIP3   OH269918   5.582   4.821   4.366 -0.5476 -0.2029 -0.5474
16168TIP3    H169919   5.591   4.896   4.424  0.3744 -0.9737  0.3398
16168TIP3    H269920   5.554   4.749   4.424  2.7570 -1.5896 -0.5600
16169TIP3   OH269921   4.594   1.761  14.245  0.2537 -0.0768  0.2448
16169TIP3    H169922   4.524   1.696  14.233 -0.4281  0.5084  1.0109
16169TIP3    H269923   4.601   1.805  14.160  0.9633 -1.3830 -0.3895
16170TIP3   OH269924   6.568   2.292   3.889 -0.1768 -0.2066  0.0867
16170TIP3    H169925   6.490   2.315   3.939  0.0113 -0.1609  0.3625
16170TIP3    H269926   6.536   2.274   3.801 -0.2769  1.5174 -0.2454
16171TIP3   OH269927   4.167   5.224   3.255 -0.3993 -0.1060 -0.6220
16171TIP3    H169928   4.208   5.139   3.274  1.1396  0.6810 -0.3120
16171TIP3    H269929   4.131   5.214   3.166  1.3142 -0.5284 -1.2905
16172TIP3   OH269930   0.118   2.129   3.518 -0.1309 -0.5308 -0.2696
16172TIP3    H169931   0.197   2.075   3.520  1.6133  1.9359  0.8132
16172TIP3    H269932   0.105   2.155   3.609 -0.6280  1.2549 -0.8274
16173TIP3   OH269933   6.304   5.604   0.991  0.1218  0.5321 -0.5323
16173TIP3    H169934   6.227   5.659   1.004  1.3066  1.9858  0.5012
16173TIP3    H269935   6.328   5.617   0.899 -0.1064  1.0690 -0.5122
16174TIP3   OH269936   5.264   1.731  14.797  0.1331  0.6533 -0.6689
16174TIP3    H169937   5.349   1.730  14.842  0.0102 -0.9457 -0.4616
16174TIP3    H269938   5.219   1.807  14.833  0.3152 -0.2103  1.4331
16175TIP3   OH269939   1.285   6.746  13.430  0.2936 -0.1253 -0.2580
16175TIP3    H169940   1.306   6.778  13.342 -2.1518 -1.2238 -1.2718
16175TIP3    H269941   1.371   6.727  13.469  1.4348  0.8590 -2.2153
16176TIP3   OH269942   3.797   4.733  15.722 -0.4468 -0.1129 -0.0335
16176TIP3    H169943   3.756   4.758  15.639  2.0951 -1.2988 -1.7163
16176TIP3    H269944   3.888   4.715  15.699  0.2946 -0.5567  3.0281
16177TIP3   OH269945   6.532   3.587  12.883  0.1515  0.3447 -0.5760
16177TIP3    H169946   6.551   3.584  12.977 -1.8551 -1.3100 -0.1842
16177TIP3    H269947   6.442   3.556  12.876  0.0673  1.0402 -3.0057
16178TIP3   OH269948   4.964   5.640  12.570 -0.1494 -0.0694  0.6565
16178TIP3    H169949   4.870   5.627  12.581 -0.3027  0.2230 -0.2462
16178TIP3    H269950   5.000   5.633  12.658 -1.1966  1.1449  1.2061
16179TIP3   OH269951   1.065   4.627  14.027  0.0142 -0.3122  0.0082
16179TIP3    H169952   1.118   4.578  14.090  0.0521 -0.8108 -0.4095
16179TIP3    H269953   1.003   4.563  13.993 -0.1263 -0.0010 -0.3262
16180TIP3   OH269954   3.198   2.416   1.846  0.2305 -0.0410  0.6213
16180TIP3    H169955   3.231   2.409   1.935  0.0379  0.3914  0.7278
16180TIP3    H269956   3.168   2.327   1.824  1.9614 -0.5549  0.3151
16181TIP3   OH269957   4.907   6.610  12.281 -0.2189  0.1890  0.2068
16181TIP3    H169958   4.849   6.549  12.326  1.3084 -1.9075 -0.5865
16181TIP3    H269959   4.966   6.642  12.349  1.4123 -2.1724 -0.0263
16182TIP3   OH269960   3.367   5.474   2.120  0.5167  0.2988  0.3373
16182TIP3    H169961   3.358   5.445   2.029  4.5192 -0.2950  0.0375
16182TIP3    H269962   3.298   5.428   2.167 -0.5765 -0.6570 -2.1152
16183TIP3   OH269963   2.606   4.658  15.387 -0.1543 -0.1501  1.1773
16183TIP3    H169964   2.516   4.675  15.359  0.5575 -0.3665 -1.3609
16183TIP3    H269965   2.607   4.681  15.480 -2.4341  1.3417  0.8730
16184TIP3   OH269966   4.210   3.870   2.599  0.3695 -0.1102  0.0889
16184TIP3    H169967   4.261   3.907   2.671 -1.9140  3.9845 -0.3081
16184TIP3    H269968   4.122   3.857   2.636 -0.6557  1.4367 -1.7649
16185TIP3   OH269969   6.068   1.612  11.424 -0.1102 -0.3974 -0.3179
16185TIP3    H169970   6.149   1.598  11.473  0.0247  0.5470 -0.2753
16185TIP3    H269971   6.096   1.631  11.335 -0.3471 -1.7259 -0.6953
16186TIP3   OH269972   2.361   5.457   1.559  0.2392 -0.2801  0.3048
16186TIP3    H169973   2.396   5.493   1.477 -2.4175  0.9678 -0.3232
16186TIP3    H269974   2.267   5.474   1.555 -0.2802 -2.3084  2.5786
16187TIP3   OH269975   3.625   1.160   6.460  0.2728  0.2364 -0.2008
16187TIP3    H169976   3.575   1.241   6.450 -1.3767 -0.8764 -1.1666
16187TIP3    H269977   3.563   1.090   6.438  1.4155 -1.3578  1.4734
16188TIP3   OH269978   1.920   4.012  15.716 -0.1906 -0.1650 -0.6561
16188TIP3    H169979   1.886   3.973  15.636  0.8354  0.5690 -1.4627
16188TIP3    H269980   1.965   3.940  15.760  1.1523 -0.0755 -1.8313
16189TIP3   OH269981   0.395   1.713  12.594 -0.2702  0.3401 -0.1370
16189TIP3    H169982   0.342   1.779  12.549  0.0009 -0.1818 -1.2419
16189TIP3    H269983   0.453   1.764  12.651 -0.6605  1.0139 -0.3306
16190TIP3   OH269984   0.949   5.288   6.744 -0.1121  0.0425  0.7293
16190TIP3    H169985   0.924   5.334   6.664 -0.2992 -0.0076  0.7603
16190TIP3    H269986   0.925   5.347   6.815  2.5599  1.3163  0.6616
16191TIP3   OH269987   6.567   2.553  16.324  0.3809 -0.2498  0.3196
16191TIP3    H169988   6.506   2.502  16.270  0.7938  0.0822 -0.4584
16191TIP3    H269989   6.648   2.502  16.324  0.4845 -0.0858  0.3635
16192TIP3   OH269990   0.461   6.355   3.664 -1.1408  0.1312 -0.4889
16192TIP3    H169991   0.368   6.369   3.683 -1.2032 -0.0998 -0.6218
16192TIP3    H269992   0.496   6.311   3.741 -1.4851 -1.1842 -1.0646
16193TIP3   OH269993   3.483   2.001  17.044 -0.4233 -0.3258 -0.1855
16193TIP3    H169994   3.495   1.944  16.968  0.5033  0.8057 -0.9187
16193TIP3    H269995   3.388   2.013  17.050 -0.5495 -1.0260 -0.7079
16194TIP3   OH269996   5.035   0.461  12.886 -0.3845  0.0520  0.2583
16194TIP3    H169997   4.960   0.504  12.846 -1.6512 -0.3328  2.1843
16194TIP3    H269998   5.062   0.396  12.821 -2.2329 -0.3760 -0.0994
16195TIP3   OH269999   0.461   0.876  12.168 -0.2031  0.3872 -0.3323
16195TIP3    H170000   0.442   0.928  12.245 -0.9935 -1.0723  0.4669
16195TIP3    H270001   0.403   0.911  12.100 -1.6338 -0.2751  0.5402
16196TIP3   OH270002   0.959   1.398  13.965 -0.6478  0.0195 -0.3590
16196TIP3    H170003   0.989   1.381  13.876  0.8653 -3.4129  0.7452
16196TIP3    H270004   0.875   1.354  13.972 -0.1167 -0.8969  0.3222
16197TIP3   OH270005   5.082   2.376   2.861  0.9186 -0.3647 -0.1092
16197TIP3    H170006   4.991   2.404   2.872  1.1911  0.9031 -0.9769
16197TIP3    H270007   5.132   2.457   2.857  2.2732 -1.0817  1.8074
16198TIP3   OH270008   1.475   2.807  11.130 -0.0775  0.3492 -0.8773
16198TIP3    H170009   1.499   2.851  11.048  2.3035 -0.5133 -0.6926
16198TIP3    H270010   1.537   2.734  11.137 -0.7588 -0.0600  1.3055
16199TIP3   OH270011   1.660   2.674  15.788 -0.0291 -0.6709  0.1953
16199TIP3    H170012   1.736   2.723  15.819 -0.2363 -0.5881  0.5647
16199TIP3    H270013   1.644   2.708  15.700  0.0568 -0.3384  0.3101
16200TIP3   OH270014   0.279   0.847  12.635  0.0149 -0.1692  0.0482
16200TIP3    H170015   0.216   0.900  12.683 -0.3011 -0.7955  0.3381
16200TIP3    H270016   0.313   0.905  12.566 -0.1959  0.4476  0.4670
16201TIP3   OH270017   0.721   2.573  13.317  0.2271  0.1624 -0.4805
16201TIP3    H170018   0.810   2.608  13.311  0.4381 -0.0425  1.3920
16201TIP3    H270019   0.666   2.650  13.334  0.0099  0.2978 -1.6971
16202TIP3   OH270020   5.173   6.514   3.566 -0.5810  0.4756  0.1072
16202TIP3    H170021   5.196   6.538   3.656  0.8108 -1.1383  0.2127
16202TIP3    H270022   5.240   6.451   3.541 -0.9691  0.9110 -2.0743
16203TIP3   OH270023   0.489   6.234  16.837 -0.2574  0.6680 -0.2578
16203TIP3    H170024   0.403   6.246  16.798 -0.3670  0.1207 -0.1898
16203TIP3    H270025   0.494   6.140  16.855 -1.0286  1.2098  2.9636
16204TIP3   OH270026   1.765   6.453   3.167  0.1596 -0.0168  0.3500
16204TIP3    H170027   1.710   6.531   3.169 -0.3243 -0.3584  0.7271
16204TIP3    H270028   1.853   6.485   3.147 -0.2957  0.4626 -0.9042
16205TIP3   OH270029   3.882   1.469  12.951  0.0676  0.5705 -0.0168
16205TIP3    H170030   3.811   1.424  12.905  0.3201 -0.2719  0.4170
16205TIP3    H270031   3.956   1.409  12.946  0.9506  1.7146 -1.0253
16206TIP3   OH270032   0.986   3.615   4.375  0.1100 -0.3118 -0.2967
16206TIP3    H170033   1.030   3.558   4.439 -1.6566 -0.2405  1.0424
16206TIP3    H270034   0.928   3.556   4.328 -0.7908  0.1419  0.2280
16207TIP3   OH270035   2.127   4.256  12.048  0.1089 -0.6279 -0.0799
16207TIP3    H170036   2.180   4.324  12.006  0.0791 -0.2850  0.4353
16207TIP3    H270037   2.040   4.295  12.054 -0.5694 -1.7521 -2.2833
16208TIP3   OH270038   6.322   0.915  11.821  0.0515  0.4099 -0.1061
16208TIP3    H170039   6.337   0.834  11.772  0.9853  0.1338  0.6360
16208TIP3    H270040   6.232   0.907  11.853  1.1058 -1.7030  2.5061
16209TIP3   OH270041   6.201   5.624  15.462 -0.3765  0.4661 -0.2522
16209TIP3    H170042   6.128   5.573  15.426  0.4686  1.2281 -3.1639
16209TIP3    H270043   6.169   5.715  15.460 -0.5570  0.4607  1.5924
16210TIP3   OH270044   0.093   2.572  11.785  0.8799 -0.1556 -0.0334
16210TIP3    H170045   0.148   2.592  11.709  0.5747 -1.1169 -0.5179
16210TIP3    H270046   0.007   2.608  11.762  0.2319 -2.2551 -1.0670
16211TIP3   OH270047   6.004   0.704   1.623 -0.3294  0.4543 -0.3920
16211TIP3    H170048   5.912   0.711   1.648 -0.0954 -0.0137  0.5994
16211TIP3    H270049   6.053   0.739   1.698  0.4117 -1.9486  0.2950
16212TIP3   OH270050   2.493   4.852   0.764  0.0922  1.0751 -0.1485
16212TIP3    H170051   2.488   4.760   0.739 -0.7322  0.6236  1.6009
16212TIP3    H270052   2.404   4.875   0.790  0.4184  2.1918  0.0001
16213TIP3   OH270053   2.313   1.413   1.185  0.0564 -0.0293  0.5608
16213TIP3    H170054   2.283   1.331   1.147 -0.8922  0.7026 -0.2996
16213TIP3    H270055   2.408   1.414   1.169  0.0982 -1.0042  0.6969
16214TIP3   OH270056   3.410   5.857   0.332 -0.1656  0.2605 -0.1595
16214TIP3    H170057   3.362   5.911   0.269 -0.9956 -0.9417 -0.5992
16214TIP3    H270058   3.366   5.771   0.327  0.7267 -0.2710  0.9543
16215TIP3   OH270059   2.124   4.349   4.726  0.3371  0.2125 -0.0995
16215TIP3    H170060   2.114   4.417   4.658 -0.3903 -1.0924 -1.3179
16215TIP3    H270061   2.097   4.392   4.807  0.8164  1.6773 -0.6960
16216TIP3   OH270062   2.319   0.430  13.642 -0.3235 -0.3107 -0.5864
16216TIP3    H170063   2.397   0.384  13.673  0.4560  1.2715 -0.1503
16216TIP3    H270064   2.262   0.433  13.719  0.3689  0.9759 -0.0943
16217TIP3   OH270065   2.801   1.417  12.307 -0.3682  0.1899 -0.4629
16217TIP3    H170066   2.755   1.336  12.329  0.6506 -0.4676 -0.7226
16217TIP3    H270067   2.892   1.401  12.333  0.0058  0.9263 -1.2927
16218TIP3   OH270068   0.426   0.515   0.756  0.4675 -0.0663 -0.2872
16218TIP3    H170069   0.415   0.492   0.848  2.1555  1.6294  0.3525
16218TIP3    H270070   0.338   0.539   0.726 -0.1000 -0.7232  0.8328
16219TIP3   OH270071   1.916   1.141  16.332 -0.0971 -0.1525  0.4984
16219TIP3    H170072   1.857   1.115  16.402 -0.4927 -0.1802  0.1583
16219TIP3    H270073   1.999   1.098  16.353 -0.5929 -1.2757  0.2241
16220TIP3   OH270074   3.205   5.855  15.293  0.1636 -0.3065  0.7702
16220TIP3    H170075   3.261   5.881  15.219  1.3592 -0.2321  1.6807
16220TIP3    H270076   3.200   5.760  15.286 -1.1970 -0.1500 -0.4408
16221TIP3   OH270077   4.265   0.040  13.526 -1.1313  0.2062 -0.1056
16221TIP3    H170078   4.224  -0.040  13.495 -1.0155  0.2297 -0.3237
16221TIP3    H270079   4.195   0.105  13.527 -1.0181  0.3456 -0.8476
16222TIP3   OH270080   3.841   5.898  17.148  0.3099  0.1862  0.0083
16222TIP3    H170081   3.886   5.881  17.231 -3.0639  2.1329  2.3942
16222TIP3    H270082   3.757   5.853  17.158 -0.9415  2.1434 -1.5015
16223TIP3   OH270083   6.167   5.503   1.903 -0.0091  0.7209 -0.8086
16223TIP3    H170084   6.085   5.494   1.855  0.3468  0.3445 -1.3651
16223TIP3    H270085   6.207   5.582   1.867 -0.8910  1.8429  0.6408
16224TIP3   OH270086   1.951   3.168   0.266  0.1735 -0.3723 -0.1510
16224TIP3    H170087   1.944   3.259   0.293  2.5729 -0.2077 -0.0346
16224TIP3    H270088   1.904   3.164   0.183 -0.8259  0.7170  0.3423
16225TIP3   OH270089   0.425   5.266   4.381  0.2690 -0.2144  0.7354
16225TIP3    H170090   0.472   5.342   4.346  2.4811 -2.5210 -1.5736
16225TIP3    H270091   0.472   5.243   4.461  0.3477  0.0849  0.7768
16226TIP3   OH270092   3.383   5.905  16.390  0.0174 -0.1937  0.4337
16226TIP3    H170093   3.347   5.990  16.367 -1.0321 -0.6770  0.2564
16226TIP3    H270094   3.327   5.874  16.462 -0.9350 -1.6427 -0.8954
16227TIP3   OH270095   0.005   3.102  15.540 -0.2099  0.1249  0.0003
16227TIP3    H170096  -0.079   3.069  15.509 -0.1424 -0.8455  0.8554
16227TIP3    H270097  -0.007   3.115  15.634  0.9230 -1.0555  0.3175
16228TIP3   OH270098   0.117   6.769   0.295  0.8747 -0.4466  0.1075
16228TIP3    H170099   0.178   6.738   0.227  2.7435  0.8801  1.1059
16228TIP3    H270100   0.153   6.855   0.320 -1.5577  0.4616  0.5867
16229TIP3   OH270101   4.950   4.474   0.171 -0.4509 -0.5326 -0.3611
16229TIP3    H170102   4.894   4.524   0.112 -1.6326 -0.6309  0.6701
16229TIP3    H270103   4.989   4.407   0.115 -0.8201 -0.0428 -1.2257
16230TIP3   OH270104   3.103   0.889   2.204  0.1845 -0.2537  0.3044
16230TIP3    H170105   3.124   0.983   2.198  0.9211 -0.4857 -0.9397
16230TIP3    H270106   3.131   0.864   2.292  0.5804  0.5487  0.4136
16231TIP3   OH270107   2.538   5.260  14.543  0.3301  0.3869 -0.2250
16231TIP3    H170108   2.468   5.319  14.571 -0.0123 -0.8392  1.6592
16231TIP3    H270109   2.596   5.314  14.491 -0.1587  2.3156  1.1612
16232TIP3   OH270110   1.124   1.896  15.369 -0.1865  0.1722 -0.4865
16232TIP3    H170111   1.176   1.816  15.372 -1.3636 -0.5803  0.0288
16232TIP3    H270112   1.176   1.956  15.315  0.8955 -0.7857 -0.5361
16233TIP3   OH270113   1.452   4.265  15.213 -0.1428  0.2644  0.1012
16233TIP3    H170114   1.384   4.234  15.272 -0.1976  0.4511  0.1377
16233TIP3    H270115   1.501   4.330  15.265  0.9939 -0.9497  0.5628
16234TIP3   OH270116   5.013   1.615   4.944 -0.2045 -0.5072 -0.2185
16234TIP3    H170117   4.930   1.609   4.897  0.0166 -0.9114 -0.5589
16234TIP3    H270118   5.034   1.709   4.944 -0.7229 -0.3892 -0.0165
16235TIP3   OH270119   4.681   4.060   3.208  0.5389 -0.1775 -0.3687
16235TIP3    H170120   4.632   4.082   3.287  1.0787  0.8629 -0.3167
16235TIP3    H270121   4.715   4.143   3.176  2.7497 -0.9259 -0.0910
16236TIP3   OH270122   5.905   6.781  12.827 -0.7412  0.1257  0.5287
16236TIP3    H170123   5.989   6.744  12.855 -0.3836  1.1869  0.8938
16236TIP3    H270124   5.847   6.768  12.902 -0.1112  1.9103  1.3477
16237TIP3   OH270125   3.088   5.326  12.542  0.3251  0.9688 -0.0209
16237TIP3    H170126   3.010   5.311  12.596  0.5678  0.1268  0.0961
16237TIP3    H270127   3.161   5.319  12.604  0.5348  1.1622 -0.2463
16238TIP3   OH270128   5.144   5.203  15.582 -0.3331 -0.3555  0.5350
16238TIP3    H170129   5.125   5.170  15.670 -0.8228 -1.4699  0.0220
16238TIP3    H270130   5.103   5.139  15.523  0.5074  0.0487 -0.5108
16239TIP3   OH270131   3.669   0.750   4.552 -0.7298  0.4720 -0.0673
16239TIP3    H170132   3.714   0.810   4.492 -0.9440 -0.5156 -1.2344
16239TIP3    H270133   3.729   0.741   4.626  0.1671  0.6128 -0.7701
16240TIP3   OH270134   6.535   6.466   3.747 -0.0864 -0.0139 -0.1888
16240TIP3    H170135   6.515   6.385   3.700 -1.1434  1.4606 -2.3942
16240TIP3    H270136   6.450   6.506   3.765  0.3194 -0.3371  2.7162
16241TIP3   OH270137   1.905   2.149   1.268  0.4337  0.0044 -0.0063
16241TIP3    H170138   1.937   2.062   1.246  0.9856  0.4981 -1.2503
16241TIP3    H270139   1.922   2.159   1.362 -0.7907 -1.6871  0.4035
16242TIP3   OH270140   4.076   2.856  17.223  0.4120 -0.2371  0.1109
16242TIP3    H170141   4.044   2.877  17.311 -1.5503  1.5554 -0.9726
16242TIP3    H270142   4.023   2.782  17.195  1.5158 -1.2572  0.6854
16243TIP3   OH270143   6.110   2.238  11.001  0.3419 -0.6515  0.3518
16243TIP3    H170144   6.100   2.144  10.988 -1.6874 -0.3067 -0.7307
16243TIP3    H270145   6.167   2.267  10.930  1.3679 -1.1264  0.9716
16244TIP3   OH270146   2.309   5.471  16.992 -0.0188 -0.6927  0.2736
16244TIP3    H170147   2.233   5.529  16.997  0.7939  0.3125  1.1357
16244TIP3    H270148   2.340   5.464  17.082  1.3239 -0.5480 -0.1739
16245TIP3   OH270149   1.621   4.689   0.348 -0.2513  0.0012 -0.0442
16245TIP3    H170150   1.609   4.748   0.423  2.4438 -2.5261  2.5070
16245TIP3    H270151   1.697   4.723   0.302  2.6350 -2.4445  2.6293
16246TIP3   OH270152   2.132   0.879   1.311 -0.3194 -0.0972  0.0382
16246TIP3    H170153   2.072   0.862   1.239  1.4148 -2.1318 -1.0042
16246TIP3    H270154   2.110   0.814   1.378  0.3740 -0.5270 -0.1426
16247TIP3   OH270155   1.056   4.652  16.298  0.1649  0.3503 -0.3898
16247TIP3    H170156   1.111   4.660  16.376 -1.2690 -2.0758  0.9273
16247TIP3    H270157   1.114   4.614  16.232  0.2847 -1.5242  0.7709
16248TIP3   OH270158   3.111   3.269   5.601 -0.2158  0.3717  0.0478
16248TIP3    H170159   3.069   3.216   5.533 -1.8489  1.0297  0.5099
16248TIP3    H270160   3.132   3.352   5.558  0.3912  0.1261 -0.1246
16249TIP3   OH270161   2.699   0.557  12.549 -0.2883 -0.4311 -0.0474
16249TIP3    H170162   2.776   0.550  12.493  0.1235  0.5944  0.3720
16249TIP3    H270163   2.648   0.628  12.512 -0.1515  0.0697  0.7014
16250TIP3   OH270164   2.539   4.727  12.552  0.3370  0.1522 -0.1004
16250TIP3    H170165   2.534   4.652  12.611 -0.5814  2.1740  2.4618
16250TIP3    H270166   2.458   4.723  12.500 -0.2420 -0.0267  0.8054
16251TIP3   OH270167   4.962   4.005  15.608  0.2944 -0.2343 -0.3008
16251TIP3    H170168   4.978   3.928  15.553 -1.7078 -1.8445  1.3081
16251TIP3    H270169   5.032   4.003  15.673 -0.1499 -1.1247  0.1620
16252TIP3   OH270170   2.616   5.154   0.976 -0.4328  0.2347 -0.2086
16252TIP3    H170171   2.605   5.234   0.925 -1.2409  0.8452  0.8912
16252TIP3    H270172   2.650   5.184   1.061 -1.9897 -0.4178  0.6756
16253TIP3   OH270173   6.229   5.303  16.216 -0.2208  0.5340 -0.6724
16253TIP3    H170174   6.270   5.386  16.190 -0.7298  0.7024 -0.9449
16253TIP3    H270175   6.302   5.242  16.227  0.0517  0.6368 -1.8437
16254TIP3   OH270176   3.465   5.725  14.204 -0.1424  0.2912  0.4232
16254TIP3    H170177   3.480   5.815  14.172  1.5646 -0.9887 -2.5860
16254TIP3    H270178   3.394   5.692  14.150 -1.1582 -0.0277  1.9171
16255TIP3   OH270179   3.835   2.322  10.778 -0.1405  0.0554 -0.2400
16255TIP3    H170180   3.743   2.322  10.804 -0.0559 -0.8386  0.0847
16255TIP3    H270181   3.837   2.367  10.694 -0.8927 -0.0355 -0.3075
16256TIP3   OH270182   5.273   6.635   2.247  0.2237  0.4694  0.1418
16256TIP3    H170183   5.252   6.659   2.337  0.5592  2.4977 -0.2957
16256TIP3    H270184   5.330   6.558   2.255 -1.4302 -0.6691  1.5695
16257TIP3   OH270185   1.883   2.041   5.261 -0.5025  0.0533 -0.3075
16257TIP3    H170186   1.938   2.024   5.184 -0.0989  1.8863 -0.4547
16257TIP3    H270187   1.800   1.997   5.242  1.4242 -4.1859  0.6368
16258TIP3   OH270188   5.216   0.061   3.686  0.0013 -0.3562 -0.0762
16258TIP3    H170189   5.198   0.150   3.655 -0.5785 -0.1778  0.7614
16258TIP3    H270190   5.142   0.009   3.654 -0.4410 -0.2323  0.7407
16259TIP3   OH270191   2.069   2.638   0.530  0.5349  0.0926 -0.5307
16259TIP3    H170192   2.123   2.663   0.454  0.2736 -0.6564 -0.9624
16259TIP3    H270193   1.979   2.654   0.501  0.4927  0.9523  0.0488
16260TIP3   OH270194   0.708   3.141  15.386  0.2740  0.2662  0.4653
16260TIP3    H170195   0.643   3.104  15.447 -1.0860 -1.5849 -2.0297
16260TIP3    H270196   0.780   3.077  15.387 -1.1118 -1.3969 -2.1718
16261TIP3   OH270197   3.467   2.257  11.881 -0.1432 -0.3302 -0.4217
16261TIP3    H170198   3.493   2.194  11.948  1.1667  1.8011  1.1247
16261TIP3    H270199   3.535   2.251  11.815  0.8117  0.5330  0.4642
16262TIP3   OH270200   4.777   2.534   3.636  0.4477  0.0866 -0.2238
16262TIP3    H170201   4.788   2.537   3.541  0.4231  0.3127 -0.2196
16262TIP3    H270202   4.702   2.591   3.653 -0.6787 -1.3599 -0.2386
16263TIP3   OH270203   5.372   1.247  14.693 -0.8743  0.4919 -0.2238
16263TIP3    H170204   5.280   1.220  14.685 -0.5836 -0.5897 -0.0815
16263TIP3    H270205   5.421   1.167  14.676 -0.0036  0.7003  1.2472
16264TIP3   OH270206   6.124   6.763   3.530  0.3480  0.0179 -0.1265
16264TIP3    H170207   6.132   6.825   3.603 -1.1673 -0.0766  0.1403
16264TIP3    H270208   6.170   6.684   3.560  1.6774  0.7446 -0.1911
16265TIP3   OH270209   5.509   0.404   2.726  0.2490 -0.0231  0.0346
16265TIP3    H170210   5.537   0.341   2.660  2.3964 -1.2202  2.0262
16265TIP3    H270211   5.590   0.442   2.759 -0.9266  2.5333  0.1326
16266TIP3   OH270212   0.438   5.591   4.033  0.3499 -0.2481 -0.9002
16266TIP3    H170213   0.387   5.586   4.114 -0.6466  0.8976 -1.4438
16266TIP3    H270214   0.527   5.568   4.060  0.0107  0.0016  0.5059
16267TIP3   OH270215   6.361   2.895   3.085 -0.4293 -0.0854  0.1853
16267TIP3    H170216   6.268   2.900   3.105 -0.5871  0.7414 -0.6867
16267TIP3    H270217   6.373   2.955   3.011  0.7932 -0.1815  0.2861
16268TIP3   OH270218   6.787   3.239  11.883 -0.0592 -0.3304 -0.2606
16268TIP3    H170219   6.788   3.286  11.799  0.2267 -1.9790 -1.2135
16268TIP3    H270220   6.877   3.210  11.895 -0.3571 -1.1565  0.0051
16269TIP3   OH270221   6.556   0.765   4.061  0.0260  0.6036  0.2813
16269TIP3    H170222   6.498   0.764   4.138 -0.2155  0.9421  0.1024
16269TIP3    H270223   6.528   0.690   4.009  1.9754 -1.2684  1.8418
16270TIP3   OH270224   2.906   1.835  11.764  0.3141 -0.0224 -0.1403
16270TIP3    H170225   2.964   1.760  11.755  0.2338 -0.0434 -0.5063
16270TIP3    H270226   2.819   1.797  11.779  0.3683  0.0073  0.2605
16271TIP3   OH270227   0.559   2.038  13.056 -0.2150 -0.8146  0.8364
16271TIP3    H170228   0.607   1.955  13.060 -1.1852 -1.4881 -0.7558
16271TIP3    H270229   0.618   2.098  13.011  1.6571  0.2640  4.4932
16272TIP3   OH270230   5.710   3.773   1.368  0.1922 -0.3831  0.3501
16272TIP3    H170231   5.713   3.679   1.386  0.6281  0.0373  2.6420
16272TIP3    H270232   5.695   3.813   1.454 -0.7010  1.6002 -0.7109
16273TIP3   OH270233   6.238   2.607  12.595 -0.3510  0.1396  0.1168
16273TIP3    H170234   6.275   2.676  12.651  0.9537 -0.3469 -0.1420
16273TIP3    H270235   6.183   2.655  12.533  0.2250  0.9124  0.1896
16274TIP3   OH270236   3.667   4.236  15.224  0.2989  0.1775  0.4124
16274TIP3    H170237   3.686   4.239  15.318 -0.0339  0.2275  0.4791
16274TIP3    H270238   3.752   4.242  15.182  0.4682 -0.0901  0.7181
16275TIP3   OH270239   3.318   4.563  15.021  0.2475 -0.0778 -0.3197
16275TIP3    H170240   3.313   4.647  15.066 -0.7704 -0.2327 -0.1338
16275TIP3    H270241   3.327   4.586  14.928 -0.9585  0.2428 -0.3610
16276TIP3   OH270242   4.321   3.936   1.635 -0.9482  0.3527  0.1368
16276TIP3    H170243   4.332   3.857   1.688 -0.1178 -0.1589 -0.7697
16276TIP3    H270244   4.393   3.993   1.663  0.9961 -0.9038 -2.1317
16277TIP3   OH270245   1.942   0.561  14.685 -0.2913  0.0426  0.2682
16277TIP3    H170246   2.029   0.577  14.649 -0.0754  0.4378  0.9683
16277TIP3    H270247   1.939   0.467  14.700  0.0876  0.0557  0.4294
16278TIP3   OH270248   3.824   3.202   0.446 -0.3000 -0.1520  0.0653
16278TIP3    H170249   3.783   3.117   0.461  1.4606 -0.8467  1.1175
16278TIP3    H270250   3.799   3.255   0.521 -0.8854  0.0656 -0.2804
16279TIP3   OH270251   2.659   3.469   3.946 -0.4157  0.1608  0.7069
16279TIP3    H170252   2.664   3.398   4.010  1.6622  0.3072  0.7458
16279TIP3    H270253   2.703   3.543   3.989  1.1082  0.2277 -0.8869
16280TIP3   OH270254   3.930   3.346  15.011 -0.0058  0.3011  0.2482
16280TIP3    H170255   3.884   3.411  14.957 -0.6971  1.2253  1.9262
16280TIP3    H270256   3.861   3.294  15.050  0.5732 -2.6334 -2.4403
16281TIP3   OH270257   5.878   6.089   1.562  0.3817 -0.1137 -0.0028
16281TIP3    H170258   5.811   6.048   1.617  0.9989  0.9057  1.5518
16281TIP3    H270259   5.960   6.050   1.592  0.8450  1.3620  0.6692
16282TIP3   OH270260   1.947   5.710   1.824 -0.4161 -0.3666  0.2179
16282TIP3    H170261   2.009   5.671   1.886  0.3296 -1.1107 -0.9759
16282TIP3    H270262   1.996   5.780   1.781 -0.4424 -0.8358 -0.5989
16283TIP3   OH270263   1.008   2.324  10.429  0.8362  0.4214  0.4230
16283TIP3    H170264   0.917   2.353  10.437  0.1216 -1.9600  1.4094
16283TIP3    H270265   1.006   2.232  10.455  3.5404  0.3321  0.4554
16284TIP3   OH270266   1.404   2.206   4.377 -0.5451  0.2020  0.5022
16284TIP3    H170267   1.410   2.122   4.422 -2.2912 -0.3856 -0.3332
16284TIP3    H270268   1.458   2.196   4.299  2.0746  1.0509  2.1568
16285TIP3   OH270269   6.445   4.847   0.168 -0.4721  0.1234  0.2898
16285TIP3    H170270   6.519   4.855   0.227 -1.4035  1.9288  1.2709
16285TIP3    H270271   6.479   4.799   0.092  1.9960  1.9844  0.1731
16286TIP3   OH270272   6.479   6.009   2.779 -0.0077  0.5011  0.0727
16286TIP3    H170273   6.502   5.960   2.700  0.7913  1.5423 -0.3621
16286TIP3    H270274   6.547   5.985   2.843 -0.7076 -0.4159  0.4842
16287TIP3   OH270275   1.640   3.440  12.060  0.1187  0.3938  0.3107
16287TIP3    H170276   1.717   3.497  12.057 -0.0388  0.5977  0.1639
16287TIP3    H270277   1.675   3.355  12.087  0.7852 -0.2004 -2.2866
16288TIP3   OH270278   4.578   1.405   5.550  0.3410  0.0879 -0.2890
16288TIP3    H170279   4.628   1.334   5.510 -0.0357  0.2177 -0.9967
16288TIP3    H270280   4.633   1.483   5.538 -0.1486  0.2774 -1.2979
16289TIP3   OH270281   4.355   5.704  12.092 -0.0154  0.0387 -0.0022
16289TIP3    H170282   4.430   5.718  12.035  0.7943 -1.1359  0.7350
16289TIP3    H270283   4.318   5.791  12.107  0.1829  0.4240 -1.7260
16290TIP3   OH270284   1.213   6.102  13.234  0.2455 -0.0602  0.0317
16290TIP3    H170285   1.302   6.108  13.199  0.1992  0.8015  0.0549
16290TIP3    H270286   1.212   6.163  13.308  0.2166 -1.5250  1.2900
16291TIP3   OH270287   1.894   3.592   5.546  0.2048 -0.0784  0.2781
16291TIP3    H170288   1.803   3.606   5.521  0.2132  1.3837  1.0253
16291TIP3    H270289   1.924   3.678   5.577  1.4875 -0.8315  1.1501
16292TIP3   OH270290   0.817   3.570  15.180 -0.2657 -0.4969 -0.0976
16292TIP3    H170291   0.845   3.625  15.253  0.0287 -2.7217  1.5122
16292TIP3    H270292   0.734   3.608  15.152  0.9665  2.0438 -0.4545
16293TIP3   OH270293   3.105   0.328  13.788  0.7342  0.4341  0.0651
16293TIP3    H170294   3.106   0.354  13.881  0.8309  0.3174  0.0969
16293TIP3    H270295   3.096   0.410  13.741  0.9561  0.5210  0.1696
16294TIP3   OH270296   3.416   1.598  11.073 -0.1203  0.4108  0.0423
16294TIP3    H170297   3.377   1.685  11.065 -0.6805  0.0635 -1.2050
16294TIP3    H270298   3.477   1.593  11.000 -0.4851 -0.4319 -0.2130
16295TIP3   OH270299   4.293   6.782   1.598 -0.0797  0.4201 -0.1270
16295TIP3    H170300   4.347   6.856   1.626 -2.0445  1.0694  2.0705
16295TIP3    H270301   4.258   6.746   1.680 -0.3838 -1.9935 -1.2875
16296TIP3   OH270302   2.697   1.219  14.962 -0.0935  0.6509 -0.2665
16296TIP3    H170303   2.783   1.198  14.999  0.5542  0.4905 -1.8296
16296TIP3    H270304   2.695   1.174  14.878 -2.1269 -0.1633  0.1993
16297TIP3   OH270305   5.172   0.449   0.512  0.6108  0.6741  0.4556
16297TIP3    H170306   5.175   0.414   0.423  0.9240  0.7193  0.4501
16297TIP3    H270307   5.103   0.516   0.508  1.3640  1.4426 -0.0328
16298TIP3   OH270308   5.192   0.245  13.584 -0.9860 -0.1371  0.3838
16298TIP3    H170309   5.216   0.286  13.666 -1.8118  1.6886 -0.2565
16298TIP3    H270310   5.172   0.154  13.607  3.0857 -0.8529  1.4494
16299TIP3   OH270311   5.389   0.239  15.314 -0.7035  0.0055 -0.0830
16299TIP3    H170312   5.414   0.168  15.255  2.2961  2.2268 -1.6067
16299TIP3    H270313   5.447   0.229  15.390 -2.0251 -0.6477  0.8636
16300TIP3   OH270314   3.862   1.756  13.947 -0.2331 -0.0826 -0.1373
16300TIP3    H170315   3.801   1.688  13.977  1.9597 -0.9800  2.4572
16300TIP3    H270316   3.918   1.711  13.884  0.7296 -0.5326  1.0133
16301TIP3   OH270317   4.750   3.501   3.797 -0.3811 -0.0190  0.6125
16301TIP3    H170318   4.707   3.435   3.743 -0.5305 -0.0533  0.7761
16301TIP3    H270319   4.768   3.573   3.736  0.8402 -0.6747  0.1599
16302TIP3   OH270320   1.087   0.893  11.883 -0.6489 -0.3801  0.0175
16302TIP3    H170321   1.072   0.976  11.839  0.2917 -0.0873  0.2539
16302TIP3    H270322   1.181   0.889  11.898 -0.4105 -2.3933 -1.7711
16303TIP3   OH270323   2.358   6.672  11.541 -0.7372 -0.5743 -0.2127
16303TIP3    H170324   2.312   6.593  11.569 -2.1312  0.4656  0.5309
16303TIP3    H270325   2.296   6.716  11.482  0.3360 -0.4213 -1.2470
16304TIP3   OH270326   0.689   1.354  16.314 -0.0088  0.2709  0.1320
16304TIP3    H170327   0.602   1.361  16.276 -0.1438 -0.9496  0.2112
16304TIP3    H270328   0.744   1.320  16.243  0.2885  0.5102  0.2434
16305TIP3   OH270329   0.654   5.169   1.317 -0.1183 -0.4462 -0.5642
16305TIP3    H170330   0.664   5.183   1.223  0.8986 -1.0298 -0.5508
16305TIP3    H270331   0.724   5.107   1.340  0.1201  0.2830  0.7184
16306TIP3   OH270332   3.409   6.114   5.879  0.0523 -0.4200  0.3326
16306TIP3    H170333   3.419   6.027   5.916 -1.2886 -1.1868 -1.0691
16306TIP3    H270334   3.446   6.107   5.791  1.0313  0.7501  0.6284
16307TIP3   OH270335   0.478   6.369   2.329 -0.3540  0.3602 -0.2906
16307TIP3    H170336   0.515   6.442   2.379  0.6817 -0.2617 -0.1282
16307TIP3    H270337   0.552   6.309   2.316 -1.0178 -0.2995 -1.0763
16308TIP3   OH270338   1.088   2.277  11.940  0.4748  0.0787 -0.3660
16308TIP3    H170339   1.108   2.298  11.849 -0.5185  0.2029 -0.5615
16308TIP3    H270340   1.015   2.216  11.935  0.1627  0.3861  0.3586
16309TIP3   OH270341   3.414   2.270   3.828  0.6461 -0.1703  0.1575
16309TIP3    H170342   3.357   2.216   3.773 -0.7301  0.4800  0.9098
16309TIP3    H270343   3.436   2.214   3.903 -0.9843  0.3638  1.0628
16310TIP3   OH270344   4.088   3.578  16.908 -0.3544  0.2177 -0.1245
16310TIP3    H170345   4.045   3.624  16.980 -1.3921  0.9434 -1.1807
16310TIP3    H270346   4.060   3.625  16.829  2.0166  0.3971 -0.8997
16311TIP3   OH270347   4.791   3.760   5.427 -0.1771 -0.4236 -0.4058
16311TIP3    H170348   4.864   3.708   5.392 -0.6602  0.2203 -2.4008
16311TIP3    H270349   4.833   3.841   5.458  0.2158 -0.8949  0.3258
16312TIP3   OH270350   6.581   0.875  14.524 -0.0841  0.3515  0.2113
16312TIP3    H170351   6.537   0.789  14.524  0.7103 -0.0685  1.5250
16312TIP3    H270352   6.629   0.877  14.441 -1.7125  0.3699 -0.7439
16313TIP3   OH270353   1.465   0.004  16.987 -1.1113  0.2223  0.9576
16313TIP3    H170354   1.451  -0.021  16.896 -0.6307 -1.4372  1.3178
16313TIP3    H270355   1.378   0.024  17.021 -1.3410  0.4004  0.2513
16314TIP3   OH270356   0.565   5.429  13.999  0.1077 -0.1787 -0.4033
16314TIP3    H170357   0.657   5.454  13.990 -0.3995  1.7885 -0.3348
16314TIP3    H270358   0.517   5.492  13.945 -1.4740  0.9802  2.2534
16315TIP3   OH270359   4.945   5.163   0.791 -0.1489 -0.9713  0.5016
16315TIP3    H170360   4.986   5.243   0.756 -1.2866  0.8192  3.0593
16315TIP3    H270361   4.861   5.157   0.746 -0.0955 -0.6546  0.3562
16316TIP3   OH270362   3.476   6.215   1.613 -0.0850  0.0520  0.2683
16316TIP3    H170363   3.541   6.201   1.681 -0.3625 -0.4675  0.4351
16316TIP3    H270364   3.462   6.309   1.611  2.7378  0.4675 -1.7092
16317TIP3   OH270365   1.344   1.058  14.076 -0.9134 -0.4997 -0.5862
16317TIP3    H170366   1.427   1.081  14.034 -1.6461 -0.3419 -2.0136
16317TIP3    H270367   1.284   1.044  14.002 -2.6916  1.4707  0.4393
16318TIP3   OH270368   4.536   0.045  11.763  0.2286 -0.2162 -0.1303
16318TIP3    H170369   4.612   0.101  11.744 -0.7919  0.6542 -1.8002
16318TIP3    H270370   4.544  -0.027  11.701 -1.4000  0.9653 -1.7760
16319TIP3   OH270371   4.340   1.008   5.608 -0.2385  0.2772 -0.2669
16319TIP3    H170372   4.427   0.983   5.577 -0.0888  0.8650 -0.3173
16319TIP3    H270373   4.324   0.950   5.683  1.5981  2.3890  1.8633
16320TIP3   OH270374   3.629   0.046   5.299  0.2203  0.0693  0.3655
16320TIP3    H170375   3.661   0.010   5.382  0.5874 -2.1417 -0.6844
16320TIP3    H270376   3.686   0.007   5.233 -1.1393  0.4711 -1.0604
16321TIP3   OH270377   5.343   1.499   0.236 -0.2625  0.2309  0.0613
16321TIP3    H170378   5.358   1.406   0.253  0.8706  0.1097 -1.5193
16321TIP3    H270379   5.405   1.522   0.168 -0.5477  2.1618  0.4027
16322TIP3   OH270380   2.540   2.651   0.732 -0.4779  0.1263  0.8366
16322TIP3    H170381   2.620   2.628   0.685 -2.2826 -3.0314 -0.8609
16322TIP3    H270382   2.500   2.721   0.680  0.5896  0.9495  1.1005
16323TIP3   OH270383   3.964   4.862  16.220 -0.8191  0.1831 -0.1966
16323TIP3    H170384   3.923   4.785  16.261 -0.1859 -0.0268  0.0510
16323TIP3    H270385   3.962   4.844  16.127 -1.3522  0.2003 -0.1896
16324TIP3   OH270386   6.484   5.789   2.321 -0.3599  0.0442  0.1444
16324TIP3    H170387   6.438   5.829   2.246  0.6766  0.1235 -0.4564
16324TIP3    H270388   6.487   5.696   2.299  1.6326  0.3121 -0.8481
16325TIP3   OH270389   2.536   1.492   4.980  0.1798 -0.1817 -0.1332
16325TIP3    H170390   2.626   1.523   4.989 -0.0866  0.8762 -1.0567
16325TIP3    H270391   2.522   1.486   4.886 -1.1077  0.8004 -0.0088
16326TIP3   OH270392   3.541   0.284   2.322 -0.2034 -0.2822  0.1200
16326TIP3    H170393   3.469   0.334   2.359 -0.5417 -1.5156  1.1752
16326TIP3    H270394   3.544   0.310   2.230 -1.1911  0.6974  0.3540
16327TIP3   OH270395   0.310   4.821   1.868  0.2949  0.3286 -0.2900
16327TIP3    H170396   0.365   4.781   1.936 -0.8736 -1.7913 -0.5502
16327TIP3    H270397   0.245   4.872   1.917 -0.5652 -1.2196  0.2362
16328TIP3   OH270398   2.053   5.750  13.798  0.0728  0.3508  0.0910
16328TIP3    H170399   2.104   5.821  13.758 -1.4905  1.0330 -0.7171
16328TIP3    H270400   2.070   5.759  13.891  0.4555  1.3559 -0.0607
16329TIP3   OH270401   3.297   4.293   3.733  0.0710 -0.4416  0.0207
16329TIP3    H170402   3.342   4.262   3.654 -0.1228  0.5115 -0.4647
16329TIP3    H270403   3.216   4.242   3.736 -0.0680 -0.2579 -0.5719
16330TIP3   OH270404   2.228   4.577   4.394  0.0316 -0.3514 -0.0970
16330TIP3    H170405   2.320   4.568   4.371 -0.1181 -2.7877  0.1840
16330TIP3    H270406   2.181   4.530   4.325 -0.8735 -1.0222  0.9633
16331TIP3   OH270407   2.086   6.523  12.325  0.7497  0.6579 -0.3973
16331TIP3    H170408   2.116   6.481  12.244 -2.9679 -0.5899 -1.2306
16331TIP3    H270409   2.063   6.612  12.298 -0.3752  0.2790 -0.7060
16332TIP3   OH270410   3.302   0.732  14.621  0.1459  0.1076  0.1221
16332TIP3    H170411   3.384   0.768  14.588  0.2129 -0.4594 -0.3414
16332TIP3    H270412   3.258   0.698  14.543 -0.7806  0.9202  0.2908
16333TIP3   OH270413   5.482   2.833   4.963  0.3003  0.5484 -0.0046
16333TIP3    H170414   5.495   2.904   4.901 -0.1708  1.1396  0.5639
16333TIP3    H270415   5.391   2.806   4.951 -0.0380  1.2118  0.9849
16334TIP3   OH270416   6.416   0.963   3.334 -0.0106 -0.7793 -0.4613
16334TIP3    H170417   6.413   1.006   3.249  2.4519 -1.2978 -0.8478
16334TIP3    H270418   6.395   1.033   3.397  0.2041  0.1007 -1.3508
16335TIP3   OH270419   0.426   4.992   1.341 -0.2666 -0.2487  0.0647
16335TIP3    H170420   0.482   4.949   1.277  0.8332  0.7074  0.3599
16335TIP3    H270421   0.479   5.065   1.374 -1.6950  0.7074  0.3090
16336TIP3   OH270422   0.394   4.088  16.033 -0.3977 -0.3939 -0.6257
16336TIP3    H170423   0.328   4.060  16.097  2.0130 -1.0924  1.6597
16336TIP3    H270424   0.406   4.181  16.050  0.2760 -0.5891  0.0064
16337TIP3   OH270425   0.074   2.555  13.275  0.0595  0.3301  0.5473
16337TIP3    H170426   0.040   2.574  13.362 -0.0355  1.2317  0.3120
16337TIP3    H270427   0.011   2.492  13.239 -0.9493  1.3867  0.4179
16338TIP3   OH270428   4.625   6.775  10.502 -0.5522 -0.0469 -0.1574
16338TIP3    H170429   4.696   6.816  10.551 -0.8510  1.5201 -1.0186
16338TIP3    H270430   4.610   6.833  10.428 -0.8267 -1.8361 -1.5452
16339TIP3   OH270431   5.795   0.531   2.153 -0.1314  0.1083  0.6904
16339TIP3    H170432   5.765   0.508   2.065  0.3638  0.3768  0.4481
16339TIP3    H270433   5.721   0.509   2.210 -1.0049  1.3152  0.0356
16340TIP3   OH270434   4.554   6.277   1.421  0.1066 -0.5892 -0.0418
16340TIP3    H170435   4.499   6.354   1.414 -0.1025 -0.8025 -0.7287
16340TIP3    H270436   4.500   6.212   1.466  0.3117 -0.3123  0.6101
16341TIP3   OH270437   2.425   4.142  13.872 -0.4083 -0.3761 -0.2508
16341TIP3    H170438   2.476   4.178  13.800 -0.0106  0.0029  0.2166
16341TIP3    H270439   2.335   4.137  13.837  0.0930 -1.9272 -1.3867
16342TIP3   OH270440   3.584   0.774   4.242 -0.2599  0.6200 -0.0668
16342TIP3    H170441   3.661   0.721   4.261 -0.0072  1.0659  0.1859
16342TIP3    H270442   3.539   0.781   4.326  1.0315  2.8719  0.4812
16343TIP3   OH270443   1.880   1.579   2.490 -0.8784 -0.0392 -0.4469
16343TIP3    H170444   1.785   1.577   2.476 -1.0224 -1.5488  0.5892
16343TIP3    H270445   1.911   1.650   2.434 -2.4542 -0.3674 -1.7658
16344TIP3   OH270446   2.852   6.148  16.678  0.0673 -0.0838  0.2760
16344TIP3    H170447   2.837   6.126  16.586 -0.4855 -2.1595  0.8476
16344TIP3    H270448   2.918   6.086  16.708  2.0352  2.1069  0.6766
16345TIP3   OH270449   0.562   6.695  15.608  0.2980  0.1626 -0.2398
16345TIP3    H170450   0.514   6.620  15.644 -0.6793  0.7315 -0.3326
16345TIP3    H270451   0.505   6.728  15.538  2.0169 -0.7193 -2.0948
16346TIP3   OH270452   1.548   3.175  16.873 -0.1015  0.5743 -0.0228
16346TIP3    H170453   1.536   3.133  16.788  1.0735 -1.5842  0.8600
16346TIP3    H270454   1.492   3.253  16.869 -0.8171 -0.0232 -2.3904
16347TIP3   OH270455   2.071   0.248  10.946 -0.0964  0.4670 -0.2773
16347TIP3    H170456   2.141   0.238  11.011 -0.5042 -0.5405  0.0135
16347TIP3    H270457   2.068   0.342  10.929  0.3250  0.6921  0.8272
16348TIP3   OH270458   1.739   2.214  12.757  0.0613 -0.4621  0.1960
16348TIP3    H170459   1.832   2.194  12.772  0.1199 -1.1408 -0.9570
16348TIP3    H270460   1.719   2.171  12.674 -0.9735  0.6969 -0.1743
16349TIP3   OH270461   2.325   6.182  16.346  0.3566 -0.1779  1.2483
16349TIP3    H170462   2.343   6.222  16.261 -0.6884 -0.7862  0.7227
16349TIP3    H270463   2.268   6.245  16.390 -0.3058 -0.5307  0.9020
16350TIP3   OH270464   2.325   2.879  12.888 -0.0143 -0.7655 -0.7538
16350TIP3    H170465   2.311   2.864  12.794  1.3534 -2.7527 -0.6819
16350TIP3    H270466   2.246   2.923  12.917  0.0705  1.0416 -3.0861
16351TIP3   OH270467   6.720   2.170   2.482 -0.1796  0.2911 -0.5113
16351TIP3    H170468   6.799   2.222   2.469 -0.7093  1.2793  0.1400
16351TIP3    H270469   6.667   2.188   2.404  0.6818 -1.2243 -1.4747
16352TIP3   OH270470   5.566   4.891   2.067 -0.5313 -0.0872  0.6685
16352TIP3    H170471   5.524   4.911   1.984 -0.4266  0.4423  0.7419
16352TIP3    H270472   5.500   4.841   2.116 -0.6305 -0.3010  0.3141
16353TIP3   OH270473   2.524   3.335   1.565 -0.3484  0.2663 -0.3033
16353TIP3    H170474   2.448   3.277   1.568  0.4438 -0.8286 -1.0320
16353TIP3    H270475   2.518   3.378   1.480  0.3083 -0.4858 -0.7439
16354TIP3   OH270476   5.665   5.461  13.133 -0.1872 -0.2161  0.0726
16354TIP3    H170477   5.610   5.418  13.198 -0.6539  0.9708  0.4753
16354TIP3    H270478   5.663   5.402  13.058 -3.3963  0.6069 -0.5590
16355TIP3   OH270479   5.797   4.710  15.042 -0.4169  0.1039  0.0340
16355TIP3    H170480   5.775   4.627  15.086 -1.1747  0.2442 -0.0796
16355TIP3    H270481   5.714   4.743  15.010 -0.3711  1.7645  1.5626
16356TIP3   OH270482   3.089   4.857   3.117 -0.1347 -0.3727  0.1168
16356TIP3    H170483   3.121   4.850   3.207  1.1091  0.0103 -0.2828
16356TIP3    H270484   3.017   4.921   3.121  1.0704  0.9783  0.5507
16357TIP3   OH270485   0.265   6.181   0.599  0.0327 -0.1045 -0.9051
16357TIP3    H170486   0.206   6.249   0.632 -1.7045 -0.6996 -2.7288
16357TIP3    H270487   0.307   6.222   0.523 -0.7219 -0.9135 -1.7656
16358TIP3   OH270488   5.615   0.191   4.289 -1.0011 -0.4232  0.0997
16358TIP3    H170489   5.611   0.211   4.196 -0.7969 -2.4461 -0.3607
16358TIP3    H270490   5.683   0.124   4.297 -0.9731 -0.2345  1.7206
16359TIP3   OH270491   2.340   1.043   1.845  0.2995  0.7177 -0.2810
16359TIP3    H170492   2.280   0.968   1.842 -0.6768  1.4166  1.3761
16359TIP3    H270493   2.404   1.025   1.775 -1.8838  0.0264 -2.1662
16360TIP3   OH270494   1.612   2.575   3.389 -0.5516 -0.1448 -0.1723
16360TIP3    H170495   1.531   2.528   3.371 -1.5631  0.4412  2.5825
16360TIP3    H270496   1.585   2.651   3.441  1.5795  0.9826 -0.6313
16361TIP3   OH270497   3.416   1.275   5.979 -0.0986  0.3698 -0.7761
16361TIP3    H170498   3.396   1.181   5.980  2.1286 -0.1692 -2.1893
16361TIP3    H270499   3.511   1.279   5.968 -0.3006  2.7807 -2.0798
16362TIP3   OH270500   2.970   0.298   3.212 -0.0902  0.3615  0.5738
16362TIP3    H170501   2.905   0.305   3.143  0.2057  0.2327  0.2845
16362TIP3    H270502   3.043   0.250   3.173 -0.6950 -1.3808  1.5173
16363TIP3   OH270503   0.841   1.841  14.892  0.1288  0.2541 -0.1835
16363TIP3    H170504   0.788   1.912  14.928  2.1625  1.0475  1.3681
16363TIP3    H270505   0.782   1.766  14.888 -1.1138  1.1153  1.4605
16364TIP3   OH270506   6.271   4.166  12.228  0.0261  0.0311  0.4469
16364TIP3    H170507   6.339   4.164  12.295 -1.1613  0.4322  1.6750
16364TIP3    H270508   6.293   4.242  12.174 -0.2802  1.0146  1.7128
16365TIP3   OH270509   4.646   6.039  12.496  0.6194 -0.5893  0.1820
16365TIP3    H170510   4.565   5.991  12.484 -0.5738  1.2125  0.8429
16365TIP3    H270511   4.652   6.055  12.590  2.3930 -1.7735  0.3105
16366TIP3   OH270512   2.806   3.267  12.445 -0.3148 -1.1170  0.3925
16366TIP3    H170513   2.851   3.339  12.400 -0.7173  0.5291  2.5100
16366TIP3    H270514   2.719   3.265  12.407 -1.5712  2.0858  2.8796
16367TIP3   OH270515   1.984   2.056   4.326  0.2302  0.2637 -0.1682
16367TIP3    H170516   2.015   1.984   4.271  0.9152  0.1241  0.3925
16367TIP3    H270517   2.007   2.135   4.277  0.3790  0.1243 -0.3246
16368TIP3   OH270518   0.505   5.296   2.863  0.2782  0.0917 -0.7649
16368TIP3    H170519   0.511   5.248   2.781  0.4647  0.4656 -0.9717
16368TIP3    H270520   0.423   5.345   2.857  0.2569  0.0657 -0.6966
16369TIP3   OH270521   5.171   1.721   1.259 -0.2444  0.2386  0.2539
16369TIP3    H170522   5.206   1.747   1.173  2.8625  0.1418  1.4303
16369TIP3    H270523   5.226   1.648   1.286 -1.8193 -0.3571  1.9155
16370TIP3   OH270524   5.458   5.750  12.801 -0.0728 -0.2831  0.7257
16370TIP3    H170525   5.425   5.695  12.872 -0.7949 -0.6218  0.1317
16370TIP3    H270526   5.380   5.778  12.753  0.0491  3.2803  2.4498
16371TIP3   OH270527   0.368   3.765   3.098 -0.5521  0.4295  0.6378
16371TIP3    H170528   0.450   3.803   3.129  0.0648  0.6425 -1.1877
16371TIP3    H270529   0.395   3.701   3.032 -1.8973  1.0645 -0.5351
16372TIP3   OH270530   4.060   0.780   5.840  0.4665 -0.2615 -0.5322
16372TIP3    H170531   3.966   0.795   5.834  0.2818 -0.9421  0.4679
16372TIP3    H270532   4.082   0.802   5.931  1.3036  0.0796 -0.8132
16373TIP3   OH270533   2.138   4.252   2.948  0.0649 -0.1003  0.0439
16373TIP3    H170534   2.139   4.165   2.988  0.0966 -0.1774 -0.1266
16373TIP3    H270535   2.062   4.296   2.988  0.2319 -0.0975  0.3602
16374TIP3   OH270536   3.963   2.147  16.735  0.1525  0.4118  0.0835
16374TIP3    H170537   3.998   2.149  16.646  1.6544 -0.0574  0.6533
16374TIP3    H270538   3.992   2.230  16.774  0.2031  0.2528  0.3881
16375TIP3   OH270539   1.244   2.931   0.351 -0.5090  0.4405  0.1773
16375TIP3    H170540   1.201   3.010   0.318 -1.0767  0.2964  0.5661
16375TIP3    H270541   1.207   2.918   0.438 -0.0908 -0.0086  0.2907
16376TIP3   OH270542   2.016   4.293  15.074 -0.8346 -0.1741 -0.1841
16376TIP3    H170543   2.018   4.262  15.165  0.8515 -0.1819 -0.2080
16376TIP3    H270544   1.968   4.226  15.027 -1.7111 -0.1793  0.7027
16377TIP3   OH270545   5.169   5.829  15.211 -1.0465  0.1098  0.8199
16377TIP3    H170546   5.172   5.761  15.278  0.0801 -0.0670  0.5987
16377TIP3    H270547   5.240   5.807  15.152 -0.1549  1.9316  1.1877
16378TIP3   OH270548   6.376   6.388  11.649 -0.5834 -0.3133 -0.3260
16378TIP3    H170549   6.357   6.441  11.571  0.0531 -0.9488 -0.9301
16378TIP3    H270550   6.373   6.449  11.722 -2.4717  0.0641 -0.6874
16379TIP3   OH270551   4.843   1.084  12.021  0.5070 -0.7102  0.0915
16379TIP3    H170552   4.749   1.103  12.018  0.3942 -1.2312  0.1725
16379TIP3    H270553   4.853   1.027  12.098  1.0077 -0.0164  0.5444
16380TIP3   OH270554   6.249   3.696  15.657 -0.0728  0.6309 -0.5696
16380TIP3    H170555   6.264   3.690  15.751 -1.3133  1.5170 -0.3040
16380TIP3    H270556   6.259   3.606  15.626  2.7983  0.7154  0.0012
16381TIP3   OH270557   3.406   4.842   5.757  0.1149  0.3719 -0.0123
16381TIP3    H170558   3.442   4.800   5.679  1.0989  0.8393  0.1778
16381TIP3    H270559   3.422   4.935   5.744 -1.2399  0.6176 -0.0147
16382TIP3   OH270560   0.821   0.004  14.126  0.0719 -0.3615 -0.4888
16382TIP3    H170561   0.805  -0.044  14.044  1.8063  0.0734 -1.0931
16382TIP3    H270562   0.833   0.095  14.099  2.1990 -0.4572  0.0758
16383TIP3   OH270563   0.940   1.943  13.511  0.0124  0.2457  0.4625
16383TIP3    H170564   0.859   1.951  13.462  1.1271  3.3621 -1.0236
16383TIP3    H270565   0.916   1.961  13.602 -0.9702  1.3650 -0.0045
16384TIP3   OH270566   5.535   2.436  16.942  0.1522  0.0461 -0.1392
16384TIP3    H170567   5.487   2.374  16.997  1.7906 -0.7148  0.4760
16384TIP3    H270568   5.474   2.509  16.929 -0.8900 -0.5542  1.2373
16385TIP3   OH270569   0.745   2.209   0.920  0.3421 -0.1541 -0.1723
16385TIP3    H170570   0.719   2.300   0.934  0.5524 -0.2873  1.1834
16385TIP3    H270571   0.841   2.210   0.926  0.3034 -0.5816  0.5883
16386TIP3   OH270572   0.049   2.269  15.064  0.4183  0.4992 -0.4045
16386TIP3    H170573  -0.038   2.273  15.024  0.3275  1.5557 -0.1170
16386TIP3    H270574   0.033   2.276  15.158  0.7793  0.2139 -0.3218
16387TIP3   OH270575   6.551   3.932  14.170  0.0463  0.2293  0.1153
16387TIP3    H170576   6.505   3.910  14.089 -0.5215  1.2748  0.1409
16387TIP3    H270577   6.620   3.993  14.143 -0.0890  0.5118  0.3971
16388TIP3   OH270578   0.011   2.308  13.451 -0.1128 -0.6195  0.3724
16388TIP3    H170579   0.100   2.321  13.483 -0.2678  1.0351  0.2175
16388TIP3    H270580   0.018   2.237  13.387  0.7803 -1.6586  1.6000
16389TIP3   OH270581   2.761   0.676  11.929 -0.1130 -0.3676  0.6350
16389TIP3    H170582   2.853   0.668  11.954  0.2677 -1.2274 -0.9862
16389TIP3    H270583   2.759   0.749  11.867 -0.2780 -1.2313 -0.3935
16390TIP3   OH270584   4.924   1.165   4.452 -0.3837 -0.0551 -0.3757
16390TIP3    H170585   4.999   1.151   4.394 -0.1533  1.1657 -0.3824
16390TIP3    H270586   4.849   1.131   4.403 -0.0355 -0.0181 -0.9349
16391TIP3   OH270587   4.514   4.535   3.980  0.0405 -0.0635 -0.4721
16391TIP3    H170588   4.562   4.462   3.941  0.1565  0.3365 -1.0780
16391TIP3    H270589   4.528   4.608   3.921 -0.1020  0.4504  0.1200
16392TIP3   OH270590   6.188   1.814  13.915 -0.5482 -0.1958 -0.6081
16392TIP3    H170591   6.109   1.774  13.949  0.1652  0.6155  2.0872
16392TIP3    H270592   6.166   1.907  13.904  0.4936  0.3746  1.7987
16393TIP3   OH270593   1.450   1.783   2.045 -0.1975  0.2943  0.7438
16393TIP3    H170594   1.372   1.804   2.096  0.4923 -2.0001  2.8664
16393TIP3    H270595   1.436   1.694   2.014  0.8611  0.4620 -0.2794
16394TIP3   OH270596   6.379   4.441   2.955 -0.1865  0.1802 -0.4198
16394TIP3    H170597   6.368   4.350   2.925  0.9955  0.0493 -0.4502
16394TIP3    H270598   6.323   4.492   2.897  1.1334 -0.2227 -2.0744
16395TIP3   OH270599   1.252   2.844  12.953 -0.2879 -0.5156  0.1246
16395TIP3    H170600   1.215   2.776  13.010  1.3712 -2.1640 -0.7101
16395TIP3    H270601   1.257   2.803  12.867  4.7406 -0.8963  0.4821
16396TIP3   OH270602   3.093   1.386   4.027  0.0247  0.5165  0.1561
16396TIP3    H170603   3.047   1.368   4.109  0.6668 -2.0564 -0.0003
16396TIP3    H270604   3.157   1.453   4.050  1.8669 -1.9050  2.4296
16397TIP3   OH270605   0.310   4.963  16.094  0.7363  0.4040 -0.1085
16397TIP3    H170606   0.230   4.948  16.144  0.5783  2.6420  0.3375
16397TIP3    H270607   0.378   4.918  16.145  0.1847  0.6105  0.8312
16398TIP3   OH270608   3.204   5.292   5.876  0.0781  0.8532  0.4724
16398TIP3    H170609   3.216   5.260   5.786  1.2469  0.1687  0.8593
16398TIP3    H270610   3.261   5.236   5.929 -2.6542 -0.5381  2.0356
16399TIP3   OH270611   5.174   0.468  16.002 -0.2587  0.0002 -0.0542
16399TIP3    H170612   5.241   0.427  16.058 -1.4058 -0.9443  0.6296
16399TIP3    H270613   5.177   0.561  16.027  1.0651  0.0318 -0.2995
16400TIP3   OH270614   1.394   1.764   3.973  0.2255  0.2160  0.1575
16400TIP3    H170615   1.472   1.709   3.975  0.3402  0.4045  0.9144
16400TIP3    H270616   1.343   1.730   3.899 -0.1277 -1.4746  1.1577
16401TIP3   OH270617   3.133   3.336  11.952 -0.2239 -0.3979  0.7018
16401TIP3    H170618   3.056   3.378  11.991  0.0887  0.2365  0.6418
16401TIP3    H270619   3.155   3.265  12.013 -1.1612 -0.9063  0.4564
16402TIP3   OH270620   1.830   2.778  12.251  0.8050  0.2935  0.2703
16402TIP3    H170621   1.745   2.823  12.247  0.5337 -0.3259 -1.2673
16402TIP3    H270622   1.889   2.843  12.288 -0.0744  1.1587  0.1838
16403TIP3   OH270623   4.896   2.713   0.966  0.1212 -0.6572 -0.0759
16403TIP3    H170624   4.825   2.706   1.030 -1.6976 -0.6172 -1.9880
16403TIP3    H270625   4.910   2.623   0.936 -0.4922 -0.4357 -1.0778
16404TIP3   OH270626   6.138   3.701  10.611  0.6198 -0.2471 -0.4856
16404TIP3    H170627   6.228   3.718  10.584  0.3900  2.3104  0.2627
16404TIP3    H270628   6.144   3.672  10.702  0.5999  1.4263  0.0670
16405TIP3   OH270629   0.884   5.583  12.399  0.6791  0.1735  0.1297
16405TIP3    H170630   0.943   5.534  12.342  4.0241  3.0828  0.8924
16405TIP3    H270631   0.906   5.554  12.488 -1.0400 -0.7285  0.2867
16406TIP3   OH270632   0.342   1.080   1.625  0.2374  0.0879  0.4649
16406TIP3    H170633   0.343   1.142   1.552  1.4164  0.5336  0.8444
16406TIP3    H270634   0.339   0.994   1.583 -0.9362  0.3750 -0.0729
16407TIP3   OH270635   5.202   6.235   6.173 -0.5126 -0.1986  0.2678
16407TIP3    H170636   5.226   6.288   6.248 -1.4156 -2.0312  1.8908
16407TIP3    H270637   5.284   6.193   6.146 -0.1824  0.4842  0.2001
16408TIP3   OH270638   1.593   3.150  10.754  0.0814  0.0337 -0.4403
16408TIP3    H170639   1.531   3.113  10.691 -0.8646  1.7751 -0.5646
16408TIP3    H270640   1.594   3.243  10.735  1.8290  0.1973  0.3873
16409TIP3   OH270641   1.750   4.348   3.874  0.1519  0.6714 -0.4269
16409TIP3    H170642   1.761   4.323   3.782 -0.9192  0.2209 -0.4469
16409TIP3    H270643   1.661   4.319   3.896 -0.7674  3.4667 -0.1425
16410TIP3   OH270644   3.200   1.935   3.420 -0.0302  0.0936  0.0530
16410TIP3    H170645   3.148   1.905   3.346 -1.1736 -0.6712  1.1471
16410TIP3    H270646   3.288   1.900   3.403 -0.3720 -0.3762 -0.7676
16411TIP3   OH270647   3.916   0.976  14.895 -0.7197  0.5084  0.3823
16411TIP3    H170648   3.960   1.012  14.972 -0.7786  1.9296 -0.2350
16411TIP3    H270649   3.988   0.943  14.840 -0.6174  0.2964  0.6419
16412TIP3   OH270650   4.959   0.544   2.838  0.7692  0.2960 -0.3573
16412TIP3    H170651   4.895   0.473   2.841 -2.0222  2.7474  1.3341
16412TIP3    H270652   5.014   0.531   2.915 -1.7326  1.6175  1.7532
16413TIP3   OH270653   1.169   2.172  12.877  0.0439  0.1062 -0.2045
16413TIP3    H170654   1.189   2.207  12.790  1.2884 -1.3309 -0.5142
16413TIP3    H270655   1.108   2.100  12.861  0.7213 -0.5298  0.0481
16414TIP3   OH270656   1.345   3.854   1.312 -0.1153  0.0870 -0.4092
16414TIP3    H170657   1.260   3.871   1.272 -0.7645  0.2285  0.9902
16414TIP3    H270658   1.406   3.908   1.262 -1.3819  2.6697  0.7322
16415TIP3   OH270659   0.847   3.221   2.274  0.1930  0.5855 -0.7382
16415TIP3    H170660   0.801   3.272   2.207  0.3859  1.9455  0.1484
16415TIP3    H270661   0.785   3.213   2.346 -0.1652 -1.2322 -1.2110
16416TIP3   OH270662   5.360   0.077  11.816  0.2269 -0.4410  0.7601
16416TIP3    H170663   5.374   0.171  11.799 -2.3462 -0.0955  0.3570
16416TIP3    H270664   5.395   0.064  11.904 -2.2697  1.6655  2.1575
16417TIP3   OH270665   4.385   1.119   5.131 -0.1702  0.6889  0.0025
16417TIP3    H170666   4.331   1.063   5.074  1.6384 -1.0263 -0.0666
16417TIP3    H270667   4.330   1.134   5.208 -1.6833  0.9878 -1.1037
16418TIP3   OH270668   5.645   1.173   6.401 -0.1923  0.0836  0.7203
16418TIP3    H170669   5.709   1.195   6.469 -2.0924  0.6693  2.3887
16418TIP3    H270670   5.579   1.121   6.447 -1.7106  0.8235 -0.5705
16419TIP3   OH270671   5.642   6.470  11.202  0.5457  0.5016 -0.3641
16419TIP3    H170672   5.588   6.395  11.178 -1.0016  0.9662  1.5173
16419TIP3    H270673   5.672   6.450  11.290  0.5071  1.8666 -0.0350
16420TIP3   OH270674   6.510   2.904   3.311 -0.4921  0.2875 -0.0101
16420TIP3    H170675   6.462   2.891   3.229  0.2527  1.3988 -0.6426
16420TIP3    H270676   6.591   2.855   3.300 -0.9091 -0.5499  0.5558
16421TIP3   OH270677   1.975   3.321  15.294 -0.7707  0.0310  0.3677
16421TIP3    H170678   2.008   3.322  15.384 -2.6082  0.6008  1.0647
16421TIP3    H270679   1.880   3.323  15.304 -0.9986 -0.4977 -1.5900
16422TIP3   OH270680   3.548   0.234   1.590  0.1993 -0.6591 -0.2340
16422TIP3    H170681   3.579   0.321   1.615  0.0941 -0.8920  0.7413
16422TIP3    H270682   3.607   0.174   1.636 -0.1315 -1.1037 -0.3894
16423TIP3   OH270683   3.964   3.345   2.755  0.3258  0.1399 -0.1794
16423TIP3    H170684   3.925   3.261   2.730  0.5415 -0.3553  1.0831
16423TIP3    H270685   3.996   3.331   2.844  0.1690  1.6316  0.1324
16424TIP3   OH270686   1.590   4.462  13.078  0.1800  0.0227 -0.0196
16424TIP3    H170687   1.615   4.497  13.163 -1.6676  0.2750  0.4284
16424TIP3    H270688   1.615   4.370  13.081  0.0089  0.0041  0.8440
16425TIP3   OH270689   4.494   2.454   2.525 -0.1228 -0.1247  0.0891
16425TIP3    H170690   4.494   2.537   2.477  0.3008  0.0007  0.3058
16425TIP3    H270691   4.565   2.463   2.588  1.3204 -1.4885 -1.3292
16426TIP3   OH270692   2.617   4.102  14.757 -0.0681  0.1708 -0.4186
16426TIP3    H170693   2.572   4.031  14.803 -1.4554  1.2605 -0.0727
16426TIP3    H270694   2.596   4.180  14.808  2.2791  0.6907 -0.2274
16427TIP3   OH270695   0.354   2.551  15.279  0.1850 -0.0274 -0.2139
16427TIP3    H170696   0.305   2.489  15.333 -0.3982  1.1317  0.6091
16427TIP3    H270697   0.291   2.619  15.257  1.2758  1.2389  0.4591
16428TIP3   OH270698   5.958   6.428  12.907  0.1206 -0.5625  0.3852
16428TIP3    H170699   6.040   6.399  12.948 -0.5280 -2.6073  0.2821
16428TIP3    H270700   5.941   6.363  12.839 -1.0220  0.4719 -0.3432
16429TIP3   OH270701   2.239   0.940  15.259  0.2737 -0.2521 -0.8446
16429TIP3    H170702   2.180   0.931  15.184 -1.7709  0.4016  0.6266
16429TIP3    H270703   2.231   1.032  15.284  0.0316 -0.7406  0.8976
16430TIP3   OH270704   0.749   2.080   1.383 -0.6339  0.0590 -0.4091
16430TIP3    H170705   0.830   2.131   1.386 -0.4798 -0.2181  0.4159
16430TIP3    H270706   0.708   2.104   1.300 -0.2914  1.0875 -0.2811
16431TIP3   OH270707   5.324   1.037   0.665 -0.2620  0.0967  0.4990
16431TIP3    H170708   5.293   0.946   0.659 -0.5578  0.2351 -0.0308
16431TIP3    H270709   5.276   1.084   0.597 -0.6395  0.8033  1.2459
16432TIP3   OH270710   0.687   4.663  15.146  0.2988 -0.0054 -0.6232
16432TIP3    H170711   0.766   4.660  15.092  1.1572 -0.3837  0.6140
16432TIP3    H270712   0.704   4.733  15.209 -0.2371 -0.2626 -0.1924
16433TIP3   OH270713   6.440   2.925  17.006 -0.0775  0.0192  0.1503
16433TIP3    H170714   6.368   2.920  16.943 -0.7697  1.3870  0.8200
16433TIP3    H270715   6.422   3.004  17.057  1.1108 -0.4310  1.2916
16434TIP3   OH270716   4.071   3.857   0.352  0.2304  0.0606  0.4195
16434TIP3    H170717   4.095   3.949   0.340 -0.6361  0.2491  0.1032
16434TIP3    H270718   4.133   3.809   0.297  0.9903  0.4205  0.9562
16435TIP3   OH270719   3.483   4.570   0.739  0.5618 -0.0444  0.3861
16435TIP3    H170720   3.513   4.615   0.818  0.0589 -0.7063  0.9618
16435TIP3    H270721   3.549   4.502   0.724  0.5315 -0.0690  0.3677
16436TIP3   OH270722   2.153   4.943  15.871  0.7960 -0.2996  0.2175
16436TIP3    H170723   2.184   5.002  15.939  0.2581 -1.7296  1.7226
16436TIP3    H270724   2.231   4.895  15.843  1.2289  1.0554 -0.9848
16437TIP3   OH270725   0.384   1.388   3.603  0.1215 -0.2258 -1.1323
16437TIP3    H170726   0.477   1.404   3.620  0.3407 -0.3491 -2.1888
16437TIP3    H270727   0.378   1.383   3.508 -1.4923  2.8714 -1.2293
16438TIP3   OH270728   1.187   2.245  17.101 -0.1588 -0.0306 -0.2413
16438TIP3    H170729   1.233   2.267  17.020 -0.2819  0.0517 -0.2863
16438TIP3    H270730   1.199   2.150  17.110 -1.1230 -0.2250 -0.9545
16439TIP3   OH270731   2.742   2.718  15.065  0.1169  0.1795 -0.0350
16439TIP3    H170732   2.680   2.781  15.100 -1.1004 -0.2597 -1.3707
16439TIP3    H270733   2.821   2.730  15.117 -0.4355  2.1110  0.3674
16440TIP3   OH270734   4.458   1.594   1.272 -0.1689  0.5658  0.4452
16440TIP3    H170735   4.528   1.643   1.230 -0.2468  0.0979 -0.2490
16440TIP3    H270736   4.383   1.653   1.272 -0.5936  0.0469 -1.4453
16441TIP3   OH270737   5.484   0.861  11.989 -0.0572 -0.4966  0.5893
16441TIP3    H170738   5.514   0.951  11.973  1.6888 -1.1915 -0.0890
16441TIP3    H270739   5.409   0.872  12.048  0.2175  1.4000  0.6309
16442TIP3   OH270740   5.239   0.372  15.672  0.1166  0.5484  0.4590
16442TIP3    H170741   5.149   0.365  15.706  0.4637 -2.5532  0.8956
16442TIP3    H270742   5.284   0.427  15.736 -0.2319 -2.0289  3.0366
16443TIP3   OH270743   6.579   6.309  10.524 -0.4014 -0.2954 -0.2618
16443TIP3    H170744   6.494   6.265  10.535  0.0468 -1.0688  0.1414
16443TIP3    H270745   6.563   6.399  10.552 -1.1738 -0.3552 -0.4918
16444TIP3   OH270746   0.188   2.824  11.041  0.5443  0.0363 -0.4339
16444TIP3    H170747   0.099   2.791  11.023 -0.0118  1.6615 -0.7312
16444TIP3    H270748   0.245   2.764  10.992 -0.3141 -1.5689  0.4927
16445TIP3   OH270749   4.579   2.864  13.103 -0.7066 -0.0781 -0.4541
16445TIP3    H170750   4.668   2.835  13.120 -0.7972  0.6386  1.3075
16445TIP3    H270751   4.524   2.798  13.144 -0.9227  1.9583  2.6578
16446TIP3   OH270752   0.586   4.312  14.476 -0.3916 -0.2387 -0.0286
16446TIP3    H170753   0.670   4.323  14.431 -0.2843 -0.7481  0.0416
16446TIP3    H270754   0.520   4.326  14.408 -0.2479  0.3874 -0.0359
16447TIP3   OH270755   3.654   4.367  16.942 -0.3688 -0.7936  0.4666
16447TIP3    H170756   3.587   4.308  16.907  0.4013 -1.9134  0.8145
16447TIP3    H270757   3.720   4.308  16.979  1.7035  0.2046 -1.4959
16448TIP3   OH270758   3.956   1.411  16.687 -0.1749 -0.5112 -0.4092
16448TIP3    H170759   3.957   1.408  16.783  1.5825 -1.6371 -0.4490
16448TIP3    H270760   3.991   1.498  16.666  3.6152 -1.8552 -0.0519
16449TIP3   OH270761   3.415   1.316  16.814 -0.1176  0.3817  0.3385
16449TIP3    H170762   3.507   1.291  16.812 -0.0051  0.8200 -0.0796
16449TIP3    H270763   3.414   1.405  16.849 -0.3858  0.3477  0.4240
16450TIP3   OH270764   0.962   6.630  15.316  0.3002 -0.1020  0.4035
16450TIP3    H170765   0.887   6.623  15.375 -0.7731  0.4850 -0.8559
16450TIP3    H270766   1.000   6.542  15.313  0.3043 -0.1513  1.8789
16451TIP3   OH270767   1.073   5.778  16.487  0.6553 -0.2510  0.0217
16451TIP3    H170768   1.122   5.696  16.489 -0.4560 -1.0183 -2.1549
16451TIP3    H270769   1.038   5.783  16.398 -2.2006  0.8794  1.1445
16452TIP3   OH270770   5.231   1.758   6.447 -0.0101 -0.4838 -0.4274
16452TIP3    H170771   5.257   1.792   6.533 -0.9749  0.1092 -0.3646
16452TIP3    H270772   5.252   1.665   6.450  0.9780 -0.2499  0.0566
16453TIP3   OH270773   0.497   3.234  11.549 -0.2393  0.7345  0.0174
16453TIP3    H170774   0.494   3.181  11.469 -0.3717  1.8450 -0.7246
16453TIP3    H270775   0.407   3.235  11.581 -0.0786 -0.1843  0.4877
16454TIP3   OH270776   4.959   4.077   5.173  0.1984 -0.3867  0.1119
16454TIP3    H170777   4.949   4.169   5.149 -2.2706 -0.6113  0.1688
16454TIP3    H270778   5.034   4.077   5.234 -1.5745  2.0442  2.4360
16455TIP3   OH270779   2.327   4.614   6.741  0.0880  0.5429  0.0153
16455TIP3    H170780   2.296   4.583   6.826 -0.8567 -1.4544 -1.0261
16455TIP3    H270781   2.264   4.681   6.715 -1.6673 -1.2882 -0.6486
16456TIP3   OH270782   5.634   3.299  16.522 -0.1642  0.2793  0.3295
16456TIP3    H170783   5.720   3.258  16.533 -0.2659  0.0682  0.3356
16456TIP3    H270784   5.596   3.254  16.446 -0.7580 -0.4545  1.0599
16457TIP3   OH270785   1.380   1.630  10.798  0.5266  0.4138 -0.5335
16457TIP3    H170786   1.459   1.580  10.819  0.6480  0.2421 -1.3723
16457TIP3    H270787   1.380   1.703  10.860  1.5959  0.6885 -0.8579
16458TIP3   OH270788   0.296   2.061   3.304 -0.7647 -0.2354  0.4023
16458TIP3    H170789   0.247   2.011   3.239 -0.6610  0.8697 -0.5242
16458TIP3    H270790   0.331   1.994   3.364  0.1406 -1.3561 -1.3336
16459TIP3   OH270791   3.071   1.499  14.543 -0.0853 -0.2730 -0.4427
16459TIP3    H170792   3.026   1.465  14.620  0.6539 -1.0984 -0.3728
16459TIP3    H270793   3.158   1.459  14.545  0.1898  0.2515 -1.3172
16460TIP3   OH270794   2.763   2.956  16.630  0.3064  0.3023  0.3980
16460TIP3    H170795   2.736   2.925  16.543  0.5276  1.7906 -0.2039
16460TIP3    H270796   2.729   2.889  16.690 -2.3776  0.7253 -0.5693
16461TIP3   OH270797   0.422   5.094  11.793  0.5701 -0.2801  0.1879
16461TIP3    H170798   0.464   5.178  11.811  0.3748 -0.2950  0.7373
16461TIP3    H270799   0.404   5.095  11.700  1.6721 -0.2173 -0.0328
16462TIP3   OH270800   2.481   6.131  14.061 -0.0873 -0.0102 -0.1155
16462TIP3    H170801   2.561   6.087  14.091 -1.6260 -2.7333  0.2309
16462TIP3    H270802   2.448   6.177  14.138  0.3660 -0.1295  0.1510
16463TIP3   OH270803   0.723   1.824   0.621  0.3712  0.3754 -0.2036
16463TIP3    H170804   0.718   1.769   0.543  0.6865 -0.0655  0.0867
16463TIP3    H270805   0.638   1.866   0.627 -0.4681 -1.3762  0.5210
16464TIP3   OH270806   5.612   3.227  10.604 -0.2538 -0.0994  0.0132
16464TIP3    H170807   5.681   3.163  10.621  1.2488  1.4147 -0.2997
16464TIP3    H270808   5.657   3.311  10.599 -2.4035  1.2247  2.0563
16465TIP3   OH270809   4.592   2.242   0.721 -0.0468 -0.6453 -0.8914
16465TIP3    H170810   4.566   2.291   0.644  2.4016 -0.7951 -1.8588
16465TIP3    H270811   4.612   2.154   0.688  2.4988 -0.2911 -0.3812
16466TIP3   OH270812   5.626   4.356  13.031 -0.0824  0.5733 -0.2173
16466TIP3    H170813   5.599   4.285  13.089 -0.0894  0.7293 -0.0283
16466TIP3    H270814   5.672   4.313  12.959 -1.7016  0.2226 -1.0481
16467TIP3   OH270815   2.366   2.673  17.172 -0.4509  0.3163  0.0133
16467TIP3    H170816   2.401   2.760  17.193  1.2860 -0.7250  1.5676
16467TIP3    H270817   2.320   2.646  17.252 -0.0932 -0.6066 -0.0855
16468TIP3   OH270818   4.303   1.999  12.788  0.0511 -0.1553 -0.0131
16468TIP3    H170819   4.338   2.036  12.707 -0.1517  1.8748  0.8110
16468TIP3    H270820   4.245   2.066  12.823 -0.5831 -1.3769  1.3563
16469TIP3   OH270821   3.914   5.144   1.326  0.0513 -0.6003 -0.5089
16469TIP3    H170822   3.873   5.064   1.293  1.3440 -1.4202 -0.1836
16469TIP3    H270823   3.886   5.150   1.417  0.6623 -1.1631 -0.2839
16470TIP3   OH270824   5.543   5.723  12.019  0.1878  0.1055 -0.0741
16470TIP3    H170825   5.488   5.790  12.058  1.2172  1.1279 -0.3453
16470TIP3    H270826   5.567   5.665  12.092  1.2800  1.4289  0.6383
16471TIP3   OH270827   2.367   1.755  10.833  0.2196  0.5263  0.4890
16471TIP3    H170828   2.361   1.841  10.875 -0.0849  0.2183  1.0804
16471TIP3    H270829   2.456   1.750  10.801  0.4528  0.7777  1.0894
16472TIP3   OH270830   1.476   2.387  11.709 -0.3981  0.3768 -0.0873
16472TIP3    H170831   1.520   2.467  11.739  0.2194 -0.3725  1.0223
16472TIP3    H270832   1.454   2.340  11.789 -0.4004 -0.7704 -0.7548
16473TIP3   OH270833   4.694   2.267  11.817 -0.2464  0.5986  0.0008
16473TIP3    H170834   4.710   2.243  11.909 -1.5915  0.6993  0.2679
16473TIP3    H270835   4.608   2.307  11.817 -1.6059 -2.1405 -1.7901
16474TIP3   OH270836   5.687   0.816   0.984 -0.1123 -0.3042  0.1477
16474TIP3    H170837   5.643   0.756   0.924 -1.5849  0.7016  0.1855
16474TIP3    H270838   5.621   0.882   1.004  1.7980  1.9500 -0.7615
16475TIP3   OH270839   4.243   6.212  15.270  0.4775 -0.2811  0.3229
16475TIP3    H170840   4.317   6.189  15.326  0.1841  1.9434  1.6711
16475TIP3    H270841   4.271   6.292  15.225 -0.4416 -0.3837 -0.4526
16476TIP3   OH270842   1.951   4.479  12.061  0.3062 -0.4625  0.3309
16476TIP3    H170843   1.860   4.507  12.051  0.3344 -0.5778 -0.2622
16476TIP3    H270844   1.996   4.514  11.984  0.5927 -1.1043  0.2042
16477TIP3   OH270845   1.018   0.088   1.287  0.1511  0.2219  0.3154
16477TIP3    H170846   0.960   0.090   1.363  0.3692  0.5729  0.4714
16477TIP3    H270847   1.040  -0.005   1.276  0.8408  0.2759  1.2305
16478TIP3   OH270848   2.183   1.370   3.218 -0.6433 -0.4410  0.0908
16478TIP3    H170849   2.151   1.356   3.307  0.3284 -1.1387  0.3327
16478TIP3    H270850   2.278   1.360   3.224 -0.4924  0.2472 -0.8862
16479TIP3   OH270851   4.685   1.987   3.621  0.3215  0.1328 -0.0695
16479TIP3    H170852   4.693   1.908   3.674 -1.3657 -1.1409 -1.6130
16479TIP3    H270853   4.733   1.967   3.540 -1.0569  0.2068 -0.9317
16480TIP3   OH270854   0.045   2.525   4.336 -0.1800  0.0675  0.4253
16480TIP3    H170855   0.102   2.505   4.262  1.1573  1.1737  1.1446
16480TIP3    H270856  -0.042   2.534   4.297  0.3898 -0.0756 -0.9039
16481TIP3   OH270857   5.086   2.549  16.992  0.0124  0.8414 -0.2666
16481TIP3    H170858   5.135   2.503  16.924  1.5041  0.8093  0.7916
16481TIP3    H270859   5.117   2.639  16.987  1.7443  0.4148  1.7176
16482TIP3   OH270860   0.171   1.757  13.943 -0.0528 -0.2640 -0.2678
16482TIP3    H170861   0.218   1.715  14.016 -1.2277  0.1555  0.7520
16482TIP3    H270862   0.141   1.684  13.889 -0.3733 -0.6607  0.4306
16483TIP3   OH270863   5.635   0.072  15.369 -0.0747 -1.0910  0.2280
16483TIP3    H170864   5.700   0.003  15.350  1.0970  0.2069 -0.5805
16483TIP3    H270865   5.673   0.121  15.442  0.4177  0.3835 -0.9964
16484TIP3   OH270866   5.873   2.903   0.706  0.1358 -0.3422 -0.3542
16484TIP3    H170867   5.870   2.958   0.627 -0.9948 -0.9493 -0.7398
16484TIP3    H270868   5.804   2.938   0.762 -0.3053 -1.0911 -0.4251
16485TIP3   OH270869   3.931   5.365  12.173  0.2089 -0.4480  0.2204
16485TIP3    H170870   3.993   5.427  12.136  1.2662 -0.7486  1.4726
16485TIP3    H270871   3.960   5.279  12.141 -0.2669 -0.4778 -0.1500
16486TIP3   OH270872   5.681   2.491   1.692  0.1486  0.0309  0.1479
16486TIP3    H170873   5.716   2.425   1.752 -0.7940  0.7366  1.5062
16486TIP3    H270874   5.651   2.440   1.616  3.5172 -0.6451 -0.8256
16487TIP3   OH270875   3.309   3.392  14.494  0.2781 -0.1415  0.5550
16487TIP3    H170876   3.333   3.402  14.402 -1.8054 -0.0167 -0.0057
16487TIP3    H270877   3.382   3.431  14.543  2.0420 -1.4638 -0.9903
16488TIP3   OH270878   1.723   4.951   2.589 -0.2573 -0.2829 -0.3047
16488TIP3    H170879   1.658   4.881   2.583 -1.0209  0.4368 -0.5953
16488TIP3    H270880   1.761   4.956   2.501  0.4115 -0.9088 -0.0528
16489TIP3   OH270881   5.485   3.137   2.146 -0.1433  0.6384 -0.1538
16489TIP3    H170882   5.395   3.106   2.138 -0.1835  0.6339  0.2894
16489TIP3    H270883   5.477   3.232   2.158 -0.1763  0.4654  1.3713
16490TIP3   OH270884   5.090   4.709   3.349 -0.6922 -0.6692 -0.2152
16490TIP3    H170885   5.071   4.746   3.435 -2.2581 -2.0377  0.0521
16490TIP3    H270886   5.184   4.721   3.338 -0.9670  2.3538  0.3217
16491TIP3   OH270887   1.522   6.124   4.763  0.1673 -0.4217 -0.1667
16491TIP3    H170888   1.539   6.179   4.840  0.3854  1.4395 -1.4980
16491TIP3    H270889   1.588   6.055   4.767  0.4564 -0.0851  1.0773
16492TIP3   OH270890   4.297   5.176   6.053 -0.3636 -0.4548 -0.1904
16492TIP3    H170891   4.231   5.227   6.006 -1.4540 -1.3885  0.3067
16492TIP3    H270892   4.373   5.177   5.996 -1.3167 -0.6571 -1.4778
16493TIP3   OH270893   2.767   3.075  13.089 -0.1829  0.5989 -0.0958
16493TIP3    H170894   2.690   3.051  13.039 -0.7907  0.8011  0.7293
16493TIP3    H270895   2.755   3.034  13.174  0.8005  0.3266 -0.0742
16494TIP3   OH270896   0.742   0.184   0.327  0.4710  0.4457  0.6281
16494TIP3    H170897   0.774   0.231   0.250  3.1969 -1.4789  0.5118
16494TIP3    H270898   0.698   0.251   0.379  1.5215  2.4684 -1.0032
16495TIP3   OH270899   1.336   2.096  11.885  0.4015  0.2914  0.3009
16495TIP3    H170900   1.287   2.160  11.938  0.4609 -0.8447  1.7610
16495TIP3    H270901   1.409   2.069  11.941  1.3922  0.2462 -0.9820
16496TIP3   OH270902   0.995   0.702  16.095 -0.3820 -0.2538  0.0365
16496TIP3    H170903   0.929   0.763  16.062 -0.9009  1.0982  3.3518
16496TIP3    H270904   0.964   0.678  16.182  2.3475 -1.4254  0.7488
16497TIP3   OH270905   1.592   6.072  12.141  0.0736  0.7653 -0.0801
16497TIP3    H170906   1.540   6.071  12.221  2.4642 -0.3430  1.5291
16497TIP3    H270907   1.564   5.994  12.093 -0.5806  0.8280  0.1985
16498TIP3   OH270908   6.185   4.135   2.948 -0.0295  0.2506  0.5554
16498TIP3    H170909   6.279   4.131   2.933 -0.2715 -1.2761 -0.7491
16498TIP3    H270910   6.147   4.149   2.862 -1.0838 -1.1373  0.7674
16499TIP3   OH270911   4.756   5.737   6.003 -0.2305 -0.1681 -0.3423
16499TIP3    H170912   4.686   5.738   6.068 -1.0373  0.0546 -1.2165
16499TIP3    H270913   4.790   5.647   6.007 -1.4007 -0.6362 -0.8097
16500TIP3   OH270914   3.453   0.799   5.488  0.1275  0.2082 -0.0900
16500TIP3    H170915   3.495   0.804   5.574  1.0900  1.9351 -0.6445
16500TIP3    H270916   3.523   0.817   5.426 -0.1610 -2.7141 -1.3745
16501TIP3   OH270917   2.185   0.274   5.135  0.2758  0.1327  0.2639
16501TIP3    H170918   2.130   0.305   5.063  1.7795 -1.4412 -1.6323
16501TIP3    H270919   2.246   0.346   5.152  1.4955 -0.3820 -1.7455
16502TIP3   OH270920   1.088   0.418  11.714 -0.2025  0.0413 -0.6892
16502TIP3    H170921   1.032   0.431  11.638 -0.0569  0.4609 -0.7303
16502TIP3    H270922   1.053   0.478  11.780  0.1275  0.2279 -0.6812
16503TIP3   OH270923   1.907   6.632   0.779 -0.0084  0.9320  0.4414
16503TIP3    H170924   1.858   6.562   0.820 -1.4488  1.4599 -0.3627
16503TIP3    H270925   1.879   6.632   0.687  1.7348  1.0205 -0.1288
16504TIP3   OH270926   4.794   5.501   4.043  0.1914  0.5698 -0.6986
16504TIP3    H170927   4.720   5.456   4.002 -0.0904 -0.9280  1.3521
16504TIP3    H270928   4.754   5.573   4.092  0.3512  1.2783 -1.6019
16505TIP3   OH270929   2.713   2.933  12.688 -1.0148  0.4008 -0.3235
16505TIP3    H170930   2.719   2.842  12.717 -0.3564  1.1705  2.0942
16505TIP3    H270931   2.641   2.934  12.626 -0.8376 -1.8227 -0.5902
16506TIP3   OH270932   5.625   0.485  13.239  0.5516 -0.0101  0.2497
16506TIP3    H170933   5.661   0.408  13.282 -0.4040 -1.6429 -1.7665
16506TIP3    H270934   5.679   0.496  13.161  0.9797  1.6707  0.7694
16507TIP3   OH270935   3.403   0.245  11.937 -0.1992  0.2488  0.0784
16507TIP3    H170936   3.384   0.321  11.882  0.2484  0.1685 -0.1895
16507TIP3    H270937   3.322   0.195  11.937 -0.4707  0.6826  0.1864
16508TIP3   OH270938   6.348   4.595   1.737  0.7094  0.1294 -0.2434
16508TIP3    H170939   6.282   4.659   1.764 -0.1830 -0.8002 -0.1842
16508TIP3    H270940   6.333   4.520   1.795  1.4148 -0.3300 -0.6499
16509TIP3   OH270941   3.134   4.028   0.328  0.1281 -0.1102 -0.2983
16509TIP3    H170942   3.208   4.005   0.384 -0.9673 -2.2759  0.3130
16509TIP3    H270943   3.066   4.058   0.388  0.0377  0.6114 -0.7479
16510TIP3   OH270944   0.059   3.376   3.772 -0.1141  0.0090 -1.0145
16510TIP3    H170945   0.042   3.425   3.691 -2.4244  0.5295 -0.2614
16510TIP3    H270946   0.042   3.285   3.749 -0.3817  0.1088 -1.2136
16511TIP3   OH270947   2.692   3.291   2.653  0.4288  0.3744 -0.0440
16511TIP3    H170948   2.672   3.198   2.644  0.3040  0.4821 -0.9188
16511TIP3    H270949   2.718   3.301   2.744  0.7002 -0.5725 -0.0102
16512TIP3   OH270950   0.087   3.366  12.440 -0.1727 -0.1183  0.2887
16512TIP3    H170951   0.051   3.440  12.490 -0.8724 -1.3643  1.6556
16512TIP3    H270952   0.166   3.340  12.489 -0.1363 -0.5032  0.0258
16513TIP3   OH270953   1.800   3.783  14.066 -0.4378  0.1210  0.2321
16513TIP3    H170954   1.758   3.718  14.123  0.2019  0.1164  0.7072
16513TIP3    H270955   1.779   3.754  13.978 -2.3974  0.7668  0.4661
16514TIP3   OH270956   4.104   1.823   3.233 -0.4767 -0.2798  0.4648
16514TIP3    H170957   4.148   1.824   3.318  0.2504 -0.0105  0.0924
16514TIP3    H270958   4.126   1.907   3.194  0.2198 -0.8997 -0.4990
16515TIP3   OH270959   5.131   5.017  14.114 -0.0034  0.6397 -0.0809
16515TIP3    H170960   5.075   5.077  14.065 -0.1208  2.3061  1.9878
16515TIP3    H270961   5.070   4.964  14.166  0.1039 -1.2910 -1.8939
16516TIP3   OH270962   4.814   4.482  14.770 -0.4960 -0.0632  0.1467
16516TIP3    H170963   4.884   4.483  14.705  0.8338 -1.5743  1.5019
16516TIP3    H270964   4.743   4.431  14.730  0.0249 -0.3404 -0.4115
16517TIP3   OH270965   1.494   2.404   0.098 -0.3957  0.5239 -0.4700
16517TIP3    H170966   1.472   2.411   0.005 -0.9440 -0.1492 -0.3925
16517TIP3    H270967   1.410   2.389   0.141  0.0267 -0.4866 -0.0039
16518TIP3   OH270968   0.262   2.881   6.293  0.1396  0.3967  0.4289
16518TIP3    H170969   0.339   2.883   6.350 -0.7595  1.2728  1.6387
16518TIP3    H270970   0.216   2.963   6.311 -0.1825  0.6757 -1.5641
16519TIP3   OH270971   4.266   1.248  13.991 -0.2343 -0.1841 -0.0722
16519TIP3    H170972   4.277   1.157  13.964 -0.7951 -0.6362  1.1563
16519TIP3    H270973   4.194   1.280  13.936  1.4088  0.1949 -2.0416
16520TIP3   OH270974   0.522   1.392  11.537  0.1822 -0.3502 -0.0888
16520TIP3    H170975   0.428   1.378  11.523  0.1449  0.8251 -1.1316
16520TIP3    H270976   0.527   1.439  11.621 -0.2961  1.1873 -0.9139
16521TIP3   OH270977   3.568   4.416  10.652  0.3246 -0.5322  0.0722
16521TIP3    H170978   3.539   4.325  10.660  0.5324 -0.4217  2.4639
16521TIP3    H270979   3.487   4.466  10.645  0.1678 -0.8354 -0.2616
16522TIP3   OH270980   4.085   0.944  11.549  0.0319  0.2114  0.0061
16522TIP3    H170981   4.163   0.902  11.512 -0.2697  0.7782 -1.3174
16522TIP3    H270982   4.014   0.881  11.535  0.2504 -0.3483  1.3050
16523TIP3   OH270983   2.134   1.474  16.101  0.0988 -0.0682  0.0655
16523TIP3    H170984   2.057   1.518  16.064  0.6405  0.3868 -0.5355
16523TIP3    H270985   2.186   1.544  16.139  2.1130  0.1568 -2.9438
16524TIP3   OH270986   4.961   0.799   5.285 -0.3784 -0.2708 -0.4839
16524TIP3    H170987   5.023   0.733   5.256  0.0886 -0.1943  0.3208
16524TIP3    H270988   4.971   0.802   5.380  0.4468  1.7677 -0.5953
16525TIP3   OH270989   4.372   2.669   4.902  0.2835 -0.2919 -0.4493
16525TIP3    H170990   4.396   2.753   4.941  0.5220 -0.5766  0.0184
16525TIP3    H270991   4.395   2.604   4.968  2.0178 -0.8960 -1.5850
16526TIP3   OH270992   3.850   3.796   4.869  0.4063 -0.1972 -0.1225
16526TIP3    H170993   3.760   3.814   4.896  1.3484  2.2017  1.6256
16526TIP3    H270994   3.886   3.743   4.939  1.1017  1.0014  0.4313
16527TIP3   OH270995   1.907   6.240   4.530 -0.6638 -0.5887 -0.1624
16527TIP3    H170996   1.911   6.145   4.530 -0.3158 -0.5863 -1.2509
16527TIP3    H270997   1.913   6.265   4.622  1.3892 -1.5364 -0.0094
16528TIP3   OH270998   2.764   6.417  16.031 -0.1456  0.6405 -0.0301
16528TIP3    H170999   2.696   6.350  16.021  0.4639  0.0655 -0.3084
16528TIP3    H271000   2.756   6.446  16.122 -1.3784  1.2351 -0.3170
16529TIP3   OH271001   0.741   5.523   4.851  0.3782  0.1019 -1.1336
16529TIP3    H171002   0.730   5.428   4.855  0.5676  0.1097 -0.4234
16529TIP3    H271003   0.805   5.544   4.920  0.2757  0.7513 -1.2249
16530TIP3   OH271004   0.553   0.174  13.556  0.2505 -0.4451 -0.2488
16530TIP3    H171005   0.518   0.095  13.598  0.0337 -0.5714 -0.6558
16530TIP3    H271006   0.628   0.143  13.505  0.5990 -0.2702  0.1638
16531TIP3   OH271007   0.822   0.003   0.995  0.0345  0.3210 -0.6644
16531TIP3    H171008   0.857  -0.053   1.065  1.3489 -0.9275 -2.2736
16531TIP3    H271009   0.744   0.043   1.033  1.8612  1.3211  2.2606
16532TIP3   OH271010   5.936   4.256  16.786 -0.1324 -0.0058 -0.1935
16532TIP3    H171011   6.002   4.242  16.718  1.3978 -0.1997  1.3098
16532TIP3    H271012   5.929   4.351  16.794  2.6087  0.0563  2.1191
16533TIP3   OH271013   5.596   2.426  14.735  0.1079 -0.5093 -0.0226
16533TIP3    H171014   5.563   2.350  14.687 -0.1759  0.5272 -1.5289
16533TIP3    H271015   5.687   2.434  14.707 -0.0552  0.0897 -0.3957
16534TIP3   OH271016   3.020   2.333  14.627 -0.5791  0.0919 -0.1134
16534TIP3    H171017   3.032   2.269  14.557  0.3400 -0.4047  0.4903
16534TIP3    H271018   3.009   2.281  14.707 -1.0729  0.6617  0.1955
16535TIP3   OH271019   3.731   1.261  12.366 -0.2729  0.3368  0.3514
16535TIP3    H171020   3.807   1.314  12.340 -1.0168  1.4581  0.4383
16535TIP3    H271021   3.704   1.299  12.449 -2.2912  1.3839 -0.7554
16536TIP3   OH271022   3.886   0.973  15.641 -0.8535 -0.0118 -0.3541
16536TIP3    H171023   3.925   0.886  15.634 -0.9938 -0.1134  0.0996
16536TIP3    H271024   3.862   0.981  15.733  0.1465  0.9459 -0.1801
16537TIP3   OH271025   0.140   0.148  12.705 -0.0455  0.8440 -0.0077
16537TIP3    H171026   0.142   0.094  12.626 -2.0371  1.3428 -0.4264
16537TIP3    H271027   0.200   0.220  12.687  1.6095 -0.5100  0.0232
16538TIP3   OH271028   1.729   2.898   4.079 -0.6699  0.2044  0.1114
16538TIP3    H171029   1.781   2.826   4.043  0.2342  1.2572 -0.6937
16538TIP3    H271030   1.694   2.863   4.161  1.2009 -0.5735  0.6050
16539TIP3   OH271031   6.462   1.807  16.659  0.1074 -0.0660 -0.3140
16539TIP3    H171032   6.462   1.720  16.699  1.5986 -0.7092 -1.6180
16539TIP3    H271033   6.544   1.810  16.609  0.4563  2.3917  0.3484
16540TIP3   OH271034   3.485   0.676   0.699  0.3936  0.0985 -0.0245
16540TIP3    H171035   3.393   0.691   0.678  0.2810 -1.4331 -0.6507
16540TIP3    H271036   3.492   0.581   0.711  1.9865  0.1560 -0.4416
16541TIP3   OH271037   6.156   1.683   3.060  0.2793  0.3961  0.2169
16541TIP3    H171038   6.224   1.680   2.993  2.5046 -0.4711  2.4686
16541TIP3    H271039   6.117   1.595   3.058  1.2545 -0.0552  0.9846
16542TIP3   OH271040   6.344   6.010  16.859 -0.4469 -0.5391  0.1904
16542TIP3    H171041   6.366   5.990  16.768  1.1589  0.5830  0.3197
16542TIP3    H271042   6.347   6.105  16.865  0.1057 -0.6334  1.5840
16543TIP3   OH271043   2.966   0.603   0.205  0.4152  0.2384  0.2699
16543TIP3    H171044   2.875   0.574   0.202  0.2503  0.8750 -2.6820
16543TIP3    H271045   3.014   0.527   0.239 -1.1810 -0.1182  1.7879
16544TIP3   OH271046   3.556   5.229   2.048  0.1613 -0.9681  0.2194
16544TIP3    H171047   3.556   5.296   2.116 -2.9212 -2.3613  1.6649
16544TIP3    H271048   3.469   5.232   2.009  1.2766 -1.4246 -2.4908
16545TIP3   OH271049   0.676   6.299  14.283  0.3959  0.9069 -0.0039
16545TIP3    H171050   0.724   6.223  14.317  0.5407  1.6243  1.4432
16545TIP3    H271051   0.745   6.363  14.263  0.3782  0.2642 -2.3698
16546TIP3   OH271052   4.403   3.142   2.686 -0.5304 -0.2336 -0.2166
16546TIP3    H171053   4.377   3.234   2.696  0.1126  0.0064 -0.6975
16546TIP3    H271054   4.404   3.128   2.591  0.0578 -0.5357 -0.1694
16547TIP3   OH271055   3.357   5.818   5.385  0.0863  0.0814  0.0746
16547TIP3    H171056   3.289   5.770   5.339  0.4243  1.2993 -1.7265
16547TIP3    H271057   3.329   5.817   5.477  0.4906 -4.2228  0.2758
16548TIP3   OH271058   4.413   4.941  15.549  0.2765  0.4882 -0.0895
16548TIP3    H171059   4.490   4.997  15.544 -0.9122  2.6186  3.3780
16548TIP3    H271060   4.341   4.996  15.519 -0.4604 -0.1988  0.3757
16549TIP3   OH271061   4.558   4.655   0.281  0.0152 -0.8422  0.1736
16549TIP3    H171062   4.541   4.607   0.200  0.1355  0.3058 -0.5356
16549TIP3    H271063   4.474   4.654   0.327 -0.0425 -1.5283  0.0668
16550TIP3   OH271064   3.911   4.003  15.791  0.2051 -0.1824  0.2318
16550TIP3    H171065   3.891   3.955  15.711 -4.3455  3.3650 -0.9825
16550TIP3    H271066   3.987   4.056  15.769 -0.9212  0.6483 -1.7984
16551TIP3   OH271067   5.447   3.801   4.115 -0.6028 -0.4502 -0.2311
16551TIP3    H171068   5.497   3.863   4.169  0.8194 -2.3194  0.6593
16551TIP3    H271069   5.431   3.848   4.034  1.1052  0.8512  0.1471
16552TIP3   OH271070   6.040   4.564   0.901  0.3416  0.2129 -0.8854
16552TIP3    H171071   5.973   4.507   0.863  1.1284 -0.7911 -0.8060
16552TIP3    H271072   6.080   4.608   0.827  1.1043 -0.8817 -1.1293
16553TIP3   OH271073   6.555   2.008  14.437  0.0849 -0.1422 -0.1333
16553TIP3    H171074   6.477   1.968  14.399 -0.1435  0.3230 -0.1614
16553TIP3    H271075   6.602   1.935  14.479  0.4294 -0.6899 -1.4426
16554TIP3   OH271076   3.318   0.872   1.165 -0.3037  0.1610  0.3412
16554TIP3    H171077   3.317   0.777   1.176  1.6843  0.3189  2.2706
16554TIP3    H271078   3.378   0.904   1.233 -1.1249  2.8176 -0.0995
16555TIP3   OH271079   4.556   0.834   5.860  0.5989  0.4394  0.0887
16555TIP3    H171080   4.632   0.845   5.918  1.6058 -0.9959 -0.9427
16555TIP3    H271081   4.484   0.810   5.920  0.6972  2.7324  1.1813
16556TIP3   OH271082   1.057   3.541  15.039  0.1378 -0.4524  0.3846
16556TIP3    H171083   1.095   3.608  14.983  0.5682  0.0755  1.2890
16556TIP3    H271084   0.983   3.585  15.082 -1.3049 -1.3723 -1.1024
16557TIP3   OH271085   2.274   3.027  15.604  0.5472 -0.1431 -0.2087
16557TIP3    H171086   2.289   3.027  15.509  1.2000 -0.9756 -0.1176
16557TIP3    H271087   2.334   3.094  15.638 -1.3654  1.8057 -0.6131
16558TIP3   OH271088   6.106   6.174   2.682  0.3529  0.9970  0.5908
16558TIP3    H171089   6.044   6.125   2.627 -0.2121  1.7724  0.5387
16558TIP3    H271090   6.166   6.214   2.620  0.6009  0.6700  0.6168
16559TIP3   OH271091   2.828   6.396   0.961 -0.0772 -0.5705  0.6344
16559TIP3    H171092   2.775   6.358   0.891  0.6287 -0.1433 -0.1421
16559TIP3    H271093   2.771   6.395   1.038 -1.3034  0.1553 -0.2471
16560TIP3   OH271094   6.653   1.021   4.085 -0.2762 -0.5706 -0.5104
16560TIP3    H171095   6.609   0.936   4.093 -0.9409 -0.3545 -1.7022
16560TIP3    H271096   6.592   1.075   4.035  2.1226 -0.8549 -3.8863
16561TIP3   OH271097   4.236   1.239   1.314 -0.1389 -0.5667 -0.0417
16561TIP3    H171098   4.156   1.287   1.294  0.7543  0.8315 -0.3709
16561TIP3    H271099   4.207   1.155   1.349 -1.7398 -0.3932 -0.9393
16562TIP3   OH271100   2.965   4.140   3.042 -0.2214 -0.0649 -0.4567
16562TIP3    H171101   3.007   4.063   3.005  0.7129 -0.0668  0.6024
16562TIP3    H271102   2.872   4.116   3.049  0.3256 -1.7705  1.5145
16563TIP3   OH271103   3.685   1.334  11.397 -0.5091  0.5054 -0.3087
16563TIP3    H171104   3.606   1.364  11.442 -0.2476  0.0546  0.4563
16563TIP3    H271105   3.716   1.259  11.449  1.1676  1.5070  0.1999
16564TIP3   OH271106   5.739   2.129  10.601  0.2054 -0.6702  0.2665
16564TIP3    H171107   5.832   2.111  10.590  0.4402 -1.0469  2.5187
16564TIP3    H271108   5.724   2.210  10.553  1.0767 -2.1008 -2.4758
16565TIP3   OH271109   4.795   6.473   4.322  0.3133  0.3185  0.3131
16565TIP3    H171110   4.743   6.501   4.247  1.2366  0.3704 -0.3146
16565TIP3    H271111   4.877   6.442   4.284  0.0974 -1.3566  1.1435
16566TIP3   OH271112   3.509   4.260   5.143  0.0043  0.3791  0.7923
16566TIP3    H171113   3.537   4.335   5.196  0.1795  0.2418  0.8943
16566TIP3    H271114   3.550   4.185   5.185  2.1958  0.5253 -0.9900
16567TIP3   OH271115   3.327   1.869  13.830 -0.1157  0.3168  0.1896
16567TIP3    H171116   3.367   1.809  13.894  1.1843  0.6500 -0.2957
16567TIP3    H271117   3.234   1.845  13.830  0.4693 -2.0702 -0.4023
16568TIP3   OH271118   6.599   5.070   1.125 -0.7545  0.7953  0.6044
16568TIP3    H171119   6.651   5.047   1.202 -1.1058 -1.0842  0.3006
16568TIP3    H271120   6.515   5.027   1.138 -0.9665  0.8018 -0.6300
16569TIP3   OH271121   3.241   2.839  13.162  0.2308 -0.3850 -0.4912
16569TIP3    H171122   3.155   2.868  13.192 -0.1783  0.8198 -2.7486
16569TIP3    H271123   3.302   2.903  13.199  0.4500 -2.3046  2.7146
16570TIP3   OH271124   1.853   5.815  11.774 -0.6040 -0.3917  0.0323
16570TIP3    H171125   1.929   5.777  11.730 -0.8122  0.4296 -1.0371
16570TIP3    H271126   1.871   5.801  11.867  0.8911 -0.1462 -0.2022
16571TIP3   OH271127   4.449   2.405  11.845 -0.4302 -0.8124  0.3521
16571TIP3    H171128   4.404   2.434  11.924 -1.3865 -1.3633  0.0198
16571TIP3    H271129   4.389   2.342  11.805  0.3354 -1.0325 -0.4626
16572TIP3   OH271130   4.745   4.712   1.386 -0.4481  0.3285  0.3259
16572TIP3    H171131   4.688   4.638   1.368  0.2363 -0.6245  1.9690
16572TIP3    H271132   4.802   4.718   1.309 -0.3459 -1.0048  0.2900
16573TIP3   OH271133   0.020   1.517  12.376  0.5823  0.1751  1.1902
16573TIP3    H171134  -0.032   1.464  12.316  0.3402  2.5605 -0.7835
16573TIP3    H271135  -0.023   1.505  12.461 -2.5483  1.1773 -0.1795
16574TIP3   OH271136   6.071   2.789   0.253 -0.0314  0.2968 -0.5891
16574TIP3    H171137   6.084   2.879   0.282 -0.5316 -0.5234  2.2897
16574TIP3    H271138   6.097   2.735   0.328  1.7007 -2.0365 -2.7736
16575TIP3   OH271139   6.704   1.571   1.188  0.7550 -0.0707  0.1182
16575TIP3    H171140   6.774   1.577   1.252  0.5095  0.6816  0.3193
16575TIP3    H271141   6.623   1.583   1.239  0.5205 -0.2302 -0.2129
16576TIP3   OH271142   5.465   4.035  11.001  0.8801 -0.5826 -0.4065
16576TIP3    H171143   5.506   4.014  11.085  0.1611  0.7651  0.2884
16576TIP3    H271144   5.414   3.956  10.979 -1.3400  0.1612  1.9145
16577TIP3   OH271145   2.134   4.800  12.668 -0.5371  0.5558 -0.0831
16577TIP3    H171146   2.066   4.793  12.735  1.5368 -0.1894  2.0186
16577TIP3    H271147   2.200   4.736  12.694  0.8563  1.0751 -2.2136
16578TIP3   OH271148   1.760   5.635   1.335  0.1130  0.7456 -0.4507
16578TIP3    H171149   1.716   5.712   1.370  1.0232  0.1038  2.2167
16578TIP3    H271150   1.852   5.662   1.324 -0.0502  0.7723 -1.8658
16579TIP3   OH271151   4.226   2.532   6.233 -0.0186  0.5223 -0.2760
16579TIP3    H171152   4.154   2.559   6.176 -0.8475  1.4671  1.1748
16579TIP3    H271153   4.295   2.504   6.174 -1.4011  0.0922 -1.7050
16580TIP3   OH271154   5.958   0.092  11.158 -0.0693 -0.0946 -0.4532
16580TIP3    H171155   6.012   0.081  11.236  1.0870  0.3519 -1.1845
16580TIP3    H271156   5.897   0.018  11.160  2.0884 -1.9492 -0.8499
16581TIP3   OH271157   3.327   0.491   2.250 -0.5715  0.2371  0.2546
16581TIP3    H171158   3.283   0.565   2.208  0.7916  0.7595 -0.3017
16581TIP3    H271159   3.262   0.455   2.311 -2.1487  0.2344 -1.4001
16582TIP3   OH271160   0.081   5.493  15.611 -0.5504  0.3681  0.2551
16582TIP3    H171161   0.012   5.501  15.545 -0.2947  2.4742  0.1859
16582TIP3    H271162   0.144   5.431  15.574 -1.5060 -0.1606 -0.4816
16583TIP3   OH271163   2.148   2.450  12.865  0.1683  0.1319 -0.2188
16583TIP3    H171164   2.202   2.472  12.788  0.9299 -0.5885  0.1018
16583TIP3    H271165   2.193   2.492  12.938 -0.5148  0.7513 -0.1481
16584TIP3   OH271166   6.421   3.182  14.359  0.1799  0.7392  0.3625
16584TIP3    H171167   6.489   3.189  14.292  1.5029 -0.7365  1.5199
16584TIP3    H271168   6.340   3.202  14.312  1.4044  2.7250 -0.9856
16585TIP3   OH271169   0.663   3.677  10.435  0.9376  0.1962 -0.2030
16585TIP3    H171170   0.747   3.630  10.438 -1.3560 -4.2595 -1.6707
16585TIP3    H271171   0.612   3.639  10.506 -0.4906  1.6890 -0.4078
16586TIP3   OH271172   1.747   5.630  10.347 -0.0653 -0.4272  0.2517
16586TIP3    H171173   1.840   5.642  10.326  0.0204  0.1288  0.9294
16586TIP3    H271174   1.715   5.569  10.280 -0.4617  3.3924 -3.1883
16587TIP3   OH271175   6.020   1.122   0.933 -0.1497  0.2870  0.1415
16587TIP3    H171176   5.991   1.125   1.024  2.0187 -0.7850  0.9197
16587TIP3    H271177   6.022   1.028   0.912 -0.0757  0.5000 -0.8173
16588TIP3   OH271178   3.155   2.400   0.673 -0.8435  0.0045  0.1213
16588TIP3    H171179   3.115   2.353   0.601 -2.6262  1.2043  0.3237
16588TIP3    H271180   3.224   2.453   0.633 -1.8458  0.6862 -0.6854
16589TIP3   OH271181   6.700   1.194  10.578  0.4220 -0.0392 -0.1337
16589TIP3    H171182   6.615   1.192  10.535  0.4985 -2.8415 -0.2163
16589TIP3    H271183   6.681   1.177  10.671  0.5792  2.7775  0.4573
16590TIP3   OH271184   6.787   3.041   0.702  0.0714  0.3871  0.0532
16590TIP3    H171185   6.825   3.085   0.626  0.2432  1.8686  0.9748
16590TIP3    H271186   6.749   2.961   0.666  1.1043  0.5262 -1.4146
16591TIP3   OH271187   5.532   4.824  14.691  0.2034  0.1266 -0.4602
16591TIP3    H171188   5.467   4.875  14.642 -0.1660 -1.0693 -1.2414
16591TIP3    H271189   5.531   4.738  14.648  0.8827 -0.5014  0.7829
16592TIP3   OH271190   2.808   6.514   5.399 -0.6232 -0.0328  0.6478
16592TIP3    H171191   2.737   6.456   5.427 -1.4403  0.0523 -1.1486
16592TIP3    H271192   2.862   6.460   5.341 -0.2297  0.4038  0.6069
16593TIP3   OH271193   2.100   5.571   4.838  0.9024  0.1834  0.2603
16593TIP3    H171194   2.177   5.516   4.820  0.6965 -0.8083  2.2401
16593TIP3    H271195   2.136   5.658   4.855  1.4463  0.1158 -0.5654
16594TIP3   OH271196   2.970   4.409   1.990 -0.8243  1.2642  0.4200
16594TIP3    H171197   3.046   4.372   2.034 -1.2869  0.8368  0.8641
16594TIP3    H271198   2.978   4.380   1.899 -1.0759  0.2273  0.7225
16595TIP3   OH271199   6.279   2.387  15.348 -0.2557 -0.1453  0.0796
16595TIP3    H171200   6.344   2.333  15.304 -1.3303 -1.0112 -0.4830
16595TIP3    H271201   6.197   2.338  15.338 -0.8565  0.5602  1.4069
16596TIP3   OH271202   4.951   6.673  12.672  0.7304 -0.0952  0.5463
16596TIP3    H171203   5.014   6.732  12.632  0.7223  0.5302  1.4428
16596TIP3    H271204   4.959   6.689  12.766  1.7260 -2.4947  0.9261
16597TIP3   OH271205   2.816   2.023   0.241 -0.1315 -0.3799  0.2567
16597TIP3    H171206   2.775   2.039   0.326 -0.0329 -0.2475  0.2803
16597TIP3    H271207   2.881   2.093   0.233 -0.2344 -0.3131  0.0137
16598TIP3   OH271208   2.011   1.666  11.480 -0.0495  0.7161  0.0663
16598TIP3    H171209   2.059   1.645  11.400 -1.1344  0.4989 -0.5499
16598TIP3    H271210   2.078   1.673  11.548  0.8487  0.5308 -0.7877
16599TIP3   OH271211   3.864   3.693   3.832 -0.4155  0.3341  0.2543
16599TIP3    H171212   3.925   3.711   3.904 -1.0482 -2.2076  1.4995
16599TIP3    H271213   3.903   3.736   3.756  3.0822 -1.4068  0.9567
16600TIP3   OH271214   5.587   6.473   4.630  0.7112  0.3118  0.0606
16600TIP3    H171215   5.508   6.519   4.657 -0.4747  0.0039 -2.6882
16600TIP3    H271216   5.656   6.540   4.635 -0.2644  1.3618 -0.1735
16601TIP3   OH271217   0.839   2.329   3.266 -0.0764  0.1561  0.0688
16601TIP3    H171218   0.748   2.304   3.280 -0.1906  0.0475 -0.8870
16601TIP3    H271219   0.835   2.405   3.207  0.2975  2.0121  2.3437
16602TIP3   OH271220   5.333   6.219  12.103  0.1545 -0.1565  0.1237
16602TIP3    H171221   5.292   6.249  12.022  1.3029 -1.1616 -0.8423
16602TIP3    H271222   5.276   6.253  12.172 -1.6474 -0.5095 -1.1502
16603TIP3   OH271223   4.004   0.125  15.920  0.0638  0.0221 -0.2696
16603TIP3    H171224   3.956   0.095  15.997  0.1722  0.3900 -0.0561
16603TIP3    H271225   3.985   0.219  15.915  2.6279  0.6693  1.2132
16604TIP3   OH271226   3.702   3.203  12.995 -0.0411 -0.0089 -0.3643
16604TIP3    H171227   3.623   3.245  13.031 -0.8017 -1.0169 -0.8262
16604TIP3    H271228   3.766   3.207  13.066  0.9772  4.7338 -1.4031
16605TIP3   OH271229   3.262   4.538   1.788  0.3565  0.1620 -0.2646
16605TIP3    H171230   3.210   4.617   1.773 -1.2651 -0.5671  1.3547
16605TIP3    H271231   3.204   4.466   1.765  0.7356 -0.6665  1.2837
16606TIP3   OH271232   3.154   5.582  11.241 -0.0820  0.1801 -0.3257
16606TIP3    H171233   3.164   5.544  11.154 -1.1734  1.2976 -0.9512
16606TIP3    H271234   3.076   5.638  11.234 -1.1986 -1.0392  1.8236
16607TIP3   OH271235   6.412   5.714  13.414 -0.2534  0.0119  0.0829
16607TIP3    H171236   6.322   5.697  13.386  0.1386 -0.1304 -1.1042
16607TIP3    H271237   6.459   5.633  13.395  0.1274  0.0727  0.7304
16608TIP3   OH271238   2.276   0.278   1.470  0.4175 -0.4614  0.0360
16608TIP3    H171239   2.197   0.256   1.520  0.2420  0.2433  0.0734
16608TIP3    H271240   2.307   0.194   1.436 -1.5867 -0.5174 -1.7948
16609TIP3   OH271241   6.491   1.823   1.706 -0.4158 -1.1325 -0.6140
16609TIP3    H171242   6.440   1.753   1.665 -2.8416  2.6309 -4.4597
16609TIP3    H271243   6.427   1.889   1.732  1.9715  1.0662 -0.0213
16610TIP3   OH271244   2.766   0.864   4.523  0.1378  0.5905 -0.0217
16610TIP3    H171245   2.730   0.822   4.601  0.8528 -0.4106 -0.2271
16610TIP3    H271246   2.696   0.922   4.493 -0.1243  1.0407  1.3906
16611TIP3   OH271247   6.603   2.186  13.595  0.4868 -0.0361 -0.4215
16611TIP3    H171248   6.679   2.212  13.542  0.1389 -0.7314 -1.2671
16611TIP3    H271249   6.546   2.263  13.593  0.6576  0.0850 -0.7238
16612TIP3   OH271250   2.750   5.153  11.568  0.5004  0.6329 -0.0188
16612TIP3    H171251   2.679   5.108  11.614  1.7546 -1.8827 -0.4091
16612TIP3    H271252   2.753   5.109  11.482  2.0591  1.1792 -0.2546
16613TIP3   OH271253   4.784   4.637  15.778 -0.5209 -0.4676 -0.8287
16613TIP3    H171254   4.872   4.614  15.807 -1.1978 -0.6367  1.1637
16613TIP3    H271255   4.776   4.730  15.800 -0.9509 -0.5323 -0.7177
16614TIP3   OH271256   4.560   4.043  15.262 -0.1054  0.1242 -0.2141
16614TIP3    H171257   4.543   4.087  15.345  0.2103  0.3534 -0.2695
16614TIP3    H271258   4.655   4.049  15.251 -0.0989 -0.2558 -0.3970
16615TIP3   OH271259   1.755   5.706  15.566 -0.3463 -0.2864 -0.2096
16615TIP3    H171260   1.776   5.701  15.659  0.0059 -0.3549 -0.2903
16615TIP3    H271261   1.835   5.675  15.522 -0.3101  0.2760 -0.5458
16616TIP3   OH271262   4.423   2.218  14.707  0.3687 -0.4525 -0.0289
16616TIP3    H171263   4.409   2.264  14.624  3.8452  1.5127  0.3815
16616TIP3    H271264   4.477   2.143  14.683  0.1240 -0.7159  0.2510
16617TIP3   OH271265   4.778   0.044   2.602 -0.4372  0.8013  0.2319
16617TIP3    H171266   4.688   0.020   2.579 -0.4782  0.5486  0.6604
16617TIP3    H271267   4.772   0.079   2.691 -0.3870  2.4429 -0.3829
16618TIP3   OH271268   0.656   5.509  11.337 -0.3815  0.0473 -0.7271
16618TIP3    H171269   0.565   5.490  11.313 -0.4032  1.2705 -1.6993
16618TIP3    H271270   0.661   5.490  11.431 -0.6875 -3.4572 -1.3728
16619TIP3   OH271271   4.031   0.554   6.497  0.1241  0.0543 -0.3752
16619TIP3    H171272   3.956   0.564   6.556 -0.4968 -0.1719 -1.1237
16619TIP3    H271273   4.103   0.597   6.543 -0.4862  0.3692  0.2974
16620TIP3   OH271274   1.289   4.412  13.188 -0.9767  0.1605 -0.3445
16620TIP3    H171275   1.303   4.347  13.119  2.0889 -0.9154  1.1726
16620TIP3    H271276   1.325   4.493  13.152 -0.0787 -0.2161 -0.3039
16621TIP3   OH271277   6.575   3.689  12.648 -0.1446  0.0166  0.0254
16621TIP3    H171278   6.486   3.683  12.615  0.5628  0.2023 -1.9392
16621TIP3    H271279   6.566   3.676  12.743 -2.2954  0.5132 -0.0951
16622TIP3   OH271280   2.454   1.047   6.191  0.1578  0.2209  0.3541
16622TIP3    H171281   2.369   1.003   6.198  0.9317 -1.4043 -0.4268
16622TIP3    H271282   2.506   1.012   6.264 -0.1254  1.9404  1.4330
16623TIP3   OH271283   0.644   0.124  13.127 -0.0945 -0.2845 -0.3065
16623TIP3    H171284   0.708   0.195  13.119  1.2634 -1.5332 -0.6218
16623TIP3    H271285   0.669   0.061  13.060 -1.6550 -0.8043 -0.4163
16624TIP3   OH271286   2.561   1.365   4.180  0.1862 -0.0591 -0.3387
16624TIP3    H171287   2.597   1.279   4.201 -0.0997 -0.5576 -1.8264
16624TIP3    H271288   2.488   1.376   4.241 -0.6491 -1.4791 -1.0603
16625TIP3   OH271289   6.052   6.344  14.004  0.0462  0.3486 -0.0046
16625TIP3    H171290   5.968   6.297  14.009 -0.2525  0.7920 -0.8143
16625TIP3    H271291   6.030   6.430  13.968  1.3191 -0.8320 -3.8779
16626TIP3   OH271292   5.543   1.494   4.241 -0.2569  0.1635 -0.6945
16626TIP3    H171293   5.586   1.517   4.159  3.2793 -0.4268  0.8821
16626TIP3    H271294   5.505   1.408   4.224  0.9716 -0.2304 -1.5549
16627TIP3   OH271295   5.548   5.018  13.541 -0.0888 -0.3765  0.3423
16627TIP3    H171296   5.543   4.931  13.502 -0.2502  0.0638 -0.6284
16627TIP3    H271297   5.482   5.017  13.611  0.3785 -1.2518  0.7849
16628TIP3   OH271298   6.620   4.497  11.274 -0.0214  0.2495 -0.0624
16628TIP3    H171299   6.633   4.448  11.193  1.4895  1.4460 -0.5756
16628TIP3    H271300   6.621   4.589  11.248 -1.9002  0.6184  1.0089
16629TIP3   OH271301   3.375   6.588   0.393 -0.0962  0.6218  0.0302
16629TIP3    H171302   3.389   6.646   0.318  0.6448 -1.4310 -1.4639
16629TIP3    H271303   3.463   6.558   0.417 -0.6503 -1.8020 -0.8118
16630TIP3   OH271304   5.037   3.366  16.304 -0.3639 -0.0223  0.0667
16630TIP3    H171305   4.969   3.431  16.324  0.0950  0.6249 -0.4954
16630TIP3    H271306   5.071   3.341  16.390 -0.4464  0.5845  0.2783
16631TIP3   OH271307   4.546   6.267   4.906  0.3609  0.0619  0.1015
16631TIP3    H171308   4.489   6.338   4.877  1.3641  0.8261 -0.0263
16631TIP3    H271309   4.486   6.203   4.945 -0.6275  0.6310 -0.4510
16632TIP3   OH271310   0.265   1.957   1.395 -0.0286 -0.0003  0.2476
16632TIP3    H171311   0.310   1.875   1.374  0.5825  0.4111 -0.0507
16632TIP3    H271312   0.294   1.979   1.484 -1.2914 -0.8439  0.8850
16633TIP3   OH271313   2.832   6.058   5.750  0.1387  0.1423  0.1268
16633TIP3    H171314   2.842   6.115   5.673  0.3603  0.5364  0.4499
16633TIP3    H271315   2.921   6.036   5.775  0.0442 -2.4386 -1.5422
16634TIP3   OH271316   0.675   3.521   5.620  0.8336 -0.4972 -0.1731
16634TIP3    H171317   0.713   3.575   5.551  0.0387  0.9820  0.5269
16634TIP3    H271318   0.749   3.499   5.676  1.4471 -1.5329 -1.3757
16635TIP3   OH271319   1.010   3.766  13.522 -0.1860  0.5510  0.7602
16635TIP3    H171320   1.001   3.828  13.450 -0.5662 -0.1976  0.1554
16635TIP3    H271321   1.080   3.707  13.494 -1.2724 -0.5751  0.3870
16636TIP3   OH271322   1.087   0.890   3.412  0.0888  0.1358  0.2492
16636TIP3    H171323   1.005   0.860   3.372 -0.7374  0.7443  1.4543
16636TIP3    H271324   1.130   0.809   3.440 -0.5719 -0.1362  0.5005
16637TIP3   OH271325   6.098   5.688  14.697 -0.1556  0.3346 -0.4108
16637TIP3    H171326   6.098   5.784  14.694 -0.3912  0.4095  1.6924
16637TIP3    H271327   6.021   5.663  14.647  0.7859  1.1693 -2.3444
16638TIP3   OH271328   3.740   3.789  16.661 -0.8375  0.0398  0.2771
16638TIP3    H171329   3.686   3.806  16.739 -0.1905  0.2269  0.6905
16638TIP3    H271330   3.727   3.695  16.644 -0.6813 -0.0889  0.8425
16639TIP3   OH271331   1.426   3.016   6.427  0.4378 -0.3828  0.1822
16639TIP3    H171332   1.483   3.082   6.389 -2.0523  0.8924 -1.4492
16639TIP3    H271333   1.404   2.957   6.354  0.2264 -1.2772  0.9489
16640TIP3   OH271334   5.819   2.127   0.936  0.3590 -0.5241 -0.2168
16640TIP3    H171335   5.828   2.222   0.945  1.1938 -0.7490  1.7095
16640TIP3    H271336   5.883   2.103   0.870 -0.4500  0.3479 -1.3408
16641TIP3   OH271337   5.815   3.547  16.477 -0.0414  0.2894 -0.0653
16641TIP3    H171338   5.790   3.572  16.566 -1.3672  2.1718 -0.9374
16641TIP3    H271339   5.751   3.480  16.453  1.3085 -1.4063  0.9614
16642TIP3   OH271340   4.117   3.298   3.749  0.7902 -0.4324  0.1144
16642TIP3    H171341   4.022   3.307   3.742  0.7500  0.0608  1.2361
16642TIP3    H271342   4.148   3.300   3.659 -0.2763 -0.7565 -0.2656
16643TIP3   OH271343   0.792   4.592  14.264  0.3106  0.6371 -0.2127
16643TIP3    H171344   0.822   4.682  14.278 -1.0055  1.3082 -1.4095
16643TIP3    H271345   0.714   4.603  14.209 -1.3208 -1.0854  1.6944
16644TIP3   OH271346   3.648   3.214   2.672  0.5018 -0.6425  0.0207
16644TIP3    H171347   3.719   3.153   2.652  0.1341 -1.1596  0.3016
16644TIP3    H271348   3.654   3.280   2.603 -0.8309 -2.4626 -1.8778
16645TIP3   OH271349   2.999   5.732  15.801 -0.1972 -0.0023  0.1181
16645TIP3    H171350   3.057   5.803  15.773 -0.8306  0.9226  1.1124
16645TIP3    H271351   3.054   5.654  15.798 -0.0628  0.1247 -3.0945
16646TIP3   OH271352   5.972   3.141  12.472  0.6382 -0.8175 -0.1171
16646TIP3    H171353   6.034   3.114  12.405  2.1710 -0.0098  0.9374
16646TIP3    H271354   5.937   3.058  12.507  2.2664 -1.3483  0.3123
16647TIP3   OH271355   2.825   4.316   2.250 -0.0874  0.1621 -0.0700
16647TIP3    H171356   2.880   4.349   2.178 -1.3191 -1.2113 -1.6711
16647TIP3    H271357   2.798   4.229   2.222 -1.6012  0.0865  1.5273
16648TIP3   OH271358   6.335   3.608  12.054  0.3060 -0.3648 -0.2632
16648TIP3    H171359   6.372   3.572  11.973  0.7168 -0.7108  0.0788
16648TIP3    H271360   6.304   3.695  12.029  0.5459 -0.4204 -0.7651
16649TIP3   OH271361   2.199   5.879   0.859 -0.3997  0.2687  0.1672
16649TIP3    H171362   2.280   5.835   0.886 -1.0671 -0.3919  1.1253
16649TIP3    H271363   2.211   5.894   0.765  0.8658  0.2528  0.3070
16650TIP3   OH271364   5.328   5.265  13.485  0.2905 -0.0009 -0.6264
16650TIP3    H171365   5.329   5.201  13.556  0.1935  0.3256 -0.3273
16650TIP3    H271366   5.256   5.237  13.428  0.5438 -0.4171 -0.7350
16651TIP3   OH271367   0.948   1.058   2.111  1.5590 -0.8750  0.2456
16651TIP3    H171368   0.885   1.005   2.160 -1.3032  0.8865 -1.3765
16651TIP3    H271369   0.970   1.130   2.169  3.2407 -2.2370  1.3548
16652TIP3   OH271370   4.950   0.946  12.523 -0.0923 -0.6188  0.0826
16652TIP3    H171371   5.018   0.927  12.458  0.4500 -0.4111  0.5779
16652TIP3    H271372   4.988   0.918  12.606 -0.6111 -0.4895  0.3673
16653TIP3   OH271373   3.707   6.074   2.516  0.1481  0.2542 -0.4847
16653TIP3    H171374   3.722   6.109   2.604 -0.4317  1.6856 -0.9258
16653TIP3    H271375   3.613   6.089   2.501  0.4011  0.7179 -1.6274
16654TIP3   OH271376   5.719   1.835   5.481 -0.2436  0.0390  0.5638
16654TIP3    H171377   5.636   1.787   5.471 -1.4408  1.8965  1.3909
16654TIP3    H271378   5.735   1.835   5.575  0.8356 -0.5006  0.3873
16655TIP3   OH271379   6.008   3.411   4.069 -0.3356 -0.8698 -0.0046
16655TIP3    H171380   6.091   3.408   4.021 -0.6886 -0.1223 -0.6959
16655TIP3    H271381   5.943   3.429   4.001 -0.6476  1.9701  0.9633
16656TIP3   OH271382   3.313   4.255  14.791  0.4394 -0.3860 -0.5496
16656TIP3    H171383   3.268   4.334  14.820  0.0281 -0.2839 -1.4491
16656TIP3    H271384   3.267   4.229  14.711  0.2761 -1.8036 -0.0094
16657TIP3   OH271385   3.842   4.478  11.768  0.1000  0.1491  0.1167
16657TIP3    H171386   3.748   4.478  11.753 -0.0446 -1.3898  0.9918
16657TIP3    H271387   3.855   4.542  11.838 -0.4651 -0.7375  1.0348
16658TIP3   OH271388   5.202   5.239   5.821  0.4624  0.2755  0.3008
16658TIP3    H171389   5.227   5.269   5.909  2.3762  1.1142 -0.5182
16658TIP3    H271390   5.178   5.147   5.834  0.7777  0.3729  1.7000
16659TIP3   OH271391   2.880   5.028  12.197 -0.0469  0.1259  0.0668
16659TIP3    H171392   2.902   5.057  12.286  0.3494 -1.8402  0.6364
16659TIP3    H271393   2.785   5.019  12.197  0.0848 -1.3277  0.7596
16660TIP3   OH271394   2.379   5.194  12.291  1.1494  0.7224 -0.0993
16660TIP3    H171395   2.467   5.181  12.326  0.5214 -0.0101  1.2181
16660TIP3    H271396   2.325   5.211  12.367 -0.0154  0.3054 -0.8258
16661TIP3   OH271397   5.946   0.813   0.899 -0.0232 -0.0707 -0.1023
16661TIP3    H171398   5.868   0.808   0.954 -0.0007 -0.9394 -0.1341
16661TIP3    H271399   5.920   0.773   0.816  0.5299 -0.6281 -0.0131
16662TIP3   OH271400   4.576   4.851  15.756 -0.7047  0.0990  0.5352
16662TIP3    H171401   4.593   4.788  15.686  0.8236  0.2688  0.7307
16662TIP3    H271402   4.563   4.934  15.711 -0.4772  0.0681  0.4132
16663TIP3   OH271403   2.831   0.233  10.688 -0.5140  0.3886 -0.5098
16663TIP3    H171404   2.919   0.265  10.670 -0.6330  1.2144  0.3357
16663TIP3    H271405   2.774   0.309  10.672 -0.7602  0.7703  1.9382
16664TIP3   OH271406   4.865   3.177   1.934  0.2944  0.1869 -0.0413
16664TIP3    H171407   4.779   3.143   1.910  0.6070  0.1175 -1.1105
16664TIP3    H271408   4.921   3.100   1.939  0.4049  0.2805  0.1747
16665TIP3   OH271409   2.255   2.073  16.415  0.0753 -0.2793 -0.2859
16665TIP3    H171410   2.290   1.991  16.452 -0.5342  0.1445  1.2657
16665TIP3    H271411   2.161   2.058  16.407 -0.1227  0.4725  0.5650
16666TIP3   OH271412   4.125   0.490   5.501 -0.1113 -0.5430 -0.0891
16666TIP3    H171413   4.180   0.547   5.447  0.4317 -0.9393  0.0497
16666TIP3    H271414   4.036   0.509   5.472  0.2206 -1.2950 -1.6786
16667TIP3   OH271415   2.671   2.896   4.452 -0.3304  0.0118  0.3665
16667TIP3    H171416   2.578   2.915   4.466 -0.2244  0.8184 -0.0312
16667TIP3    H271417   2.717   2.955   4.512 -0.0367  0.3366 -0.1786
16668TIP3   OH271418   2.417   3.968  15.926 -0.3316 -0.4803 -0.1479
16668TIP3    H171419   2.465   3.997  15.848  0.0179  1.0326  0.6103
16668TIP3    H271420   2.346   4.031  15.935  0.2055 -0.0714  1.3028
16669TIP3   OH271421   3.059   2.131  14.411 -0.1048  0.3983 -0.6029
16669TIP3    H171422   3.141   2.083  14.422  1.5703  3.4790  1.1666
16669TIP3    H271423   3.067   2.173  14.326  0.0860  0.6140 -0.4766
16670TIP3   OH271424   3.385   0.834   4.415 -0.3724 -0.2672 -0.3529
16670TIP3    H171425   3.303   0.870   4.447 -0.0395  0.2594 -0.0943
16670TIP3    H271426   3.386   0.744   4.448 -0.0967  0.2242  1.0285
16671TIP3   OH271427   1.138   3.643  15.662 -0.1633  0.3224 -0.4539
16671TIP3    H171428   1.114   3.711  15.726 -1.5741 -1.0617  0.5257
16671TIP3    H271429   1.152   3.564  15.715  1.6511 -0.1262 -1.5545
16672TIP3   OH271430   0.809   1.262   2.262  0.7101  0.2798 -0.3664
16672TIP3    H171431   0.764   1.334   2.217 -0.4321 -1.2077 -1.6473
16672TIP3    H271432   0.838   1.301   2.344 -0.3871  2.0729 -0.7855
16673TIP3   OH271433   5.117   0.405   4.218 -0.7500  0.0384 -0.1586
16673TIP3    H171434   5.139   0.465   4.147  0.3552  2.1119  1.8681
16673TIP3    H271435   5.180   0.334   4.211 -0.1035  0.6741 -0.7270
16674TIP3   OH271436   4.591   4.423  15.756  0.5917  0.6067  0.4795
16674TIP3    H171437   4.557   4.441  15.844 -1.7104  1.6109 -0.5550
16674TIP3    H271438   4.663   4.485  15.745  0.4249  0.9720  1.4216
16675TIP3   OH271439   1.717   4.816   4.292 -0.4051 -0.1911  0.1293
16675TIP3    H171440   1.740   4.835   4.200 -0.8531 -2.3005 -0.4254
16675TIP3    H271441   1.622   4.816   4.294 -0.4000  0.5232  0.7580
16676TIP3   OH271442   5.224   3.419   0.364 -0.3325  0.6117 -0.0812
16676TIP3    H171443   5.302   3.367   0.345  0.2081  1.3719  0.0724
16676TIP3    H271444   5.182   3.431   0.278 -0.8458 -0.6847 -0.0243
16677TIP3   OH271445   2.317   1.966  17.020 -0.0714  0.2120  0.1310
16677TIP3    H171446   2.374   1.892  16.999  0.0787  0.0665  1.0158
16677TIP3    H271447   2.301   1.957  17.114 -0.7419  0.8246  0.0754
16678TIP3   OH271448   0.116   6.771  11.485  0.2516  0.3332  0.4182
16678TIP3    H171449   0.183   6.839  11.489  0.7617  0.0852 -2.6578
16678TIP3    H271450   0.091   6.756  11.577  1.2386  3.5325  1.2755
16679TIP3   OH271451   0.157   4.972  12.253  0.1168  0.2677  0.1116
16679TIP3    H171452   0.163   5.067  12.260  0.4656  0.1033  2.2246
16679TIP3    H271453   0.244   4.940  12.277  0.6308 -0.5172 -2.6035
16680TIP3   OH271454   0.783   3.285   0.245  0.3788  0.6156  0.3235
16680TIP3    H171455   0.740   3.253   0.165 -0.6052 -0.3658  1.2221
16680TIP3    H271456   0.737   3.241   0.316 -0.5179  3.4960  1.6014
16681TIP3   OH271457   1.827   5.438  10.521 -0.0339  0.3457  0.2443
16681TIP3    H171458   1.893   5.485  10.572 -0.8569  0.9961  0.7266
16681TIP3    H271459   1.765   5.506  10.494 -0.4390 -0.2398 -0.3113
16682TIP3   OH271460   2.725   3.819  14.493 -0.0196  0.3424 -1.0062
16682TIP3    H171461   2.756   3.775  14.415 -3.2689 -3.2244 -0.4073
16682TIP3    H271462   2.631   3.830  14.479 -0.1523  2.4364  1.1292
16683TIP3   OH271463   5.343   5.201   0.482  0.5052  0.0550 -0.5687
16683TIP3    H171464   5.273   5.158   0.432  0.1108 -0.0559  0.0689
16683TIP3    H271465   5.383   5.130   0.532  0.0902  0.3767  0.2165
16684TIP3   OH271466   4.800   1.363   3.498  0.5414 -0.4868 -0.2492
16684TIP3    H171467   4.775   1.374   3.406  0.1545 -2.8987 -0.4647
16684TIP3    H271468   4.819   1.270   3.507  2.4667  0.0400  1.6726
16685TIP3   OH271469   6.604   5.045  14.854  0.4076 -0.2885  0.4897
16685TIP3    H171470   6.530   5.001  14.812  0.9039 -0.7954  0.1335
16685TIP3    H271471   6.565   5.092  14.928 -0.0826 -1.5965  1.0853
16686TIP3   OH271472   1.002   5.361  15.365 -0.1561  0.2110  0.0234
16686TIP3    H171473   1.027   5.449  15.394  1.1647  0.2462 -1.1541
16686TIP3    H271474   0.954   5.324  15.439 -0.8725  1.9858  0.4654
16687TIP3   OH271475   4.627   2.681  15.754  0.1140  0.2417  0.5802
16687TIP3    H171476   4.722   2.687  15.752 -0.0016  2.5171  0.7309
16687TIP3    H271477   4.600   2.740  15.824 -1.5421  2.1133 -1.5444
16688TIP3   OH271478   1.910   4.757   0.439  0.1885 -0.0956 -0.2228
16688TIP3    H171479   1.941   4.721   0.523 -2.6215  1.2096  1.4582
16688TIP3    H271480   1.900   4.851   0.456  1.7531  0.5836 -2.7620
16689TIP3   OH271481   3.230   3.483  13.201 -0.2232 -0.5027 -0.2845
16689TIP3    H171482   3.263   3.539  13.272 -1.0090 -0.4847  0.0679
16689TIP3    H271483   3.155   3.438  13.239 -0.6708 -0.4665 -1.1190
16690TIP3   OH271484   0.309   5.302   1.488 -0.7490 -0.6715  0.1295
16690TIP3    H171485   0.333   5.287   1.396  0.0003  1.3575 -0.0321
16690TIP3    H271486   0.393   5.309   1.534 -1.1171 -0.0687  0.7059
16691TIP3   OH271487   5.384   0.545  14.459 -0.1157  0.3972  0.0569
16691TIP3    H171488   5.446   0.474  14.476  0.1412  0.1886 -1.6572
16691TIP3    H271489   5.436   0.625  14.465  0.4231  0.2047 -1.6944
16692TIP3   OH271490   4.853   3.690   1.821 -0.3937  0.9752  0.4056
16692TIP3    H171491   4.852   3.599   1.791 -2.5558  1.1621 -0.1717
16692TIP3    H271492   4.852   3.741   1.741  0.9785  1.5262  0.7303
16693TIP3   OH271493   6.438   5.285  10.576  0.0074 -0.4101  0.3974
16693TIP3    H171494   6.344   5.275  10.566  0.4628 -2.0720 -2.6728
16693TIP3    H271495   6.448   5.368  10.622 -2.9078  0.7205 -0.8906
16694TIP3   OH271496   1.471   6.621   6.163 -0.1160  0.4188  0.3799
16694TIP3    H171497   1.525   6.700   6.169 -1.8280  1.6136  0.3515
16694TIP3    H271498   1.531   6.550   6.185  1.4301  1.7308  0.5194
16695TIP3   OH271499   5.849   3.794  15.694 -0.5920  0.3458 -0.7778
16695TIP3    H171500   5.842   3.875  15.745 -0.4110  0.1052 -0.3630
16695TIP3    H271501   5.821   3.726  15.755 -0.8814  0.1123 -1.1721
16696TIP3   OH271502   5.718   4.287  12.760 -0.0873 -0.7116 -0.0148
16696TIP3    H171503   5.673   4.228  12.698  0.9172  0.0785 -1.5368
16696TIP3    H271504   5.734   4.367  12.709  0.2320  0.1866  1.4652
16697TIP3   OH271505   2.662   6.570  12.022  0.3367  0.3679  0.1705
16697TIP3    H171506   2.727   6.631  12.058 -0.7537  1.3264  0.5177
16697TIP3    H271507   2.594   6.626  11.985 -0.2325 -0.6362 -0.3190
16698TIP3   OH271508   5.541   6.436  13.059  0.0617  0.2179  0.4236
16698TIP3    H171509   5.471   6.374  13.080 -0.7916  1.1993  0.5358
16698TIP3    H271510   5.596   6.390  12.996 -2.8951  0.8221 -2.7469
16699TIP3   OH271511   2.377   1.887  16.577  0.3982 -0.5608 -0.2789
16699TIP3    H171512   2.377   1.809  16.632  1.3303  0.3013  0.9899
16699TIP3    H271513   2.458   1.933  16.602 -0.0569  0.7113 -1.1220
16700TIP3   OH271514   5.198   1.227  14.104  0.0212  0.2916  0.1035
16700TIP3    H171515   5.120   1.240  14.157 -0.5318  1.3086 -0.9499
16700TIP3    H271516   5.167   1.231  14.014  1.3921  1.4270 -0.3314
16701TIP3   OH271517   0.212   0.097  13.905  0.4330  0.2235 -0.3418
16701TIP3    H171518   0.268   0.119  13.830 -1.2134  2.1672 -1.0410
16701TIP3    H271519   0.219   0.172  13.964 -0.9855  0.2402 -0.1688
16702TIP3   OH271520   1.024   4.922  12.788 -0.6013 -0.0923 -0.2329
16702TIP3    H171521   1.011   5.012  12.819  1.3423  0.1144  0.0721
16702TIP3    H271522   1.087   4.931  12.716 -0.7648 -1.1653 -0.5098
16703TIP3   OH271523   6.666   0.539  16.670  0.2244 -0.0424  0.1911
16703TIP3    H171524   6.653   0.503  16.583 -2.0229 -0.8390  0.8137
16703TIP3    H271525   6.748   0.500  16.701  0.5404 -0.4700 -1.1819
16704TIP3   OH271526   6.072   1.033  15.681  0.0086  0.9749  0.2228
16704TIP3    H171527   6.160   0.998  15.690  0.1686  0.9116 -1.3360
16704TIP3    H271528   6.079   1.099  15.612 -1.1870  0.8353 -0.0518
16705TIP3   OH271529   4.922   3.967  14.511  0.1862  0.4411  0.1252
16705TIP3    H171530   4.880   4.001  14.432 -0.3235  1.2547  0.7356
16705TIP3    H271531   4.860   3.987  14.582  1.6093  1.7177  1.0503
16706TIP3   OH271532   0.416   1.789  15.523  0.2345  0.2083  0.8238
16706TIP3    H171533   0.444   1.808  15.613 -0.6972 -1.4920  1.4954
16706TIP3    H271534   0.330   1.750  15.533  1.1382 -2.2449 -0.6400
16707TIP3   OH271535   2.746   3.392   6.426 -0.4719  0.2849  0.1339
16707TIP3    H171536   2.763   3.365   6.516  0.5517 -0.9576 -0.4125
16707TIP3    H271537   2.703   3.477   6.434 -0.5330  0.1170  1.7951
16708TIP3   OH271538   0.812   4.299   5.565  0.3968 -0.2038 -0.0502
16708TIP3    H171539   0.765   4.259   5.638  2.2274  0.0007  1.2824
16708TIP3    H271540   0.844   4.382   5.601  0.6955  0.2358 -1.3209
16709TIP3   OH271541   4.587   4.442  13.236 -0.3481  0.5263  0.7906
16709TIP3    H171542   4.617   4.504  13.302 -0.9918  0.9193  0.7205
16709TIP3    H271543   4.582   4.493  13.156  0.7378 -0.0254  0.3553
16710TIP3   OH271544   5.646   3.028  15.881 -0.1773  0.5040 -0.2600
16710TIP3    H171545   5.648   2.933  15.872 -0.3647  0.2716  1.9399
16710TIP3    H271546   5.644   3.044  15.975 -1.7253  2.6670 -0.5992
16711TIP3   OH271547   3.443   4.247   4.889  0.4500 -0.2576 -0.0132
16711TIP3    H171548   3.485   4.262   4.973 -0.9582  0.5048  0.5666
16711TIP3    H271549   3.468   4.322   4.836 -1.6549  1.1444  0.9308
16712TIP3   OH271550   2.582   5.830  14.431  0.9564  0.0149 -0.5778
16712TIP3    H171551   2.516   5.773  14.470  1.0308 -0.0644 -0.5655
16712TIP3    H271552   2.532   5.895  14.382  0.8627  0.1512 -0.2969
16713TIP3   OH271553   3.745   5.587   0.774 -0.3838  0.1927 -0.1841
16713TIP3    H171554   3.812   5.529   0.737 -0.9415  0.1252 -1.1118
16713TIP3    H271555   3.662   5.545   0.751 -0.7483  0.3066  0.9159
16714TIP3   OH271556   1.773   5.723  12.698  0.1066  0.2320 -0.2157
16714TIP3    H171557   1.750   5.631  12.684  0.8423 -0.0969  0.6608
16714TIP3    H271558   1.792   5.757  12.611  1.0663 -0.7814 -0.4142
16715TIP3   OH271559   6.175   0.206   1.491 -0.0085  0.0803 -0.1922
16715TIP3    H171560   6.268   0.184   1.499 -0.0901  0.0478  0.6389
16715TIP3    H271561   6.170   0.298   1.515 -0.3825 -0.2563  1.0212
16716TIP3   OH271562   0.083   3.282  13.986 -0.0435  0.7573 -0.0401
16716TIP3    H171563   0.018   3.337  13.943 -0.1263  1.9790  1.6222
16716TIP3    H271564   0.167   3.311  13.950 -0.2061  0.9199 -0.2873
16717TIP3   OH271565   1.553   0.318   4.378 -0.0490  0.4648  0.6146
16717TIP3    H171566   1.617   0.388   4.386  0.0761  0.1900  2.2862
16717TIP3    H271567   1.495   0.329   4.453 -0.4324 -0.8051  0.5322
16718TIP3   OH271568   2.103   1.702  12.344  0.3623  0.8912 -0.4138
16718TIP3    H171569   2.186   1.737  12.375 -0.2169 -0.4534  2.9201
16718TIP3    H271570   2.063   1.774  12.295  2.2639  2.4711  0.2991
16719TIP3   OH271571   0.537   2.797  14.745  0.1857 -0.6595  0.4568
16719TIP3    H171572   0.462   2.748  14.713 -1.7424  3.1345 -1.1485
16719TIP3    H271573   0.577   2.740  14.811 -3.2478 -3.3358  0.3469
16720TIP3   OH271574   5.104   0.519   5.972 -0.2004 -0.1635  0.7258
16720TIP3    H171575   5.021   0.566   5.974 -0.4300 -0.5282  0.0236
16720TIP3    H271576   5.169   0.586   5.950 -0.2792  0.1594  1.4735
16721TIP3   OH271577   0.911   0.592  10.969 -0.4205  0.0836 -0.0243
16721TIP3    H171578   0.860   0.632  10.899 -1.5365 -2.5283 -0.7860
16721TIP3    H271579   0.847   0.571  11.037 -0.6102 -3.9394 -1.3165
16722TIP3   OH271580   4.246   5.938  16.759 -0.3320  0.1799 -0.0832
16722TIP3    H171581   4.191   5.927  16.837  1.2983 -0.7227  0.9721
16722TIP3    H271582   4.285   5.852  16.745 -0.6237  0.3416 -1.9352
16723TIP3   OH271583   4.714   6.094  11.290  0.0113 -0.8411  0.6277
16723TIP3    H171584   4.765   6.048  11.223  0.9801 -0.4599  1.0969
16723TIP3    H271585   4.779   6.142  11.341 -1.0783  1.8871 -0.4721
16724TIP3   OH271586   3.850   6.089   3.662  0.0824  0.3812 -0.3319
16724TIP3    H171587   3.792   6.054   3.730  1.1297 -0.1467  0.3037
16724TIP3    H271588   3.909   6.148   3.709  1.3491 -0.6152 -0.6281
16725TIP3   OH271589   2.319   0.279  16.739  0.1095 -0.1457 -0.5690
16725TIP3    H171590   2.377   0.236  16.676 -0.4463 -0.1814 -1.0616
16725TIP3    H271591   2.231   0.268  16.702 -0.4393 -1.8340  1.1556
16726TIP3   OH271592   3.366   1.191  16.217  0.3732  0.1854 -0.1546
16726TIP3    H171593   3.429   1.145  16.271  1.3419  0.6579 -0.8721
16726TIP3    H271594   3.409   1.274  16.196 -0.4931  0.5196 -0.6274
16727TIP3   OH271595   4.209   1.849   2.705  0.1123 -0.6129 -0.0176
16727TIP3    H171596   4.189   1.855   2.611 -1.1243  0.0094  0.2701
16727TIP3    H271597   4.135   1.893   2.747  1.3169  0.2967  1.1836
16728TIP3   OH271598   2.484   5.249   4.305  0.1959 -0.2374  0.1720
16728TIP3    H171599   2.526   5.323   4.261  1.1803 -0.5500  0.5764
16728TIP3    H271600   2.443   5.199   4.235  0.2962  0.1986 -0.2003
16729TIP3   OH271601   0.276   4.480   5.332 -0.5214 -0.3838  0.5953
16729TIP3    H171602   0.226   4.556   5.300  0.1632 -0.6340 -1.1166
16729TIP3    H271603   0.327   4.514   5.406 -1.0380  0.5647  0.5200
16730TIP3   OH271604   1.547   4.119   2.915 -0.2933 -0.4794 -0.2449
16730TIP3    H171605   1.535   4.027   2.892  0.8221 -0.3830 -1.2120
16730TIP3    H271606   1.467   4.162   2.884 -0.9013 -1.1284  0.3735
16731TIP3   OH271607   3.249   1.278   3.330  0.1897  0.1058 -0.6373
16731TIP3    H171608   3.241   1.247   3.240 -0.1307  0.8580 -0.8722
16731TIP3    H271609   3.251   1.374   3.323  0.4094  0.1662  0.1344
16732TIP3   OH271610   1.464   1.139  14.386 -0.3611  0.1501  0.0357
16732TIP3    H171611   1.531   1.207  14.383 -0.6377  0.3842 -0.9780
16732TIP3    H271612   1.425   1.139  14.298  1.1892 -2.8599 -0.7303
16733TIP3   OH271613   6.486   3.079   2.924 -0.1016 -0.4278  0.5786
16733TIP3    H171614   6.531   3.103   3.005  1.2906 -0.2842 -0.2145
16733TIP3    H271615   6.488   3.160   2.872  1.1934 -1.1844 -0.5683
16734TIP3   OH271616   5.980   3.621   5.469 -0.1376  0.0398 -0.3751
16734TIP3    H171617   6.013   3.711   5.469  0.9075 -0.3333  0.4688
16734TIP3    H271618   5.904   3.623   5.527  0.1444  0.2961 -0.0101
16735TIP3   OH271619   1.174   4.127   4.756  0.6607  0.5240 -0.2305
16735TIP3    H171620   1.168   4.099   4.665  0.0355  0.0176 -0.0406
16735TIP3    H271621   1.165   4.222   4.752  2.0609  0.6360 -0.8174
16736TIP3   OH271622   6.215   2.578   5.443 -0.2273 -0.0638 -0.6767
16736TIP3    H171623   6.236   2.633   5.519 -0.0251 -0.1827 -0.6453
16736TIP3    H271624   6.285   2.512   5.442  0.4778  0.6799 -1.7064
16737TIP3   OH271625   3.555   6.454   2.528 -1.0758 -0.1859  0.5873
16737TIP3    H171626   3.487   6.516   2.501 -0.5473  1.4321  2.8406
16737TIP3    H271627   3.542   6.443   2.622  1.9197  0.4005  1.1418
16738TIP3   OH271628   5.632   2.698  11.747 -0.1271  0.1159  0.2528
16738TIP3    H171629   5.593   2.667  11.665 -1.1634  0.5095  0.5892
16738TIP3    H271630   5.721   2.663  11.745 -0.0918  0.2199 -1.0997
16739TIP3   OH271631   6.637   1.110  12.117 -0.1432 -0.7129  1.1798
16739TIP3    H171632   6.725   1.082  12.143  0.1732  0.3616  1.2867
16739TIP3    H271633   6.607   1.042  12.056  1.5863 -0.0615 -0.4606
16740TIP3   OH271634   0.958   6.038  11.885 -0.0855  0.1188 -0.3151
16740TIP3    H171635   1.028   6.035  11.820  0.1945 -1.1268  0.0297
16740TIP3    H271636   1.002   6.061  11.967  0.0981 -1.7500  0.1218
16741TIP3   OH271637   0.536   3.538   0.310  0.2539 -0.2297 -0.1373
16741TIP3    H171638   0.581   3.455   0.324  0.2026 -0.4103 -1.0570
16741TIP3    H271639   0.596   3.589   0.255  0.1425  0.2248  0.1545
16742TIP3   OH271640   5.216   0.502   5.593  0.4479  0.4658  0.5900
16742TIP3    H171641   5.259   0.462   5.669  0.4377  1.8101  1.3205
16742TIP3    H271642   5.147   0.441   5.569  1.7009 -0.9128  0.4434
16743TIP3   OH271643   0.629   3.061  11.833  0.9336 -0.0095  0.6270
16743TIP3    H171644   0.663   2.976  11.859 -0.5764 -1.1350 -0.9473
16743TIP3    H271645   0.575   3.089  11.907 -0.3579 -1.4695  0.2603
16744TIP3   OH271646   1.957   0.708  14.060  0.1813 -0.5279 -0.2052
16744TIP3    H171647   1.924   0.758  13.985 -0.9560  0.0336  0.6527
16744TIP3    H271648   1.880   0.693  14.114  1.0475 -0.6497  1.0201
16745TIP3   OH271649   5.468   5.594  12.447  0.3924 -0.1569  0.0459
16745TIP3    H171650   5.378   5.570  12.467  0.3903 -0.1111  0.0909
16745TIP3    H271651   5.516   5.512  12.447  0.1458 -0.3085 -1.0402
16746TIP3   OH271652   1.864   4.136  12.061  0.3497 -0.2775  0.0601
16746TIP3    H171653   1.815   4.055  12.045  0.2483 -0.4451  1.1459
16746TIP3    H271654   1.943   4.127  12.008  0.0844 -0.8473 -0.2440
16747TIP3   OH271655   5.655   4.096  16.508 -0.0023 -0.3998 -0.5384
16747TIP3    H171656   5.712   4.038  16.559  0.4265 -0.0062 -0.5649
16747TIP3    H271657   5.600   4.037  16.457 -0.5015 -0.8090  0.4538
16748TIP3   OH271658   4.752   5.869  11.463  0.6125 -0.9347  0.3083
16748TIP3    H171659   4.723   5.949  11.507 -0.6581 -0.6036 -1.0884
16748TIP3    H271660   4.709   5.871  11.378  1.6855 -2.4121 -0.3007
16749TIP3   OH271661   3.885   4.631   5.682 -0.2827  0.0086 -0.0889
16749TIP3    H171662   3.827   4.681   5.625 -1.4295 -2.9233 -1.5808
16749TIP3    H271663   3.829   4.598   5.751 -0.4204 -2.7218 -1.4573
16750TIP3   OH271664   1.174   1.585   0.018 -0.0518 -0.0746  0.0584
16750TIP3    H171665   1.083   1.614   0.026  0.0112 -0.3448  1.9660
16750TIP3    H271666   1.183   1.559  -0.073 -1.7810  0.3154 -0.2409
16751TIP3   OH271667   1.940   3.047  14.364  0.7226  0.2731 -0.3241
16751TIP3    H171668   2.025   3.025  14.324  0.8021  0.4111 -0.2315
16751TIP3    H271669   1.876   3.026  14.296  0.7340 -1.0651  0.0643
16752TIP3   OH271670   0.762   4.406   5.868 -0.2440 -0.3597  0.3014
16752TIP3    H171671   0.755   4.312   5.857  0.4431 -0.2711 -1.0011
16752TIP3    H271672   0.679   4.433   5.907 -0.7547 -1.3836 -0.0859
16753TIP3   OH271673   5.886   2.100   0.261  0.1903 -0.0173  0.2651
16753TIP3    H171674   5.962   2.053   0.295  0.2275 -1.9954 -2.4284
16753TIP3    H271675   5.811   2.050   0.293  0.1893 -0.9498 -1.1303
16754TIP3   OH271676   3.862   4.320  11.083  0.5150 -0.5962 -0.1371
16754TIP3    H171677   3.834   4.407  11.056  1.1253 -0.4872 -0.4414
16754TIP3    H271678   3.848   4.264  11.007 -0.9063 -1.0060  0.4084
16755TIP3   OH271679   1.936   5.260   3.314 -0.9314 -0.1264  0.8167
16755TIP3    H171680   1.846   5.241   3.285 -0.8528 -1.1973  1.2398
16755TIP3    H271681   1.944   5.355   3.306 -1.1531 -0.2999 -1.9174
16756TIP3   OH271682   6.665   3.779  11.135  0.3971  0.5798  0.0951
16756TIP3    H171683   6.678   3.704  11.076  1.4025  0.6810  0.1846
16756TIP3    H271684   6.611   3.840  11.085 -0.9834 -0.4792  0.2547
16757TIP3   OH271685   6.635   3.372   6.010 -0.4388  0.8143  0.3866
16757TIP3    H171686   6.638   3.467   6.023 -0.1905  0.9391 -0.5439
16757TIP3    H271687   6.668   3.336   6.092  0.2503  1.5524  0.4459
16758TIP3   OH271688   0.493   6.424  16.261 -0.1127  0.5939 -1.1595
16758TIP3    H171689   0.461   6.420  16.351  1.4604 -1.4511 -0.6374
16758TIP3    H271690   0.552   6.500  16.259  1.3636 -0.4889  0.0875
16759TIP3   OH271691   3.524   1.190   2.227 -0.4049  0.3840 -0.5631
16759TIP3    H171692   3.466   1.201   2.152  0.5359 -0.4975 -1.4287
16759TIP3    H271693   3.603   1.240   2.204  0.4862 -1.1141 -0.8375
16760TIP3   OH271694   5.860   0.849   6.317 -0.0578 -0.6528  0.4892
16760TIP3    H171695   5.897   0.917   6.260 -1.8245  1.0339  1.3097
16760TIP3    H271696   5.913   0.854   6.396  0.7957 -1.3069 -0.0223
16761TIP3   OH271697   3.917   1.385   5.303 -0.0181  0.1108 -0.4081
16761TIP3    H171698   3.900   1.457   5.241  1.3393  1.7514  1.0679
16761TIP3    H271699   4.011   1.367   5.293 -0.0995 -0.6066  0.1265
16762TIP3   OH271700   1.080   5.587   2.793  0.1631  0.1237  0.1606
16762TIP3    H171701   1.037   5.601   2.709 -0.3983  1.8788  0.7121
16762TIP3    H271702   1.173   5.581   2.772  0.0810  1.1972 -0.5141
16763TIP3   OH271703   1.412   2.940   2.416  0.0679 -0.1028 -0.0298
16763TIP3    H171704   1.485   2.883   2.438 -0.3556 -0.3402  0.7796
16763TIP3    H271705   1.361   2.947   2.497  0.2902  1.6703 -0.0216
16764TIP3   OH271706   4.319   0.541  16.203 -0.2063 -0.1161 -0.8213
16764TIP3    H171707   4.241   0.502  16.242  1.4521 -1.9176  0.7860
16764TIP3    H271708   4.324   0.502  16.116 -0.6281 -0.6234 -0.6173
16765TIP3   OH271709   0.986   5.571   2.497 -0.3864 -0.6659 -0.0744
16765TIP3    H171710   1.040   5.562   2.419 -1.4237 -0.1346 -0.8717
16765TIP3    H271711   0.943   5.486   2.506 -1.3268 -0.2872 -0.8962
16766TIP3   OH271712   2.874   0.561  10.847 -0.4519  0.4999 -0.2706
16766TIP3    H171713   2.926   0.636  10.819  0.9372 -0.0264  0.7715
16766TIP3    H271714   2.815   0.543  10.775  0.0076  1.8788 -0.9976
16767TIP3   OH271715   5.884   3.668   5.026  0.1356  0.2905  0.4957
16767TIP3    H171716   5.794   3.665   5.059  0.0958 -0.0103  0.3670
16767TIP3    H271717   5.933   3.610   5.086  0.3381  0.8320  0.8539
16768TIP3   OH271718   1.195   3.748   4.684 -0.3018 -0.2447 -0.1146
16768TIP3    H171719   1.276   3.708   4.653  0.9647  1.5829  0.7395
16768TIP3    H271720   1.208   3.760   4.778 -0.6699  1.9978 -0.3131
16769TIP3   OH271721   6.641   1.507   4.330  0.0258  0.0015 -0.5299
16769TIP3    H171722   6.681   1.441   4.273 -0.7152 -0.5433 -0.4315
16769TIP3    H271723   6.619   1.579   4.272  2.3615  0.8942 -0.3787
16770TIP3   OH271724   0.852   2.917   2.456 -0.3396  0.4131  0.3852
16770TIP3    H171725   0.813   2.919   2.369 -0.7991 -1.6933  0.5138
16770TIP3    H271726   0.851   3.008   2.485 -1.1967  0.9797 -1.3619
16771TIP3   OH271727   2.801   0.685   2.872  0.6770  0.0458  0.5775
16771TIP3    H171728   2.767   0.709   2.786  2.9595 -1.6167 -0.8450
16771TIP3    H271729   2.787   0.763   2.926 -2.1617  0.5739 -0.8595
16772TIP3   OH271730   1.708   4.861  14.840 -0.0563  0.2438  0.0905
16772TIP3    H171731   1.781   4.879  14.899  0.2448 -1.7458  0.3639
16772TIP3    H271732   1.718   4.924  14.768  0.4661  1.6374  1.3757
16773TIP3   OH271733   1.557   4.740  10.572  0.1615 -0.6830 -0.1637
16773TIP3    H171734   1.615   4.784  10.634  0.8297 -1.1447 -0.4547
16773TIP3    H271735   1.586   4.772  10.486  0.9509 -2.0346 -0.4083
16774TIP3   OH271736   0.305   5.718  16.316 -0.2355  0.3571 -0.6189
16774TIP3    H171737   0.314   5.680  16.229  1.3478  0.3426 -0.4561
16774TIP3    H271738   0.379   5.777  16.325 -0.4207  0.4081  0.6931
16775TIP3   OH271739   2.574   0.327   5.200 -0.0951 -0.0537  0.1862
16775TIP3    H171740   2.574   0.368   5.286  1.7918  3.7028 -1.4844
16775TIP3    H271741   2.502   0.370   5.153  0.6120 -0.1178 -0.9681
16776TIP3   OH271742   0.973   5.174  16.828 -0.0781  0.3252  0.2203
16776TIP3    H171743   0.982   5.096  16.773 -0.5868  0.2999  0.1689
16776TIP3    H271744   1.057   5.183  16.872  0.7225  0.9947 -1.4237
16777TIP3   OH271745   0.752   3.357  15.957  0.4189  0.2454  0.0376
16777TIP3    H171746   0.755   3.341  15.862  1.0560  0.8817 -0.0571
16777TIP3    H271747   0.680   3.303  15.988  1.2899 -1.2925 -0.5453
16778TIP3   OH271748   5.478   4.126   3.274  0.5141  0.0902  0.6070
16778TIP3    H171749   5.558   4.102   3.322 -0.4812  0.1139  2.3435
16778TIP3    H271750   5.456   4.212   3.308 -0.1020  0.1967 -0.0637
16779TIP3   OH271751   1.509   2.790   0.909  0.0355 -0.0924 -0.0809
16779TIP3    H171752   1.598   2.766   0.936  0.1174 -0.3630 -0.5904
16779TIP3    H271753   1.453   2.753   0.977  0.2518 -0.6154 -0.1867
16780TIP3   OH271754   4.216   5.940  15.247  0.3437 -0.1461  0.2809
16780TIP3    H171755   4.295   5.941  15.301  1.3046 -1.2759 -1.0665
16780TIP3    H271756   4.203   6.032  15.223  1.2858  0.0467  0.4634
16781TIP3   OH271757   5.497   6.174  11.514  0.2369 -0.4797  0.2449
16781TIP3    H171758   5.534   6.105  11.458  1.1328  0.8515 -0.8342
16781TIP3    H271759   5.503   6.138  11.603  0.0625 -2.0654 -0.3641
16782TIP3   OH271760   0.183   2.196   4.588  0.1220 -0.7350 -0.1555
16782TIP3    H171761   0.140   2.138   4.525  0.0020 -1.1494  0.3057
16782TIP3    H271762   0.116   2.259   4.613 -0.5763 -2.0877  1.4475
16783TIP3   OH271763   2.778   2.031  13.594  0.1412  0.1608 -0.2289
16783TIP3    H171764   2.814   2.114  13.624  0.5140 -0.0902  0.0283
16783TIP3    H271765   2.687   2.031  13.625 -0.1004  0.8184 -0.9258
16784TIP3   OH271766   4.994   3.600   2.433 -0.0821 -0.1522 -0.2168
16784TIP3    H171767   5.012   3.619   2.525  0.1174 -0.5086 -0.1812
16784TIP3    H271768   4.911   3.553   2.434 -0.6428  0.8188 -0.3163
16785TIP3   OH271769   1.938   5.155  13.603 -0.2918 -0.0656 -0.4330
16785TIP3    H171770   2.033   5.164  13.610 -0.1496 -1.1847 -0.8725
16785TIP3    H271771   1.909   5.136  13.693  0.0992 -1.4553 -0.5911
16786TIP3   OH271772   2.096   0.534  10.948  0.5384  0.2335 -0.4787
16786TIP3    H171773   2.161   0.598  10.976  0.2069  0.8039 -0.9977
16786TIP3    H271774   2.032   0.585  10.898 -0.1335 -0.3785 -0.2452
16787TIP3   OH271775   5.978   3.032   3.420 -0.0802  0.1017 -0.1169
16787TIP3    H171776   5.888   3.024   3.451 -0.3689  1.0133 -0.6930
16787TIP3    H271777   5.999   3.125   3.431  0.3357  0.1403 -1.2176
16788TIP3   OH271778   0.196   0.799   5.497 -0.2963 -0.5878 -0.3177
16788TIP3    H171779   0.284   0.779   5.465 -0.3543 -0.5994 -0.4682
16788TIP3    H271780   0.171   0.721   5.547 -0.0205 -0.3809  0.1489
16789TIP3   OH271781   1.624   1.474   1.443 -0.5066  0.4416  0.1490
16789TIP3    H171782   1.549   1.506   1.393 -1.5862  0.5722  1.8152
16789TIP3    H271783   1.611   1.511   1.530  0.7598 -0.6954  0.8224
16790TIP3   OH271784   1.221   2.136   5.824 -0.1868 -0.1196 -0.3129
16790TIP3    H171785   1.202   2.138   5.917 -0.3607  1.8506 -0.3637
16790TIP3    H271786   1.316   2.128   5.819 -0.2802 -1.6164  0.0012
16791TIP3   OH271787   6.368   4.611   1.473 -0.1766  0.1154  0.8612
16791TIP3    H171788   6.371   4.594   1.567 -0.6082  0.3533  0.9221
16791TIP3    H271789   6.277   4.634   1.456  0.1152  1.0773  0.5647
16792TIP3   OH271790   0.083   0.881   0.850 -0.0481  0.2574 -0.0543
16792TIP3    H171791   0.028   0.927   0.914  2.9412  0.7073  2.3393
16792TIP3    H271792   0.049   0.792   0.850 -0.6646  0.4647  1.5724
16793TIP3   OH271793   2.430   4.076   3.777 -0.0806 -0.5592  0.6616
16793TIP3    H171794   2.358   4.013   3.774 -1.2588  0.6549  2.1167
16793TIP3    H271795   2.451   4.094   3.685 -4.2435  1.9093  0.0550
16794TIP3   OH271796   5.559   2.941  17.097 -1.0452  0.7453  0.5697
16794TIP3    H171797   5.620   2.962  17.026 -1.6250  2.4521  0.5390
16794TIP3    H271798   5.496   3.014  17.096 -2.3043 -0.3128  1.4530
16795TIP3   OH271799   1.113   6.524  13.974 -0.1378 -0.3142  0.4684
16795TIP3    H171800   1.137   6.473  14.051 -1.2897 -0.4522  0.7492
16795TIP3    H271801   1.046   6.472  13.930  0.8111 -0.4323 -0.8674
16796TIP3   OH271802   0.931   5.617   3.810 -0.5937 -0.1051  0.1544
16796TIP3    H171803   1.009   5.619   3.755 -0.5625 -0.2885  0.1907
16796TIP3    H271804   0.963   5.639   3.897 -0.5220 -0.5667  0.2415
16797TIP3   OH271805   2.652   4.193  16.808  0.0403 -0.3391  0.0570
16797TIP3    H171806   2.720   4.175  16.874  0.4599 -0.6334 -0.4529
16797TIP3    H271807   2.690   4.263  16.754  0.6079 -1.5768 -1.1941
16798TIP3   OH271808   3.909   0.025   5.533 -0.4466 -0.4414  0.6311
16798TIP3    H171809   3.938   0.036   5.624  1.3998 -0.1879  0.0444
16798TIP3    H271810   3.838  -0.038   5.538  0.2388 -1.1207  2.1674
16799TIP3   OH271811   4.773   4.202   5.436  0.3912  0.0800 -0.8731
16799TIP3    H171812   4.724   4.227   5.515  0.4620  2.5580 -1.5868
16799TIP3    H271813   4.741   4.261   5.368  2.6199  0.0946 -1.9413
16800TIP3   OH271814   3.744   3.879  15.952  0.0490  0.0550  0.2108
16800TIP3    H171815   3.781   3.938  15.887 -0.1076 -1.3358 -1.1666
16800TIP3    H271816   3.712   3.936  16.022 -1.3318  1.6699 -1.7060
16801TIP3   OH271817   3.911   4.299  11.335 -0.4347  0.2780  0.6672
16801TIP3    H171818   3.853   4.233  11.373 -0.0767  0.2601  1.1882
16801TIP3    H271819   3.909   4.282  11.241  0.0021 -0.7609  0.8388
16802TIP3   OH271820   3.678   3.325   3.548 -0.2569 -0.5279 -0.3187
16802TIP3    H171821   3.622   3.335   3.471 -0.2625  0.4070 -0.1999
16802TIP3    H271822   3.678   3.231   3.565 -0.7659 -0.6758 -1.0808
16803TIP3   OH271823   1.368   1.142  10.328  0.7262  0.0545 -0.5006
16803TIP3    H171824   1.361   1.119  10.421 -0.1153  0.0903 -0.5563
16803TIP3    H271825   1.372   1.057  10.283 -1.8530 -0.0086 -0.6660
16804TIP3   OH271826   3.423   4.739  12.862 -0.0041 -0.4647 -0.0746
16804TIP3    H171827   3.369   4.671  12.820 -0.6099 -1.4744  2.2672
16804TIP3    H271828   3.365   4.814  12.869 -0.9603 -1.3399  1.8361
16805TIP3   OH271829   3.334   6.427   1.005  0.2427  0.1750  0.0436
16805TIP3    H171830   3.401   6.359   0.994  0.4943 -0.0880  2.9415
16805TIP3    H271831   3.251   6.381   0.994  0.4662 -0.1596 -0.2507
16806TIP3   OH271832   1.313   2.214   1.207 -0.1895  0.4567 -0.1417
16806TIP3    H171833   1.299   2.263   1.288 -0.6486 -0.4155  0.3177
16806TIP3    H271834   1.307   2.279   1.137 -0.6258  1.0722  0.4715
16807TIP3   OH271835   0.107   2.611  14.275 -0.0868 -0.3163  0.0400
16807TIP3    H171836   0.151   2.686  14.235 -0.3612  0.1541  0.6002
16807TIP3    H271837   0.155   2.597  14.357  0.1823 -0.9774 -0.2261
16808TIP3   OH271838   1.029   1.701   1.511 -0.6397  0.7417 -0.3899
16808TIP3    H171839   0.941   1.732   1.491  0.2104  1.1649 -3.7780
16808TIP3    H271840   1.087   1.770   1.480  0.9705 -0.5047 -0.2521
16809TIP3   OH271841   1.385   6.043   1.964 -0.1068 -0.5684 -0.2866
16809TIP3    H171842   1.481   6.047   1.958  0.1097 -2.9721  0.9548
16809TIP3    H271843   1.367   6.052   2.058 -1.0604 -0.6797 -0.4557
16810TIP3   OH271844   3.790   4.091   1.991 -0.4651  0.7950  0.1724
16810TIP3    H171845   3.767   4.179   1.962  0.7159  1.3901  1.0331
16810TIP3    H271846   3.861   4.065   1.933 -0.3790  0.6568  0.3401
16811TIP3   OH271847   1.054   2.387  14.355  0.2554 -0.2163 -0.3558
16811TIP3    H171848   1.010   2.335  14.287 -0.3667  1.1523 -1.0072
16811TIP3    H271849   1.089   2.463  14.309 -0.2304  0.7618  0.8552
16812TIP3   OH271850   5.654   1.229  11.231  0.0564  0.3630  0.0470
16812TIP3    H171851   5.719   1.167  11.198 -0.0601  0.6145 -0.6895
16812TIP3    H271852   5.626   1.277  11.152 -1.7103 -0.3771  0.1943
16813TIP3   OH271853   0.302   1.784  12.957 -0.3337  0.4368 -0.4649
16813TIP3    H171854   0.238   1.712  12.959 -0.5778  0.6796  0.5983
16813TIP3    H271855   0.386   1.741  12.941 -0.6606  0.0475 -1.1777
16814TIP3   OH271856   5.320   1.367  11.401  0.0938 -0.0733 -0.3246
16814TIP3    H171857   5.408   1.367  11.440  0.2928 -1.8372 -0.7647
16814TIP3    H271858   5.320   1.292  11.342 -2.3308 -1.2017  1.0737
16815TIP3   OH271859   5.953   6.640   5.869 -0.3554 -0.2603  0.5828
16815TIP3    H171860   5.984   6.552   5.851  0.6325  0.5477 -1.7549
16815TIP3    H271861   5.932   6.639   5.963  0.1593 -2.7914  0.7024
16816TIP3   OH271862   6.197   2.700  11.924  0.1031 -0.1894 -0.2544
16816TIP3    H171863   6.263   2.678  11.990 -1.3274  1.4553  1.7463
16816TIP3    H271864   6.223   2.786  11.892  0.5355 -0.7877 -1.5672
16817TIP3   OH271865   0.323   5.178  15.704  0.5344  0.1094  0.1581
16817TIP3    H171866   0.340   5.097  15.753 -0.3455 -1.2977 -1.7892
16817TIP3    H271867   0.311   5.149  15.614 -0.7096  2.3324 -0.4230
16818TIP3   OH271868   1.174   3.351  16.159 -0.0952  0.4348  0.1412
16818TIP3    H171869   1.089   3.394  16.155 -0.2040  0.2919  0.8213
16818TIP3    H271870   1.220   3.394  16.231  0.4373  0.5524 -0.2586
16819TIP3   OH271871   5.974   0.199   2.188 -0.0005  0.5243  0.0981
16819TIP3    H171872   5.899   0.177   2.132  0.1294 -2.6874  1.0756
16819TIP3    H271873   6.049   0.165   2.140  0.5169  1.0669  0.5262
16820TIP3   OH271874   3.551   6.046  16.567 -0.2738 -0.1794 -0.4032
16820TIP3    H171875   3.506   5.981  16.514  0.4909 -2.0274  1.1599
16820TIP3    H271876   3.520   6.031  16.656  2.7915 -1.0271  0.6027
16821TIP3   OH271877   6.412   1.256   4.216  0.3201 -0.6902 -0.2975
16821TIP3    H171878   6.458   1.237   4.298  0.4147 -3.4294 -0.9388
16821TIP3    H271879   6.407   1.172   4.171 -2.4214  0.1865 -1.7478
16822TIP3   OH271880   6.343   1.703   2.246 -0.1083 -0.6048 -0.3379
16822TIP3    H171881   6.394   1.669   2.319  0.5833 -2.9386 -1.8331
16822TIP3    H271882   6.334   1.796   2.263  1.9320 -0.7390  1.5768
16823TIP3   OH271883   0.593   3.772   5.875 -0.2011 -0.4956 -0.1823
16823TIP3    H171884   0.606   3.679   5.893  0.7115 -0.4593 -0.6507
16823TIP3    H271885   0.498   3.781   5.864 -0.4115 -1.1657  0.9963
16824TIP3   OH271886   2.296   1.887   3.931  0.1891  0.4572  0.0398
16824TIP3    H171887   2.386   1.856   3.917  0.6566  2.5094 -1.8383
16824TIP3    H271888   2.241   1.813   3.908  1.3763 -0.6264  0.5919
16825TIP3   OH271889   5.923   3.283  13.062 -0.0879  0.2947  0.1258
16825TIP3    H171890   5.841   3.319  13.027  0.1951  2.0392  1.1890
16825TIP3    H271891   5.906   3.272  13.156  0.8218  0.5234  0.3249
16826TIP3   OH271892   5.214   1.443   2.430 -0.1394  0.4027 -0.1037
16826TIP3    H171893   5.201   1.523   2.481  0.5468  0.6554 -0.3222
16826TIP3    H271894   5.293   1.459   2.379 -1.2500  0.4709 -1.8561
16827TIP3   OH271895   0.222   2.180   1.152  0.5049  0.4630  0.2775
16827TIP3    H171896   0.177   2.100   1.124  0.0783  0.7257  0.2175
16827TIP3    H271897   0.223   2.175   1.247  0.7561  0.2344  0.2649
16828TIP3   OH271898   6.591   4.368  12.027 -0.1310  0.0767 -0.4988
16828TIP3    H171899   6.621   4.375  11.937 -0.6731 -0.4085 -0.7150
16828TIP3    H271900   6.662   4.323  12.073  0.6441  1.3379 -0.4330
16829TIP3   OH271901   1.152   3.842   4.954 -0.6815  0.2598  0.0886
16829TIP3    H171902   1.218   3.847   5.023  2.2501 -0.1003 -2.5777
16829TIP3    H271903   1.102   3.923   4.962 -1.1684 -0.3157  3.3287
16830TIP3   OH271904   4.363   0.892   1.125  0.4177 -0.1045  0.0629
16830TIP3    H171905   4.403   0.941   1.197 -0.0423 -0.4952  0.5881
16830TIP3    H271906   4.403   0.929   1.046 -0.4194  1.6013  0.4073
16831TIP3   OH271907   1.347   5.483   0.820 -0.4174  0.3363  0.1468
16831TIP3    H171908   1.272   5.531   0.856  0.6242  0.1742  2.6348
16831TIP3    H271909   1.408   5.477   0.893  0.2288 -3.2488 -0.6010
16832TIP3   OH271910   4.253   2.799   3.867 -0.3232  0.2148  0.2205
16832TIP3    H171911   4.265   2.831   3.778  4.0651  0.4959  0.8118
16832TIP3    H271912   4.243   2.704   3.857  0.2388  0.2357 -0.5391
16833TIP3   OH271913   1.610   3.277  14.480 -0.2786  0.3566  0.1156
16833TIP3    H171914   1.649   3.283  14.567 -0.4591 -1.8254  0.3871
16833TIP3    H271915   1.599   3.183  14.466  2.5472  0.4459 -3.4856
16834TIP3   OH271916   2.277   4.194  14.796 -0.2816 -0.4040 -0.1557
16834TIP3    H171917   2.279   4.177  14.891 -0.7922 -1.7150 -0.3625
16834TIP3    H271918   2.325   4.120  14.758 -0.2619  0.0055 -0.9313
16835TIP3   OH271919   0.990   5.027   0.919 -0.1674 -0.3651 -0.0745
16835TIP3    H171920   0.915   4.968   0.916  0.3471 -0.9832 -0.8454
16835TIP3    H271921   1.036   5.004   1.000 -0.4338 -0.4380  0.0567
16836TIP3   OH271922   1.961   1.440  11.001  0.1650  0.6588 -0.2568
16836TIP3    H171923   1.906   1.465  10.927 -0.8514 -0.9054 -0.0560
16836TIP3    H271924   2.045   1.419  10.962  0.5315  2.6406 -0.6177
16837TIP3   OH271925   5.199   5.658   6.459 -0.0356  0.2837  0.4449
16837TIP3    H171926   5.106   5.652   6.479  0.2093  1.0053  1.8544
16837TIP3    H271927   5.237   5.578   6.495  0.1448  0.8228  1.5109
16838TIP3   OH271928   0.142   0.760   4.500 -0.2238 -0.2687  0.3420
16838TIP3    H171929   0.215   0.816   4.526  1.8191 -1.5209 -2.4338
16838TIP3    H271930   0.162   0.675   4.539 -0.0261 -0.6937 -0.6676
16839TIP3   OH271931   4.380   3.277  15.615 -0.3387  0.2386 -0.7458
16839TIP3    H171932   4.338   3.259  15.531 -1.3600 -1.2248  0.0602
16839TIP3    H271933   4.430   3.198  15.635  2.0709  1.5916 -1.2288
16840TIP3   OH271934   3.630   6.001  13.160 -0.8537  0.0952 -0.1128
16840TIP3    H171935   3.556   6.023  13.103 -1.2588 -1.9186 -0.3982
16840TIP3    H271936   3.692   5.957  13.102 -0.2263  0.1589  0.5087
16841TIP3   OH271937   6.082   4.964   4.658 -0.0533  1.1127 -0.3367
16841TIP3    H171938   6.122   4.957   4.572  0.7602  0.5266  0.0862
16841TIP3    H271939   6.079   4.874   4.692  2.2805  1.6485  1.4214
16842TIP3   OH271940   2.116   4.865  11.901  0.1124  0.1481  0.6078
16842TIP3    H171941   2.052   4.909  11.844  0.3000  1.0886  1.1149
16842TIP3    H271942   2.139   4.931  11.966  0.9520 -0.4729  0.9461
16843TIP3   OH271943   4.176   3.183   3.441  0.1633  0.0484 -0.4198
16843TIP3    H171944   4.182   3.139   3.356 -0.6040  1.2863 -1.1292
16843TIP3    H271945   4.228   3.262   3.431 -1.1111  0.9252 -0.2112
16844TIP3   OH271946   4.026   6.174   5.837 -0.2418 -0.2468  0.0921
16844TIP3    H171947   4.086   6.167   5.911 -1.6583  0.4197  1.3178
16844TIP3    H271948   3.943   6.202   5.875 -1.1791 -0.5561 -1.6622
16845TIP3   OH271949   4.934   2.711  12.623  0.2792  0.0697 -0.0939
16845TIP3    H171950   4.993   2.716  12.548  1.2235 -0.0921  0.6337
16845TIP3    H271951   4.854   2.673  12.587  1.6692 -2.6621 -0.4978
16846TIP3   OH271952   1.780   3.388  12.429 -0.7724 -0.0507 -0.2405
16846TIP3    H171953   1.783   3.335  12.349  1.0579 -0.6275  0.1988
16846TIP3    H271954   1.860   3.365  12.476 -1.0721  1.4466  1.0258
16847TIP3   OH271955   5.436   2.100   0.599 -0.1660  0.0502  0.4548
16847TIP3    H171956   5.410   2.025   0.652  1.2261  0.2064  1.3722
16847TIP3    H271957   5.512   2.137   0.644 -1.6327  2.8336  0.7912
16848TIP3   OH271958   5.886   1.172  11.553  0.3718  0.0997 -0.0155
16848TIP3    H171959   5.973   1.138  11.575 -0.1858 -2.1939 -1.2225
16848TIP3    H271960   5.845   1.102  11.501 -0.9445  2.4796 -2.3056
16849TIP3   OH271961   4.054   5.060  12.900 -0.0379 -0.1508 -0.9388
16849TIP3    H171962   4.022   4.991  12.958 -0.1479  0.8581  0.2334
16849TIP3    H271963   3.979   5.084  12.847 -0.8866  1.2410  0.8394
16850TIP3   OH271964   1.810   3.800   1.606 -0.1580  0.6444 -0.1592
16850TIP3    H171965   1.718   3.816   1.627 -0.5552  0.8720 -1.9406
16850TIP3    H271966   1.837   3.876   1.554  1.1416  0.7420  0.6356
16851TIP3   OH271967   4.876   5.163   5.569  0.1686  0.6100 -0.1786
16851TIP3    H171968   4.901   5.118   5.649 -0.2107 -1.2912 -1.0930
16851TIP3    H271969   4.879   5.096   5.501 -1.8559  1.6040 -1.3277
16852TIP3   OH271970   5.103   6.764  15.837 -0.7037  0.2670  0.0776
16852TIP3    H171971   5.015   6.794  15.860 -0.4749  0.1520  1.1507
16852TIP3    H271972   5.119   6.799  15.750 -1.2631  1.4731  0.4507
16853TIP3   OH271973   1.010   4.962  13.851  0.0407 -0.2731  0.3190
16853TIP3    H171974   1.038   5.040  13.899 -1.6960  0.6221 -0.1009
16853TIP3    H271975   1.057   4.968  13.768 -0.0348  0.2908  0.3121
16854TIP3   OH271976   5.492   6.505   6.285  0.3677  0.5388  0.4159
16854TIP3    H171977   5.573   6.506   6.335  1.6062 -1.1036 -1.5148
16854TIP3    H271978   5.443   6.429   6.318  1.1929 -0.5555 -0.8612
16855TIP3   OH271979   2.090   1.520  12.117 -0.5969  0.4025 -0.3649
16855TIP3    H171980   2.076   1.593  12.176  1.5619  1.4530 -1.1186
16855TIP3    H271981   2.080   1.558  12.029  0.1855 -0.2687 -0.7513
16856TIP3   OH271982   3.524   1.397  10.733  0.0782 -0.6960 -0.1988
16856TIP3    H171983   3.495   1.465  10.673 -2.4819 -0.7293  0.9282
16856TIP3    H271984   3.497   1.315  10.692  1.8456 -0.9866 -0.8473
16857TIP3   OH271985   6.632   0.109  15.311  0.0607  0.1274 -0.2539
16857TIP3    H171986   6.636   0.086  15.404 -0.8549 -0.8050 -0.4289
16857TIP3    H271987   6.641   0.025  15.265 -0.3144  0.4773 -0.9878
16858TIP3   OH271988   5.291   2.941   1.788  0.2867 -0.0666 -0.1125
16858TIP3    H171989   5.296   2.852   1.822 -1.2188 -0.1174  0.0170
16858TIP3    H271990   5.369   2.984   1.824  0.5023 -1.0461  0.6389
16859TIP3   OH271991   2.839   4.581  12.819  0.8271 -0.3907  0.5728
16859TIP3    H171992   2.769   4.554  12.879 -1.3501  0.0432 -1.6916
16859TIP3    H271993   2.856   4.672  12.840 -1.1424  0.2616 -0.5791
16860TIP3   OH271994   0.424   3.400   6.563  0.2109  0.0439 -0.1051
16860TIP3    H171995   0.367   3.326   6.540  1.1115 -0.5796 -0.3621
16860TIP3    H271996   0.476   3.415   6.485  1.7401 -0.6448  0.7471
16861TIP3   OH271997   0.997   5.648   4.390 -0.0579 -0.4026 -0.0453
16861TIP3    H171998   0.970   5.729   4.433 -1.7797  0.3098 -2.3031
16861TIP3    H271999   0.940   5.580   4.427  2.0864 -0.8237  2.5987
16862TIP3   OH272000   2.290   1.691   1.626 -0.5774  0.4752 -0.3212
16862TIP3    H172001   2.287   1.644   1.709  0.0212  1.4972  0.2952
16862TIP3    H272002   2.221   1.651   1.574 -0.0487 -1.1046  0.1600
16863TIP3   OH272003   6.510   4.729   1.220 -0.2545 -0.1901  0.5010
16863TIP3    H172004   6.482   4.673   1.292 -0.2851 -0.7208  0.0846
16863TIP3    H272005   6.604   4.740   1.234 -0.7583  2.3016  2.3860
16864TIP3   OH272006   6.060   3.027   4.600 -0.9376  0.6257  0.0566
16864TIP3    H172007   6.060   3.115   4.637  0.0002  0.7173 -0.1356
16864TIP3    H272008   6.134   2.984   4.643 -3.1154 -1.0096  2.3002
16865TIP3   OH272009   0.309   2.233  11.531  0.5637 -0.3962 -0.5385
16865TIP3    H172010   0.254   2.277  11.468  2.0177 -1.2698 -2.4623
16865TIP3    H272011   0.312   2.142  11.502  1.0498 -0.8773  0.9302
16866TIP3   OH272012   5.494   0.733  11.532  0.2682 -0.2220  0.1795
16866TIP3    H172013   5.508   0.766  11.444 -0.0827 -1.8754 -0.5292
16866TIP3    H272014   5.561   0.665  11.543 -1.0024 -1.4605  0.3899
16867TIP3   OH272015   0.452   1.536  16.811 -0.5020 -0.3448  0.9450
16867TIP3    H172016   0.449   1.596  16.736 -1.2594 -1.2264  0.2570
16867TIP3    H272017   0.478   1.591  16.885  1.4341  0.3005 -0.1774
16868TIP3   OH272018   4.649   1.972   4.801  0.7408 -0.5214  0.0467
16868TIP3    H172019   4.590   1.910   4.759 -2.8708  1.9976  1.1179
16868TIP3    H272020   4.631   1.963   4.895  0.1282  2.0882  0.2190
16869TIP3   OH272021   4.174   0.095  14.960  0.3475 -0.1269 -0.2872
16869TIP3    H172022   4.179   0.011  15.007 -0.9222  0.7965  1.5584
16869TIP3    H272023   4.157   0.071  14.869  0.8222 -1.8903  0.0678
16870TIP3   OH272024   4.402   5.992   0.827 -0.0272 -0.2844  0.7064
16870TIP3    H172025   4.329   6.050   0.846  0.0404 -0.5991  1.9218
16870TIP3    H272026   4.408   5.934   0.902  1.8846  0.1643  0.9384
16871TIP3   OH272027   2.071   2.339   3.354  0.2368 -0.0297  0.2471
16871TIP3    H172028   2.017   2.307   3.281 -0.2281  0.7276  0.2480
16871TIP3    H272029   2.028   2.303   3.432  0.7503 -0.8625  0.1582
16872TIP3   OH272030   4.616   3.681  11.782 -0.0979 -0.2409 -0.1161
16872TIP3    H172031   4.533   3.688  11.734 -0.9848  1.7020  1.6477
16872TIP3    H272032   4.617   3.590  11.814 -1.2938 -0.4370 -0.6013
16873TIP3   OH272033   5.650   0.413  15.284  0.3303  0.0980  0.1985
16873TIP3    H172034   5.607   0.453  15.359  0.7238  2.9505 -1.0059
16873TIP3    H272035   5.591   0.344  15.255 -2.3214  2.3508  0.0309
16874TIP3   OH272036   5.125   2.729  11.089 -0.0331 -0.2602  0.4661
16874TIP3    H172037   5.183   2.716  11.014 -0.7979  0.0113 -0.1877
16874TIP3    H272038   5.172   2.692  11.163  1.6879  1.4100  0.2460
16875TIP3   OH272039   4.930   2.697   1.557  0.2767 -0.4966  0.2997
16875TIP3    H172040   4.910   2.687   1.650 -0.6758 -1.0659  0.0345
16875TIP3    H272041   5.003   2.636   1.541  0.1254 -0.7468  0.5681
16876TIP3   OH272042   4.188   2.988  14.505  0.2152  0.7551 -0.3173
16876TIP3    H172043   4.111   3.044  14.495 -0.3001  0.0926 -0.0347
16876TIP3    H272044   4.182   2.955  14.594  0.6558  0.4398 -0.4058
16877TIP3   OH272045   3.737   3.766   1.887 -0.1446  0.0539  0.1673
16877TIP3    H172046   3.807   3.776   1.951  1.0640  4.3176 -1.6323
16877TIP3    H272047   3.781   3.768   1.802 -2.1538 -0.5274 -0.9305
16878TIP3   OH272048   4.443   5.980  13.888  0.3386 -0.3111  0.0325
16878TIP3    H172049   4.429   5.912  13.954 -0.8523 -0.4066 -0.3224
16878TIP3    H272050   4.532   5.964  13.856  0.2184 -1.4390  0.2534
16879TIP3   OH272051   3.948   2.925   5.519 -0.2118 -0.0051 -0.4481
16879TIP3    H172052   3.897   3.005   5.534 -0.3150 -0.0734 -0.4311
16879TIP3    H272053   4.039   2.955   5.514 -0.0429 -0.1080  1.5033
16880TIP3   OH272054   1.779   2.004  16.289 -0.2784  0.6075  0.3164
16880TIP3    H172055   1.791   1.909  16.284  0.7814  0.8138 -1.6997
16880TIP3    H272056   1.710   2.024  16.226 -1.4490  1.0449  1.7134
16881TIP3   OH272057   3.105   6.160  13.721  0.1777  0.0355 -0.0834
16881TIP3    H172058   3.047   6.102  13.671  1.1841  0.0745 -1.3264
16881TIP3    H272059   3.189   6.113  13.723  0.7584  1.0437 -0.3501
16882TIP3   OH272060   4.535   6.723  16.392 -0.1246 -0.1271 -0.2642
16882TIP3    H172061   4.445   6.696  16.409 -0.4210  0.5232 -0.8036
16882TIP3    H272062   4.585   6.682  16.462 -1.0962  1.0751  1.1842
16883TIP3   OH272063   5.916   3.569   2.491 -0.5161  0.4787  0.3199
16883TIP3    H172064   5.900   3.662   2.505  0.0834  0.7138 -0.5019
16883TIP3    H272065   5.900   3.555   2.397  0.9300  0.0966  0.1055
16884TIP3   OH272066   5.932   6.206   3.237 -0.1718  0.1087 -0.2912
16884TIP3    H172067   5.983   6.275   3.194 -0.3569  0.1350 -0.4718
16884TIP3    H272068   5.841   6.234   3.226 -0.2675 -0.3491 -0.6805
16885TIP3   OH272069   2.401   0.608  12.221 -0.3153  0.2976  0.6893
16885TIP3    H172070   2.333   0.675  12.221 -0.0337  0.5887  1.5084
16885TIP3    H272071   2.409   0.582  12.129  0.9140  2.7259  0.0609
16886TIP3   OH272072   6.273   0.689   1.986  0.0551 -0.2629 -0.4494
16886TIP3    H172073   6.367   0.700   1.971  0.0677 -1.7365 -1.5255
16886TIP3    H272074   6.265   0.602   2.026 -0.7302  0.4425  0.9637
16887TIP3   OH272075   6.188   0.949  16.250  0.5448 -0.5618 -0.0366
16887TIP3    H172076   6.170   0.864  16.291 -0.6168 -0.5558 -0.5386
16887TIP3    H272077   6.283   0.948  16.236  0.3691 -2.3622 -1.3112
16888TIP3   OH272078   5.441   1.264  17.057 -1.0227 -0.2961  0.0555
16888TIP3    H172079   5.488   1.229  16.982 -0.8071  2.8637 -1.3253
16888TIP3    H272080   5.348   1.255  17.034 -0.9631  0.3208 -0.4222
16889TIP3   OH272081   3.629   3.389  17.233  0.4109  0.3927  0.1263
16889TIP3    H172082   3.708   3.443  17.238 -0.1846  1.2883  0.0214
16889TIP3    H272083   3.571   3.425  17.300 -0.2701  0.3532 -0.4307
16890TIP3   OH272084   6.505   0.404   0.134 -0.3394  0.3305  0.6872
16890TIP3    H172085   6.505   0.451   0.052 -0.9672 -0.8212  0.0136
16890TIP3    H272086   6.428   0.348   0.130  0.6232 -1.0752  1.2560
16891TIP3   OH272087   1.458   0.081   2.751  0.0306 -0.1792  0.3120
16891TIP3    H172088   1.479   0.126   2.832 -0.8731 -0.4118  0.6857
16891TIP3    H272089   1.528   0.017   2.740 -0.1399 -0.5257  1.2013
16892TIP3   OH272090   4.032   5.766  14.324 -0.6021 -0.2144 -0.6859
16892TIP3    H172091   4.120   5.738  14.350 -0.7698  0.1568  0.3337
16892TIP3    H272092   3.978   5.688  14.334 -0.8125  0.1031  0.8858
16893TIP3   OH272093   4.499   3.441   2.927 -0.4744 -0.0634  0.3217
16893TIP3    H172094   4.549   3.518   2.901 -2.4197  0.7453 -1.1663
16893TIP3    H272095   4.472   3.401   2.844 -0.3307 -1.7966  1.0825
16894TIP3   OH272096   0.625   4.565   2.544  0.2007  0.4944 -0.8666
16894TIP3    H172097   0.559   4.625   2.579 -0.2769 -1.7542  2.3195
16894TIP3    H272098   0.577   4.510   2.482 -0.4177  0.2794 -0.1974
16895TIP3   OH272099   3.907   4.656  15.204 -0.0443  0.0846 -0.5527
16895TIP3    H172100   3.941   4.729  15.152 -1.1231  0.7223 -0.3779
16895TIP3    H272101   3.879   4.591  15.139  2.2767 -0.8435 -0.7009
16896TIP3   OH272102   6.121   3.711  16.348  0.5496  0.0668 -0.2745
16896TIP3    H172103   6.073   3.673  16.275  1.1394 -0.7962 -0.2123
16896TIP3    H272104   6.180   3.775  16.308 -1.2254  1.7636 -0.2819
16897TIP3   OH272105   6.301   3.697  10.880 -0.5262  0.0067  0.5141
16897TIP3    H172106   6.228   3.679  10.939 -1.0258  0.4884  0.0406
16897TIP3    H272107   6.322   3.612  10.841 -2.3568  0.2899 -1.1142
16898TIP3   OH272108   4.289   4.110   2.079 -0.0385 -0.1984 -0.0075
16898TIP3    H172109   4.229   4.035   2.083 -0.4404  0.1114 -0.1777
16898TIP3    H272110   4.375   4.071   2.063 -0.0711 -0.7021  1.0113
16899TIP3   OH272111   5.835   5.449   4.430  0.3504  0.8830 -0.3726
16899TIP3    H172112   5.913   5.413   4.387  0.9031  1.6736 -0.0407
16899TIP3    H272113   5.863   5.467   4.519 -0.6072 -0.1159  0.1399
16900TIP3   OH272114   4.346   0.883   0.588  0.6526  0.2305 -0.1642
16900TIP3    H172115   4.266   0.908   0.634 -0.0157 -0.4381 -0.9540
16900TIP3    H272116   4.319   0.811   0.530  1.8264 -0.0246 -0.4061
16901TIP3   OH272117   5.520   2.442   4.458  0.1308 -0.4752 -0.2688
16901TIP3    H172118   5.594   2.447   4.519 -1.4857  0.3019  1.7096
16901TIP3    H272119   5.517   2.529   4.417  0.1194 -0.3934 -0.0954
16902TIP3   OH272120   0.799   6.162   2.922 -0.4287 -0.0420 -0.2774
16902TIP3    H172121   0.722   6.201   2.963 -0.0712  0.2981  0.0738
16902TIP3    H272122   0.835   6.231   2.866 -0.4172 -0.2249 -0.4990
16903TIP3   OH272123   1.501   1.259  13.258 -0.0700  0.4633  0.0261
16903TIP3    H172124   1.519   1.178  13.211 -0.0972  0.4166  0.0966
16903TIP3    H272125   1.541   1.328  13.204  0.1859  0.3764  0.1056
16904TIP3   OH272126   1.867   6.696   2.004 -0.0780 -0.5148 -0.1294
16904TIP3    H172127   1.776   6.688   2.032 -0.1662  0.5245 -0.1261
16904TIP3    H272128   1.907   6.757   2.066  0.6511 -1.0419 -0.0670
16905TIP3   OH272129   2.251   5.202   0.103 -0.0141 -0.0891 -0.4591
16905TIP3    H172130   2.310   5.266   0.064 -1.3021  1.1716 -0.3909
16905TIP3    H272131   2.227   5.240   0.188 -2.4206  0.3633 -1.2980
16906TIP3   OH272132   4.088   3.229   0.371  0.4249  0.2992 -1.0065
16906TIP3    H172133   4.137   3.282   0.434  0.8565 -2.3975  0.9987
16906TIP3    H272134   3.997   3.235   0.401  0.6561 -1.1367  0.0201
16907TIP3   OH272135   4.748   4.144   1.409  0.0265 -0.2051 -0.0550
16907TIP3    H172136   4.785   4.214   1.463 -0.9161  0.1110  0.1864
16907TIP3    H272137   4.654   4.164   1.405  0.1414  0.0558 -2.1855
16908TIP3   OH272138   6.453   4.555  12.690  0.8394 -0.4691 -0.1311
16908TIP3    H172139   6.388   4.596  12.634  1.1452  1.6125  0.9846
16908TIP3    H272140   6.534   4.558  12.639  0.5466 -1.0639 -0.6395
16909TIP3   OH272141   2.283   4.052   6.672 -0.8347  0.7976  0.9868
16909TIP3    H172142   2.249   4.139   6.695 -0.8159  0.8699  0.7459
16909TIP3    H272143   2.346   4.069   6.603 -0.4041  0.6480  1.3430
16910TIP3   OH272144   5.022   6.326  15.243  0.0171 -0.7327 -0.9661
16910TIP3    H172145   5.088   6.290  15.184  0.0767 -0.5602 -1.0048
16910TIP3    H272146   4.938   6.304  15.202  0.0097 -2.0212 -0.3156
16911TIP3   OH272147   6.010   1.794   5.836  0.1936 -0.2118  0.6615
16911TIP3    H172148   6.094   1.824   5.801  0.1709  0.0639  0.8397
16911TIP3    H272149   6.020   1.801   5.931  0.8727 -2.5946  0.8153
16912TIP3   OH272150   1.778   3.914  16.214  0.2012 -0.3731 -0.4376
16912TIP3    H172151   1.857   3.869  16.245 -0.4624 -0.7697  0.6750
16912TIP3    H272152   1.810   3.996  16.177  1.0446 -0.1432  0.7991
16913TIP3   OH272153   2.265   2.953  14.947  0.1730 -0.5761  0.2127
16913TIP3    H172154   2.213   2.991  15.018  1.5250 -1.4788  1.7101
16913TIP3    H272155   2.278   2.862  14.973  0.4392 -0.9940 -1.3489
16914TIP3   OH272156   6.132   4.655   1.326 -0.4767  0.1688  0.4827
16914TIP3    H172157   6.102   4.588   1.266  1.0666  0.9350 -1.1840
16914TIP3    H272158   6.085   4.734   1.300  0.5536  0.6157 -0.0587
16915TIP3   OH272159   3.767   2.025  12.294  0.0518 -0.7066 -0.4417
16915TIP3    H172160   3.834   2.050  12.230  0.1875  0.1992  0.0450
16915TIP3    H272161   3.687   2.069  12.264  0.4026  0.7423  0.6856
16916TIP3   OH272162   5.207   0.401   1.507 -0.0618  0.2287  0.1307
16916TIP3    H172163   5.202   0.434   1.417  1.3079  1.0716  0.3534
16916TIP3    H272164   5.144   0.329   1.509 -1.1293  1.0899 -1.1139
16917TIP3   OH272165   3.324   3.717  14.910  0.1173 -0.0415  0.2280
16917TIP3    H172166   3.272   3.748  14.984 -0.6724 -0.6485 -0.0690
16917TIP3    H272167   3.290   3.765  14.835  0.0172 -0.3928  0.0439
16918TIP3   OH272168   3.168   6.211  16.237  0.0101  0.2270  0.6414
16918TIP3    H172169   3.144   6.148  16.170 -0.5853  0.7426  0.3760
16918TIP3    H272170   3.112   6.190  16.312 -0.0938  0.3591  0.6002
16919TIP3   OH272171   3.092   4.548  15.505  0.2529  0.5582  0.2401
16919TIP3    H172172   3.056   4.559  15.593  0.8244  1.5478  0.3631
16919TIP3    H272173   3.053   4.467  15.473  0.4080 -0.0619  1.5812
16920TIP3   OH272174   6.487   1.094   3.619 -0.2475 -0.1093 -0.0462
16920TIP3    H172175   6.577   1.103   3.588  0.5899 -1.3714  1.9623
16920TIP3    H272176   6.475   1.000   3.632 -1.5279  0.1382  0.6366
16921TIP3   OH272177   1.942   6.209   5.624 -0.3613  0.0425  0.4394
16921TIP3    H172178   1.948   6.264   5.545 -0.7043  0.7451  0.8916
16921TIP3    H272179   2.003   6.137   5.608 -0.2262  0.3227 -0.3532
16922TIP3   OH272180   0.213   4.266  12.367 -0.1086  0.9112 -0.4306
16922TIP3    H172181   0.231   4.245  12.275  0.5341  0.0768 -0.1204
16922TIP3    H272182   0.132   4.316  12.365 -2.0444 -2.1322 -1.1400
16923TIP3   OH272183   1.541   0.707  11.615  0.3038 -0.5194  0.0903
16923TIP3    H172184   1.623   0.720  11.568  0.9482  0.1689  1.3898
16923TIP3    H272185   1.477   0.758  11.567  1.0015  0.3370  0.0636
16924TIP3   OH272186   0.784   2.527   1.298 -0.3473 -0.6311 -0.1335
16924TIP3    H172187   0.749   2.444   1.266 -0.6327 -0.7287  0.4184
16924TIP3    H272188   0.878   2.520   1.287 -0.5020 -0.3158 -1.7618
16925TIP3   OH272189   6.674   1.731  15.319  0.2449  0.1362 -0.1020
16925TIP3    H172190   6.589   1.758  15.282  0.7104 -0.7010 -1.8713
16925TIP3    H272191   6.677   1.636  15.304  0.4737 -0.2186  2.1227
16926TIP3   OH272192   3.949   4.475  10.432  0.5210  0.0324 -0.0423
16926TIP3    H172193   3.859   4.506  10.442 -0.1769 -1.3346 -1.8251
16926TIP3    H272194   3.959   4.405  10.496  0.2241  0.0253 -0.0061
16927TIP3   OH272195   0.678   4.683   3.739 -0.0631 -0.3014 -0.4943
16927TIP3    H172196   0.709   4.626   3.810  0.5449  2.1071  1.2526
16927TIP3    H272197   0.585   4.698   3.759 -0.3077 -0.9234 -1.1390
16928TIP3   OH272198   3.924   2.192  13.641 -0.5928  0.7851 -0.7240
16928TIP3    H172199   3.975   2.154  13.569  0.1545  1.4915 -0.5834
16928TIP3    H272200   3.919   2.123  13.707  0.4345  0.7989 -0.6222
16929TIP3   OH272201   6.207   4.325  11.736 -0.3765 -0.2671 -0.2938
16929TIP3    H172202   6.261   4.399  11.764 -0.7594 -0.7683  1.8574
16929TIP3    H272203   6.158   4.358  11.660  0.6115  1.1676 -0.3315
16930TIP3   OH272204   3.643   0.064  16.684 -0.2133 -0.1157  0.2636
16930TIP3    H172205   3.603   0.001  16.743 -1.2749  0.9752  0.7225
16930TIP3    H272206   3.592   0.057  16.603 -0.1573 -0.0295  0.2214
16931TIP3   OH272207   3.578   3.087  11.324  0.0261 -0.0721 -0.3209
16931TIP3    H172208   3.668   3.064  11.300 -1.0507 -2.0324 -2.7108
16931TIP3    H272209   3.538   3.117  11.243 -2.2896 -2.0544  0.0207
16932TIP3   OH272210   1.497   1.921   0.687 -0.1911 -0.2817  0.2541
16932TIP3    H172211   1.552   1.910   0.609 -0.2095  1.3161  0.0044
16932TIP3    H272212   1.524   1.850   0.745  1.8928  0.2733  0.0080
16933TIP3   OH272213   5.043   5.326  13.171 -0.2697 -0.5201  0.0110
16933TIP3    H172214   5.038   5.238  13.133  0.8504 -1.8653  2.8176
16933TIP3    H272215   5.115   5.369  13.124  0.5398 -1.8469  0.0207
16934TIP3   OH272216   2.322   5.620   3.755  0.3327  0.1731  0.0036
16934TIP3    H172217   2.287   5.642   3.841 -0.1201 -0.0232 -0.1317
16934TIP3    H272218   2.385   5.689   3.736 -0.3683  0.8188  0.0130
16935TIP3   OH272219   0.468   2.440  15.014  0.4567 -0.4346 -0.5064
16935TIP3    H172220   0.434   2.466  15.099 -1.8131 -1.5952 -1.0230
16935TIP3    H272221   0.410   2.369  14.985  1.5609 -0.4822 -2.7227
16936TIP3   OH272222   1.925   4.304  12.299 -0.3731  0.1857  0.7751
16936TIP3    H172223   1.930   4.396  12.271 -0.0139  0.5947  2.1163
16936TIP3    H272224   1.875   4.260  12.231 -2.3557  1.8031  1.1357
16937TIP3   OH272225   5.038   1.732  11.119 -0.1981 -0.1044 -0.0909
16937TIP3    H172226   5.028   1.731  11.024 -0.7581 -0.4368 -0.0268
16937TIP3    H272227   5.000   1.815  11.146 -0.8035 -0.3881 -0.0704
16938TIP3   OH272228   6.186   4.030   4.445  0.7159  0.1354  0.3630
16938TIP3    H172229   6.191   4.092   4.372  0.4312 -2.0974 -1.6074
16938TIP3    H272230   6.102   4.047   4.486  0.8832  1.4221  0.1967
16939TIP3   OH272231   5.181   2.419   6.204  0.2834 -0.4784  0.5256
16939TIP3    H172232   5.175   2.324   6.217  1.7821 -0.3237  2.4081
16939TIP3    H272233   5.129   2.456   6.275 -0.8656  0.1122 -0.6087
16940TIP3   OH272234   2.309   2.948  12.241  0.0209 -1.1123 -0.5133
16940TIP3    H172235   2.401   2.973  12.255 -0.0634 -1.1208  0.0634
16940TIP3    H272236   2.313   2.884  12.170  0.4975 -1.3547 -0.2717
16941TIP3   OH272237   0.574   1.815   2.314 -0.2369 -0.4337 -0.5194
16941TIP3    H172238   0.591   1.852   2.228 -1.0182  2.4872  0.5191
16941TIP3    H272239   0.497   1.861   2.346 -0.4724 -2.0508  1.4138
16942TIP3   OH272240   6.118   4.103  11.903  0.0308  0.1899 -0.4740
16942TIP3    H172241   6.063   4.034  11.865  0.1832  0.1194 -0.5643
16942TIP3    H272242   6.142   4.158  11.829  0.8142 -0.2853 -0.5720
16943TIP3   OH272243   4.786   3.751   2.287 -0.5801  0.5177 -0.3740
16943TIP3    H172244   4.733   3.794   2.354 -0.2652  2.3774 -1.2740
16943TIP3    H272245   4.876   3.756   2.320 -0.5337  0.6562 -0.5177
16944TIP3   OH272246   0.614   0.002   4.339 -0.1095 -0.0654  0.8263
16944TIP3    H172247   0.589   0.041   4.255  1.6953  1.9108  1.1381
16944TIP3    H272248   0.562  -0.078   4.346 -0.2546 -0.2740 -2.1926
16945TIP3   OH272249   1.080   6.168   5.248  0.9010 -0.1578  0.0194
16945TIP3    H172250   1.137   6.244   5.251 -1.8534  1.9467  0.4657
16945TIP3    H272251   1.029   6.180   5.168  0.3273 -1.4835  0.1702
16946TIP3   OH272252   1.306   2.448   2.189  0.1203 -0.5071  0.0546
16946TIP3    H172253   1.295   2.359   2.158  1.5309 -0.3603 -0.9408
16946TIP3    H272254   1.217   2.480   2.205 -0.3909 -2.0316  0.2768
16947TIP3   OH272255   4.465   6.733  15.112  0.5635 -0.1118  0.1390
16947TIP3    H172256   4.522   6.656  15.113 -2.4697 -2.4747 -0.9618
16947TIP3    H272257   4.423   6.733  15.197  0.5336  0.3375  0.1259
16948TIP3   OH272258   1.371   3.868   4.066  0.3855  0.3538 -0.0400
16948TIP3    H172259   1.309   3.834   4.130 -0.6906  1.2508 -0.5732
16948TIP3    H272260   1.449   3.813   4.075 -0.8396 -1.4337 -0.0197
16949TIP3   OH272261   5.877   2.494   5.612 -0.2016 -0.3272  0.6013
16949TIP3    H172262   5.907   2.411   5.574 -0.1466 -0.9224  1.9013
16949TIP3    H272263   5.814   2.528   5.549  1.1138 -0.4509 -0.8162
16950TIP3   OH272264   4.630   0.751   5.602  0.2418  0.2897  0.1441
16950TIP3    H172265   4.599   0.744   5.692 -0.5455  0.8096 -0.0835
16950TIP3    H272266   4.619   0.843   5.580  3.0554  0.7424  0.4459
16951TIP3   OH272267   6.102   1.590   0.276  0.6064 -0.1644 -0.3120
16951TIP3    H172268   6.111   1.509   0.226  1.3305 -0.2013 -0.1322
16951TIP3    H272269   6.048   1.566   0.351  0.4133 -0.3682 -0.5182
16952TIP3   OH272270   1.121   4.029   2.303  0.0617  0.1706  0.4698
16952TIP3    H172271   1.185   4.087   2.262 -1.9101  2.8278  1.0175
16952TIP3    H272272   1.094   3.969   2.233  1.7184  0.2114 -0.2425
16953TIP3   OH272273   2.741   5.573   4.442  0.1780  0.0548  0.0654
16953TIP3    H172274   2.834   5.588   4.459 -0.0451  1.3306  0.2015
16953TIP3    H272275   2.696   5.646   4.485 -0.7721  0.3500 -1.3728
16954TIP3   OH272276   5.487   3.018   4.772 -0.2359 -0.1970  0.1607
16954TIP3    H172277   5.409   3.037   4.721  0.7244  5.3015  0.4499
16954TIP3    H272278   5.559   3.025   4.709  0.3683 -0.7642  0.7778
16955TIP3   OH272279   2.270   6.549   3.073  0.5542  0.0843 -0.1229
16955TIP3    H172280   2.323   6.533   3.151  0.1951 -1.7399 -0.2284
16955TIP3    H272281   2.331   6.583   3.008  0.7131  2.3642  1.1746
16956TIP3   OH272282   6.555   2.618  15.439 -0.1247 -0.0235 -0.3533
16956TIP3    H172283   6.580   2.581  15.354  1.0961  0.0814 -0.0434
16956TIP3    H272284   6.459   2.612  15.440 -0.2196  0.9082 -2.1630
16957TIP3   OH272285   2.865   4.604   0.386 -0.2603  0.3092 -0.8057
16957TIP3    H172286   2.815   4.647   0.455  1.4075 -1.5146  1.6224
16957TIP3    H272287   2.853   4.511   0.402  2.7621 -0.1570 -0.9928
16958TIP3   OH272288   4.568   4.364  12.782 -0.2168  0.3450  0.3768
16958TIP3    H172289   4.540   4.396  12.868  1.8800  1.3429  0.7254
16958TIP3    H272290   4.647   4.312  12.800  0.5126  0.9447 -0.9834
16959TIP3   OH272291   1.241   6.640   0.754  0.7300 -0.1529  0.1427
16959TIP3    H172292   1.217   6.693   0.678  1.4313  0.8448  0.6182
16959TIP3    H272293   1.171   6.574   0.760 -1.0481  1.7179  0.5664
16960TIP3   OH272294   4.632   1.643  11.717  0.7543 -0.4870  0.1428
16960TIP3    H172295   4.705   1.695  11.681 -1.1905  1.4041 -1.2177
16960TIP3    H272296   4.599   1.696  11.789  0.7422 -1.3569  0.7738
16961TIP3   OH272297   6.138   3.282   6.879 -0.7109 -0.1556  0.1853
16961TIP3    H172298   6.086   3.202   6.890  0.4755 -0.9355  0.2441
16961TIP3    H272299   6.229   3.252   6.883 -0.2216  1.5078  2.5847
16962TIP3   OH272300   3.986   3.313  11.201 -0.2183 -0.1147 -0.5201
16962TIP3    H172301   4.045   3.376  11.244 -1.6231  0.2881  0.8530
16962TIP3    H272302   3.966   3.354  11.117  0.5091  0.3048 -0.5034
16963TIP3   OH272303   6.026   6.569  11.131 -0.1964 -0.0297  0.2545
16963TIP3    H172304   5.972   6.491  11.115 -0.1380 -0.0592  0.2000
16963TIP3    H272305   6.095   6.565  11.065  0.4186 -0.4829  0.9203
16964TIP3   OH272306   1.838   4.534  13.369 -0.5889  0.3961  0.0476
16964TIP3    H172307   1.910   4.474  13.348  0.1774  0.2790  2.8541
16964TIP3    H272308   1.849   4.607  13.308  3.4845  1.6095  2.0838
16965TIP3   OH272309   1.029   4.962   1.966  0.0853  0.1587  0.0138
16965TIP3    H172310   0.974   4.921   1.899  0.5860  1.3129 -1.1258
16965TIP3    H272311   1.005   5.055   1.963  2.3260  0.7481 -0.7522
16966TIP3   OH272312   2.454   0.304  15.051  0.3231  0.1786 -0.3445
16966TIP3    H172313   2.494   0.382  15.014 -0.0399  1.7123  2.3795
16966TIP3    H272314   2.527   0.255  15.089  0.3125  0.1143 -0.4061
16967TIP3   OH272315   0.250   0.712  14.087  0.9641 -0.3895  0.2138
16967TIP3    H172316   0.243   0.669  14.172 -1.5050 -0.7704 -0.1546
16967TIP3    H272317   0.285   0.644  14.029 -1.9343 -1.6549 -0.1281
16968TIP3   OH272318   5.592   4.508  16.441  0.0324 -0.5089  0.6590
16968TIP3    H172319   5.535   4.451  16.390  1.1746  0.5568 -1.8601
16968TIP3    H272320   5.670   4.519  16.388  1.6648 -0.0880  3.0502
16969TIP3   OH272321   1.520   2.939  12.972  0.4596 -0.0548  0.0089
16969TIP3    H172322   1.429   2.911  12.960  0.8008 -0.7391 -1.0915
16969TIP3    H272323   1.550   2.893  13.050 -0.3589  0.7484  0.8127
16970TIP3   OH272324   5.810   2.243  13.996  0.0499  0.2897 -0.4923
16970TIP3    H172325   5.893   2.288  13.986  0.0745  0.1777 -0.7837
16970TIP3    H272326   5.824   2.185  14.071 -0.3231  1.5349  0.5595
16971TIP3   OH272327   4.166   5.871   2.202 -0.5570  0.0546  0.3276
16971TIP3    H172328   4.134   5.783   2.219  0.4436 -0.4591 -0.3932
16971TIP3    H272329   4.120   5.899   2.123 -1.2629  0.3771  0.8566
16972TIP3   OH272330   4.979   1.608   3.403 -0.2058 -0.0562  0.0320
16972TIP3    H172331   5.001   1.548   3.474 -0.4833 -0.8676 -0.5600
16972TIP3    H272332   4.906   1.566   3.358  1.4435 -0.6910 -2.1453
16973TIP3   OH272333   2.801   2.697  17.003  0.1333  0.3822  0.1548
16973TIP3    H172334   2.807   2.602  17.004 -1.1487  0.2897  0.0047
16973TIP3    H272335   2.788   2.721  17.094  1.9706  0.5355  0.3949
16974TIP3   OH272336   0.031   0.772   4.791  0.2946  0.1881 -0.0590
16974TIP3    H172337   0.033   0.864   4.815  2.0408 -0.1191  1.0708
16974TIP3    H272338   0.010   0.771   4.698  0.2223  1.7101 -0.0642
16975TIP3   OH272339   2.848   3.681   1.503  0.1902  0.1372  0.2848
16975TIP3    H172340   2.759   3.672   1.538  0.7645 -2.3929  1.2380
16975TIP3    H272341   2.836   3.696   1.409 -1.2447 -0.4773  0.3590
16976TIP3   OH272342   4.321   2.949   1.328 -0.4385 -0.5212  0.0067
16976TIP3    H172343   4.365   2.864   1.336 -0.8450 -0.6451  0.8995
16976TIP3    H272344   4.247   2.945   1.388  0.3721  1.0076  1.1405
16977TIP3   OH272345   2.172   2.832   0.677 -0.0708 -0.5996  0.2805
16977TIP3    H172346   2.146   2.910   0.627  1.1609  0.2624  0.9685
16977TIP3    H272347   2.130   2.759   0.631  1.6425  0.0742 -2.4660
16978TIP3   OH272348   6.592   6.728  13.364 -0.8398  0.3342  0.0215
16978TIP3    H172349   6.561   6.691  13.281 -0.7562  0.5961 -0.1269
16978TIP3    H272350   6.562   6.819  13.362 -0.2902  0.5152 -0.0027
16979TIP3   OH272351   3.582   0.996  15.941  0.0790 -0.1977 -0.0167
16979TIP3    H172352   3.582   1.006  16.036  1.3245  2.5466 -0.2617
16979TIP3    H272353   3.674   1.003  15.915 -0.4130  0.8921 -1.5617
16980TIP3   OH272354   2.921   1.778  16.806  0.7217  0.0922  0.4263
16980TIP3    H172355   2.937   1.692  16.768 -1.5350  0.2912 -1.0419
16980TIP3    H272356   2.966   1.775  16.891  2.8030 -1.6095 -0.6888
16981TIP3   OH272357   5.125   1.828  11.765  0.8486  0.4949 -0.2593
16981TIP3    H172358   5.159   1.823  11.854  0.2901  2.5798  0.1120
16981TIP3    H272359   5.201   1.849  11.711  1.4533 -2.1946 -0.5076
16982TIP3   OH272360   1.777   1.436  11.905 -0.0519 -0.4412 -0.4986
16982TIP3    H172361   1.817   1.350  11.895 -0.4663 -0.5989 -0.7990
16982TIP3    H272362   1.844   1.497  11.874 -1.3949 -0.9182 -4.6673
16983TIP3   OH272363   0.349   2.913  11.759 -1.5386 -1.1900  0.2087
16983TIP3    H172364   0.370   2.918  11.666 -0.4040  0.3325  0.5239
16983TIP3    H272365   0.424   2.868  11.798 -1.5501 -0.9399  0.5226
16984TIP3   OH272366   3.193   6.108   5.529  0.7628 -0.1478  0.0638
16984TIP3    H172367   3.252   6.177   5.562 -0.2736  0.2994  1.0098
16984TIP3    H272368   3.230   6.027   5.563  0.7044  0.1508  0.8436
16985TIP3   OH272369   4.813   0.235   0.043 -0.3378 -0.0529  0.7670
16985TIP3    H172370   4.728   0.228  -0.000 -0.3769 -1.2073  1.0278
16985TIP3    H272371   4.873   0.189  -0.015 -0.0621 -0.0748  1.0714
16986TIP3   OH272372   1.549   3.608   1.680  0.3270 -0.4113  0.0534
16986TIP3    H172373   1.461   3.624   1.647  0.9859  1.2959 -0.9251
16986TIP3    H272374   1.539   3.605   1.775 -0.6703  0.5520 -0.0084
16987TIP3   OH272375   0.826   4.472  11.415 -0.0745  0.0380  0.5206
16987TIP3    H172376   0.756   4.534  11.435  0.2091  0.2821  0.7689
16987TIP3    H272377   0.808   4.443  11.326 -0.4351  0.1766  0.5486
16988TIP3   OH272378   2.964   2.586   2.568  0.1473  0.5034  0.3641
16988TIP3    H172379   3.014   2.661   2.599  0.3501  1.0303 -1.1690
16988TIP3    H272380   3.014   2.553   2.493  1.1345 -2.4310  2.2472
16989TIP3   OH272381   3.490   3.821   1.827 -0.4093  0.6958  0.0385
16989TIP3    H172382   3.442   3.772   1.894 -1.5581  0.2613 -1.0836
16989TIP3    H272383   3.582   3.806   1.847 -0.6949 -3.1341 -1.1181
16990TIP3   OH272384   0.307   4.577  14.474 -0.2205  0.5247  0.3398
16990TIP3    H172385   0.237   4.637  14.500  0.0429  1.5786 -1.3287
16990TIP3    H272386   0.287   4.495  14.520 -2.2969  0.9472  0.1996
16991TIP3   OH272387   4.263   4.911   1.542  0.2185 -0.2173  0.5593
16991TIP3    H172388   4.186   4.880   1.493  1.7636 -0.1088 -2.0322
16991TIP3    H272389   4.328   4.842   1.530  0.3844 -0.5315  3.1540
16992TIP3   OH272390   6.023   3.600  13.218 -0.2480 -0.4480 -0.2109
16992TIP3    H172391   5.945   3.547  13.235 -0.5922 -0.5005 -1.8783
16992TIP3    H272392   6.063   3.613  13.305 -2.8956  0.8247  0.8644
16993TIP3   OH272393   6.752   6.741  13.937 -0.0776  0.1140 -0.0700
16993TIP3    H172394   6.694   6.815  13.952  0.9516  0.6185  1.4902
16993TIP3    H272395   6.836   6.780  13.913  0.0644 -0.5719 -0.7022
16994TIP3   OH272396   3.479   3.325   1.222  0.6038 -0.3731 -0.1465
16994TIP3    H172397   3.531   3.262   1.273  1.2530 -0.7594 -1.2596
16994TIP3    H272398   3.544   3.376   1.174  0.1861  2.4874  2.2135
16995TIP3   OH272399   2.877   0.897  15.086 -0.1672  0.0933 -0.1959
16995TIP3    H172400   2.893   0.991  15.076  0.2658 -0.0350 -0.7358
16995TIP3    H272401   2.782   0.890  15.093 -0.1911  0.5875 -0.0088
16996TIP3   OH272402   2.536   6.241   1.550 -0.0446 -0.2401  0.1420
16996TIP3    H172403   2.520   6.236   1.456  0.0505  1.7611  0.0130
16996TIP3    H272404   2.592   6.165   1.568  0.1697 -0.4831 -1.4571
16997TIP3   OH272405   4.982   2.382  16.649 -0.6098  0.4081 -0.2494
16997TIP3    H172406   4.915   2.318  16.672  1.6194 -1.5990  0.8764
16997TIP3    H272407   4.996   2.369  16.555  0.4950 -1.4691  0.1487
16998TIP3   OH272408   1.660   3.792   4.171 -0.5030  0.1851  0.1424
16998TIP3    H172409   1.681   3.714   4.120 -0.1286 -0.3034  1.0229
16998TIP3    H272410   1.730   3.854   4.151 -1.9590  1.1149 -2.2272
16999TIP3   OH272411   5.137   5.508  16.498 -0.1800  0.0826  0.3622
16999TIP3    H172412   5.230   5.531  16.489 -0.4220  1.2146  0.6248
16999TIP3    H272413   5.134   5.413  16.484  0.7612  0.3177 -1.4933
17000TIP3   OH272414   4.984   2.201   0.034  0.4295  0.0747  0.1061
17000TIP3    H172415   5.077   2.184   0.049  0.4973  0.2122 -0.1501
17000TIP3    H272416   4.976   2.296   0.044  0.4227  0.1325 -0.4305
17001TIP3   OH272417   0.427   6.100  13.204 -0.1861  0.2951 -0.5507
17001TIP3    H172418   0.343   6.141  13.186 -0.4848 -0.3445 -0.6079
17001TIP3    H272419   0.470   6.093  13.119  0.0882  0.9569 -0.4759
17002TIP3   OH272420   0.075   0.572   5.611  0.3995 -0.0656  0.2488
17002TIP3    H172421   0.044   0.573   5.520  1.2609 -0.9188 -0.0623
17002TIP3    H272422   0.020   0.507   5.655 -0.5603  0.9282  0.5458
17003TIP3   OH272423   6.360   6.277   5.177 -0.8815 -0.6083 -0.6187
17003TIP3    H172424   6.306   6.259   5.254  1.1373  1.3559  1.3633
17003TIP3    H272425   6.434   6.217   5.186 -0.9641 -0.8353 -1.4232
17004TIP3   OH272426   0.371   2.898   0.989 -0.5475  0.1488  0.3080
17004TIP3    H172427   0.390   2.919   1.080  1.0317 -0.7139  0.1957
17004TIP3    H272428   0.385   2.804   0.982 -2.4576 -0.1168 -0.4152
17005TIP3   OH272429   2.374   1.362  13.683  0.4153  0.2256 -0.1857
17005TIP3    H172430   2.459   1.353  13.727  0.3535 -2.8008 -0.5854
17005TIP3    H272431   2.310   1.348  13.752  0.2846 -0.5872 -0.4651
17006TIP3   OH272432   2.126   4.449   0.262 -0.1417  0.0278 -0.5587
17006TIP3    H172433   2.104   4.470   0.353 -0.4268 -2.2156 -0.0583
17006TIP3    H272434   2.221   4.464   0.256 -0.1560  0.3759  0.0620
17007TIP3   OH272435   3.465   1.998  11.092 -0.3304  0.4100 -0.3114
17007TIP3    H172436   3.500   1.948  11.166 -0.2077  1.3392  0.2691
17007TIP3    H272437   3.377   1.963  11.079  0.2731 -0.9286 -0.8272
17008TIP3   OH272438   3.810   2.864  17.015  0.1567 -0.3837 -0.4943
17008TIP3    H172439   3.870   2.790  17.019 -0.5193 -0.9116 -0.0827
17008TIP3    H272440   3.724   2.827  17.035 -0.1730  0.5152 -0.2146
17009TIP3   OH272441   2.012   0.855  14.514  0.0919  0.3504 -0.0890
17009TIP3    H172442   1.936   0.909  14.531  0.6043  0.6928  1.2070
17009TIP3    H272443   2.081   0.917  14.488 -0.3718 -0.0650 -2.3648
17010TIP3   OH272444   0.654   6.434  15.335 -0.3109  0.9958  0.6239
17010TIP3    H172445   0.667   6.339  15.344 -1.3977  0.7468 -0.4467
17010TIP3    H272446   0.699   6.470  15.412 -0.9932 -0.4722  1.7600
17011TIP3   OH272447   4.875   0.006  14.765  0.0135  0.3520 -0.5645
17011TIP3    H172448   4.968   0.029  14.763  0.2507 -0.4963  0.4753
17011TIP3    H272449   4.830   0.086  14.736  1.0104  1.1113 -0.0578
17012TIP3   OH272450   0.724   3.117  12.434 -0.2715  0.3780  0.1524
17012TIP3    H172451   0.678   3.169  12.368 -1.8779  0.4896  1.3121
17012TIP3    H272452   0.798   3.078  12.387 -1.0105  0.9664 -1.5503
17013TIP3   OH272453   0.851   5.663  14.092 -0.0226 -0.0350  0.2716
17013TIP3    H172454   0.858   5.690  14.184 -0.7631 -0.7402  0.5368
17013TIP3    H272455   0.940   5.673  14.058 -0.3370  3.0785  0.2493
17014TIP3   OH272456   3.185   5.353   6.708  0.1453 -0.0062  0.2724
17014TIP3    H172457   3.267   5.330   6.665 -0.1533 -0.4301 -0.0687
17014TIP3    H272458   3.161   5.275   6.757 -0.6140 -0.2645 -0.5000
17015TIP3   OH272459   3.764   4.215  15.730 -0.4609  0.5296  0.2870
17015TIP3    H172460   3.812   4.135  15.753 -0.4943  0.9217  1.8024
17015TIP3    H272461   3.681   4.208  15.777 -0.9977  0.8554 -0.6022
17016TIP3   OH272462   2.361   2.726   6.055 -0.5576 -0.3989  0.3832
17016TIP3    H172463   2.340   2.815   6.082 -0.1852 -0.3970  0.6534
17016TIP3    H272464   2.285   2.674   6.083 -1.0439 -0.0713 -0.3018
17017TIP3   OH272465   1.026   2.360  11.144  0.0889 -0.3161 -0.1352
17017TIP3    H172466   1.034   2.407  11.061 -1.7838  0.0288 -0.1414
17017TIP3    H272467   0.933   2.361  11.164  0.3473 -1.5924  1.2975
17018TIP3   OH272468   4.534   0.378  14.806  0.9601 -0.0692  0.2129
17018TIP3    H172469   4.530   0.293  14.849  0.9206 -1.0949 -1.7851
17018TIP3    H272470   4.618   0.415  14.834  1.2469 -1.0204  0.6144
17019TIP3   OH272471   2.485   5.203  10.738 -0.4077 -0.1675  0.5530
17019TIP3    H172472   2.573   5.218  10.773  0.1298  1.4143 -1.3480
17019TIP3    H272473   2.485   5.112  10.710  0.7108 -0.1254  0.3855
17020TIP3   OH272474   4.867   3.754   2.947  0.0533  0.0811 -0.5081
17020TIP3    H172475   4.915   3.825   2.990  0.5461 -1.0574  0.8720
17020TIP3    H272476   4.928   3.680   2.947 -1.4018 -1.1628  0.6068
17021TIP3   OH272477   2.340   5.236   1.979  0.0603  0.2134 -0.1740
17021TIP3    H172478   2.416   5.289   1.956 -1.2654  2.3585  0.2578
17021TIP3    H272479   2.360   5.202   2.067  0.7075  0.3938 -0.2529
17022TIP3   OH272480   0.593   3.823   5.524 -0.7519  0.2036  0.2016
17022TIP3    H172481   0.534   3.767   5.473  0.2833 -0.7561  0.0391
17022TIP3    H272482   0.573   3.802   5.615 -0.7721 -0.0072  0.1492
17023TIP3   OH272483   5.266   2.304  11.485  0.0362  0.5746  0.2096
17023TIP3    H172484   5.172   2.321  11.476  0.3308  2.2986  0.3084
17023TIP3    H272485   5.278   2.281  11.577 -0.7055 -2.5380 -0.3959
17024TIP3   OH272486   6.111   3.453   2.689 -0.3714  0.0641  0.0414
17024TIP3    H172487   6.073   3.489   2.609  0.2315 -1.0711 -0.7801
17024TIP3    H272488   6.037   3.412   2.734 -0.7824  1.0351  0.2563
17025TIP3   OH272489   4.109   5.411   4.433  0.0787  0.0099  0.6159
17025TIP3    H172490   4.067   5.419   4.348  1.1195 -1.0632 -0.0166
17025TIP3    H272491   4.037   5.417   4.496 -0.7339  0.4965 -0.3384
17026TIP3   OH272492   5.914   2.732  15.259  0.4747  0.2712  0.1312
17026TIP3    H172493   5.882   2.643  15.276  0.3060  0.4635  0.8813
17026TIP3    H272494   6.007   2.721  15.239  0.1156 -0.2239 -1.3211
17027TIP3   OH272495   1.845   3.982   3.697 -0.5207  0.0115  0.1424
17027TIP3    H172496   1.864   3.918   3.766 -1.7100  0.3643  0.8125
17027TIP3    H272497   1.850   4.067   3.742 -0.5767  0.2885 -0.3712
17028TIP3   OH272498   6.514   2.686  13.849 -0.0172 -0.4948 -0.1073
17028TIP3    H172499   6.528   2.593  13.835 -0.2983 -0.8609  1.9124
17028TIP3    H272500   6.577   2.710  13.917 -0.0031  0.7793 -0.5547
17029TIP3   OH272501   1.343   4.460  13.913 -0.5048 -0.0750 -0.4012
17029TIP3    H172502   1.275   4.439  13.849 -0.0232 -2.2897 -0.2232
17029TIP3    H272503   1.307   4.433  13.997  0.8143 -1.8368 -0.3819
17030TIP3   OH272504   5.254   4.741   4.614  0.1689 -0.4005 -0.2528
17030TIP3    H172505   5.219   4.817   4.568 -0.2046 -0.5958 -0.2984
17030TIP3    H272506   5.311   4.698   4.550  1.6668  0.7303  0.2953
17031TIP3   OH272507   1.410   4.011  13.528  0.5218 -0.1455 -0.3996
17031TIP3    H172508   1.380   4.007  13.438  0.7998 -0.0750 -0.4955
17031TIP3    H272509   1.335   3.978  13.580  1.2576 -2.6748 -0.8586
17032TIP3   OH272510   4.263   3.963   1.088  0.3724 -0.1833  0.3337
17032TIP3    H172511   4.310   3.896   1.137 -1.7902 -3.2160 -1.5576
17032TIP3    H272512   4.309   3.969   1.004 -1.1102 -1.4485 -0.6038
17033TIP3   OH272513   5.084   3.672  16.069  0.4857  0.4858  0.4124
17033TIP3    H172514   5.033   3.738  16.021 -0.0722  0.2299  0.6447
17033TIP3    H272515   5.084   3.595  16.012  1.6209  0.8666 -0.1148
17034TIP3   OH272516   4.057   1.969   0.958 -0.0410  0.3846 -0.1806
17034TIP3    H172517   4.044   1.926   0.874  0.7844 -1.0015  0.3838
17034TIP3    H272518   3.998   1.923   1.018  1.0387 -0.1605  0.4825
17035TIP3   OH272519   1.778   5.911  14.787 -0.2826  0.0233  0.2104
17035TIP3    H172520   1.844   5.925  14.855 -0.3689 -2.6840  0.9246
17035TIP3    H272521   1.828   5.900  14.707 -0.1047  1.9978  0.0444
17036TIP3   OH272522   3.536   4.894  16.810 -0.2594 -0.4659 -0.6213
17036TIP3    H172523   3.454   4.923  16.850 -0.8223  0.2669 -2.2540
17036TIP3    H272524   3.530   4.799  16.806  0.2113 -0.6259  1.8589
17037TIP3   OH272525   2.101   2.291  14.737  0.6090 -0.6248 -0.2537
17037TIP3    H172526   2.095   2.227  14.808  1.6703  0.5134  0.9008
17037TIP3    H272527   2.133   2.370  14.780  1.7526 -0.0613 -2.1035
17038TIP3   OH272528   5.413   1.801  16.786  0.3693 -0.0262 -0.0532
17038TIP3    H172529   5.448   1.885  16.815  1.4447 -0.5473  0.1757
17038TIP3    H272530   5.328   1.823  16.747  1.0588  1.2919 -0.8636
17039TIP3   OH272531   1.834   5.019   5.656  0.4244 -0.4879  0.4471
17039TIP3    H172532   1.824   5.071   5.576 -0.5336 -0.7207  0.4078
17039TIP3    H272533   1.920   5.044   5.690  0.1347  0.8403  0.2346
17040TIP3   OH272534   6.054   3.201  12.848  0.1314  0.3874 -0.0745
17040TIP3    H172535   6.135   3.172  12.889  0.0711  0.6520  0.2391
17040TIP3    H272536   5.996   3.221  12.922  0.2814  1.6039 -0.2653
17041TIP3   OH272537   3.355   2.354   5.613 -0.2189 -0.5857 -0.0609
17041TIP3    H172538   3.331   2.375   5.703 -2.1483 -2.4042 -0.1078
17041TIP3    H272539   3.384   2.438   5.576 -1.5807  0.6502  1.5779
17042TIP3   OH272540   0.213   0.377  12.301 -0.2946  0.6900 -0.3311
17042TIP3    H172541   0.260   0.461  12.300 -0.9085  1.0607  0.5816
17042TIP3    H272542   0.272   0.316  12.345 -0.3934  0.9957  0.2357
17043TIP3   OH272543   1.876   6.191  15.189 -0.5675 -0.1118  0.3733
17043TIP3    H172544   1.803   6.131  15.203  0.1290 -0.9066  0.6209
17043TIP3    H272545   1.890   6.233  15.273 -1.6947  1.1428 -0.0436
17044TIP3   OH272546   4.808   0.020  13.133 -0.1413 -0.3705  0.4218
17044TIP3    H172547   4.838   0.041  13.222 -0.9882 -1.0672  0.8676
17044TIP3    H272548   4.721  -0.016  13.144 -0.3966 -0.1352 -0.7315
17045TIP3   OH272549   4.252   2.151  16.997 -0.0968  0.0198  0.3122
17045TIP3    H172550   4.305   2.072  17.001  0.2196  0.2891  1.5790
17045TIP3    H272551   4.229   2.169  17.089 -1.6584  0.3805 -0.1329
17046TIP3   OH272552   6.710   4.088  17.233  0.0618 -0.5427  0.4643
17046TIP3    H172553   6.703   4.178  17.265  1.8450  0.2078 -1.1821
17046TIP3    H272554   6.670   4.090  17.147  3.7217 -0.3289 -1.3241
17047TIP3   OH272555   3.524   6.117  15.987  0.1959 -0.3870 -0.6558
17047TIP3    H172556   3.563   6.044  16.036  0.2336 -0.5781 -0.9722
17047TIP3    H272557   3.510   6.083  15.899 -0.0262 -0.0909 -0.7359
17048TIP3   OH272558   5.599   4.329   2.897  0.4950  0.3014 -0.4363
17048TIP3    H172559   5.678   4.298   2.941  3.3157  2.3550 -3.7421
17048TIP3    H272560   5.591   4.272   2.821  0.8077  2.1559 -1.9164
17049TIP3   OH272561   0.903   6.153  15.957  0.4274  0.1295 -0.2739
17049TIP3    H172562   0.897   6.099  15.878  0.1330  1.4801 -1.1759
17049TIP3    H272563   0.825   6.208  15.955  0.5164  0.2994  0.8651
17050TIP3   OH272564   6.320   4.621   6.137 -0.2522 -0.1588  0.3604
17050TIP3    H172565   6.308   4.527   6.133 -0.4487 -0.1406  0.5550
17050TIP3    H272566   6.237   4.657   6.106 -0.0924 -0.0500  0.0439
17051TIP3   OH272567   6.069   0.852   5.312  0.2115  0.1881  0.0056
17051TIP3    H172568   6.144   0.873   5.368 -0.4691  0.2044  0.9181
17051TIP3    H272569   6.019   0.788   5.362 -1.1701  1.2763  0.0416
17052TIP3   OH272570   3.713   4.133   0.091 -0.3973  0.1691 -0.0230
17052TIP3    H172571   3.649   4.154   0.159 -0.9045  0.0411 -0.4531
17052TIP3    H272572   3.663   4.140   0.009  0.3877  1.0341 -0.4274
17053TIP3   OH272573   0.967   0.688   4.237  0.1272 -0.3002 -0.0264
17053TIP3    H172574   0.992   0.674   4.145  1.1219 -1.1209  0.3553
17053TIP3    H272575   1.009   0.615   4.284  1.9908  1.6891  1.4805
17054TIP3   OH272576   6.536   6.211  13.176  0.5099  0.0821 -0.2839
17054TIP3    H172577   6.588   6.170  13.107  0.2698 -0.1446 -0.3295
17054TIP3    H272578   6.579   6.296  13.191  0.6609  0.0601 -0.5918
17055TIP3   OH272579   4.171   1.031   3.518  0.2356 -0.1745 -0.5311
17055TIP3    H172580   4.132   0.960   3.468 -0.0729 -0.3870  0.0097
17055TIP3    H272581   4.159   1.006   3.610 -1.8315  1.6010 -0.2813
17056TIP3   OH272582   2.930   3.393  10.914 -0.1452  0.0846 -0.4685
17056TIP3    H172583   2.961   3.308  10.943 -0.1028 -0.1300 -1.1554
17056TIP3    H272584   2.836   3.392  10.931 -0.0624  0.0959 -0.0010
17057TIP3   OH272585   2.131   4.354   6.687  0.5674  0.0020 -0.4585
17057TIP3    H172586   2.048   4.390   6.656  0.7992 -0.1155 -1.2377
17057TIP3    H272587   2.134   4.376   6.780  0.1915  0.9988 -0.6785
17058TIP3   OH272588   3.128   1.652   3.508 -0.3836 -0.2449  0.3758
17058TIP3    H172589   3.209   1.691   3.541 -1.2110  1.1035  0.8824
17058TIP3    H272590   3.066   1.660   3.580 -2.1431  2.4746 -1.3231
17059TIP3   OH272591   0.539   1.147   5.104  0.6345  0.2171  0.0746
17059TIP3    H172592   0.537   1.107   5.017 -0.4090  1.8849 -0.7021
17059TIP3    H272593   0.567   1.237   5.087  3.1664 -0.2052  1.7961
17060TIP3   OH272594   1.208   5.288  15.219 -0.6706  0.1695  0.4467
17060TIP3    H172595   1.246   5.367  15.258 -1.1737 -0.9714  3.3087
17060TIP3    H272596   1.117   5.287  15.251 -1.9718  0.6098 -2.9491
17061TIP3   OH272597   0.742   1.516  11.795 -0.0464 -0.6606 -0.4033
17061TIP3    H172598   0.764   1.538  11.885  0.7023 -1.1508 -0.4606
17061TIP3    H272599   0.646   1.512  11.793 -0.0278 -1.6288  0.5941
17062TIP3   OH272600   0.274   2.426   1.977  0.0368  0.4301 -0.1228
17062TIP3    H172601   0.347   2.480   2.007  0.3534  0.7335 -1.4046
17062TIP3    H272602   0.278   2.347   2.032  0.0466  1.3492  1.2232
17063TIP3   OH272603   1.930   3.466  14.858 -0.2098 -0.5068  0.1891
17063TIP3    H172604   1.874   3.500  14.788  2.0414  0.3153 -1.2853
17063TIP3    H272605   2.000   3.419  14.812  0.8818 -0.6093  1.9166
17064TIP3   OH272606   5.353   4.334   6.402  0.4646 -0.7187  0.3938
17064TIP3    H172607   5.443   4.365   6.409  0.2365 -0.1243  0.7612
17064TIP3    H272608   5.324   4.326   6.493 -0.4323  0.7980  0.2497
17065TIP3   OH272609   5.685   6.167   6.236  0.4223 -0.1601 -0.3394
17065TIP3    H172610   5.640   6.125   6.310  1.4506 -2.1613 -0.8127
17065TIP3    H272611   5.692   6.259   6.262 -2.7142 -0.0548  0.3358
17066TIP3   OH272612   2.617   2.699   1.962 -0.5530 -0.3016 -0.5202
17066TIP3    H172613   2.564   2.686   1.884 -1.4375  2.2577 -0.3906
17066TIP3    H272614   2.657   2.786   1.950  1.1861 -0.8882  0.7886
17067TIP3   OH272615   6.526   1.631   3.404 -0.3800  0.1041 -0.3760
17067TIP3    H172616   6.456   1.685   3.367 -0.4559 -0.0354 -0.4346
17067TIP3    H272617   6.589   1.694   3.438  0.1704  0.2315 -1.6294
17068TIP3   OH272618   2.692   0.043  14.231  0.8665  0.5665 -0.0650
17068TIP3    H172619   2.599   0.061  14.246  1.1442  1.7918  0.2439
17068TIP3    H272620   2.695   0.005  14.144 -0.1052 -0.9987  0.5509
17069TIP3   OH272621   0.780   0.510  14.362  0.4755 -0.1233 -0.1683
17069TIP3    H172622   0.749   0.596  14.333 -0.5649 -0.2936  0.3988
17069TIP3    H272623   0.750   0.503  14.453  0.0815 -1.2962 -0.3754
17070TIP3   OH272624   5.853   1.787  16.537 -0.1824 -0.2752  0.1556
17070TIP3    H172625   5.758   1.796  16.525 -0.1489  1.1768  0.8208
17070TIP3    H272626   5.878   1.715  16.480 -2.2452 -3.1165  2.6861
17071TIP3   OH272627   5.110   4.811  11.114  0.1892  0.2759 -0.2208
17071TIP3    H172628   5.086   4.862  11.036  1.0599 -2.2736 -2.2221
17071TIP3    H272629   5.187   4.855  11.149 -0.9753  2.2074 -0.0056
17072TIP3   OH272630   5.885   4.166  12.273 -0.1113 -0.4221  0.0719
17072TIP3    H172631   5.897   4.079  12.236  0.6310 -0.7668  1.1033
17072TIP3    H272632   5.954   4.175  12.338 -0.2376  0.9027  0.0502
17073TIP3   OH272633   5.159   2.408   4.288 -0.4888 -0.2934 -0.4629
17073TIP3    H172634   5.147   2.377   4.198 -0.7027 -1.0912 -0.1693
17073TIP3    H272635   5.221   2.480   4.281 -1.8163  0.7622 -1.4472
17074TIP3   OH272636   3.260   4.862  13.550  0.5049 -0.0649 -0.3998
17074TIP3    H172637   3.315   4.808  13.493  0.5616 -1.6528  1.1481
17074TIP3    H272638   3.322   4.910  13.605  0.4408  1.3086 -1.4796
17075TIP3   OH272639   4.974   5.998   5.034 -0.5763 -0.2455 -0.2681
17075TIP3    H172640   4.890   6.039   5.053 -0.3852  0.3918 -0.7989
17075TIP3    H272641   4.995   6.023   4.944  2.4529  3.6157  1.3577
17076TIP3   OH272642   6.495   5.077  10.759 -0.2775  0.2346 -0.1953
17076TIP3    H172643   6.462   5.143  10.698  1.1395  0.2138 -0.9950
17076TIP3    H272644   6.569   5.118  10.802 -0.4656 -0.2219  0.5718
17077TIP3   OH272645   3.776   0.189  14.317  0.1705  0.5675 -0.2870
17077TIP3    H172646   3.706   0.130  14.290  1.0717  0.4295 -2.4163
17077TIP3    H272647   3.740   0.235  14.392 -1.0424 -1.7246  0.6039
17078TIP3   OH272648   3.504   3.712   0.385  0.4325 -0.9304  0.5519
17078TIP3    H172649   3.593   3.726   0.351  0.0981 -1.0343 -0.3753
17078TIP3    H272650   3.485   3.620   0.364 -0.1845 -0.6953  0.0683
17079TIP3   OH272651   2.983   4.346   1.194 -0.0306  0.9253 -0.0364
17079TIP3    H172652   3.064   4.388   1.163 -0.4911  1.7020 -0.1983
17079TIP3    H272653   2.922   4.419   1.207 -0.5340  0.3925  0.6074
17080TIP3   OH272654   6.756   2.405  12.240 -0.1967  0.1371  1.1221
17080TIP3    H172655   6.831   2.407  12.299  1.3308  0.4290 -0.7534
17080TIP3    H272656   6.776   2.472  12.174 -1.5232 -0.6228 -0.0861
17081TIP3   OH272657   1.960   1.847   2.357  0.5121 -0.6447 -0.2032
17081TIP3    H172658   1.872   1.853   2.319  0.9688  0.0736 -1.1533
17081TIP3    H272659   2.001   1.930   2.337  2.6481 -2.2756 -2.8604
17082TIP3   OH272660   4.870   3.292   4.376 -0.5483  0.1526  0.1347
17082TIP3    H172661   4.872   3.387   4.379 -1.0733  0.1701 -0.0194
17082TIP3    H272662   4.777   3.270   4.372 -0.4680 -0.3889  1.0729
17083TIP3   OH272663   3.393   5.087  12.513 -0.3177 -0.4503 -0.1648
17083TIP3    H172664   3.380   5.174  12.475 -0.0671 -0.0352  0.6901
17083TIP3    H272665   3.486   5.069  12.499 -0.0876 -0.0380  0.7651
17084TIP3   OH272666   6.690   2.836  12.819  0.5325 -0.1516 -0.8357
17084TIP3    H172667   6.732   2.905  12.870 -0.6226  0.7709 -1.1165
17084TIP3    H272668   6.690   2.760  12.877  0.4739  0.5003  0.0125
17085TIP3   OH272669   2.758   0.731  16.182  0.0330 -0.1938 -0.2200
17085TIP3    H172670   2.665   0.716  16.202  0.0465 -0.5089 -0.3740
17085TIP3    H272671   2.768   0.826  16.183 -0.2045 -0.1691  0.1940
17086TIP3   OH272672   5.602   2.745   2.333  0.5406  0.5005  0.5220
17086TIP3    H172673   5.553   2.744   2.251  0.7337  0.8240  0.4030
17086TIP3    H272674   5.630   2.655   2.346 -0.5489  0.1989  0.8640
17087TIP3   OH272675   0.962   2.506  14.802 -0.1886  0.3433 -0.0450
17087TIP3    H172676   0.880   2.483  14.758 -0.1778 -0.9347  0.5707
17087TIP3    H272677   1.028   2.451  14.760 -0.0872 -0.4852  1.1828
17088TIP3   OH272678   0.742   2.017  13.756 -0.2104 -0.0574 -0.5751
17088TIP3    H172679   0.682   2.058  13.693  2.2378  1.6377 -1.8691
17088TIP3    H272680   0.701   2.034  13.841 -2.0423  0.2412 -1.4781
17089TIP3   OH272681   1.079   1.770  15.022  0.2618  0.0887  0.2278
17089TIP3    H172682   0.998   1.795  14.979 -0.1323  2.4458  2.2441
17089TIP3    H272683   1.132   1.849  15.023  1.4190 -0.6679  1.4803
17090TIP3   OH272684   5.063   4.044  11.035  0.3103 -0.4545 -0.6901
17090TIP3    H172685   5.087   3.957  11.005 -0.7548 -0.5103 -1.4290
17090TIP3    H272686   5.095   4.103  10.968  0.9945 -0.2823 -0.2110
17091TIP3   OH272687   3.896   4.096   5.836  0.0546 -0.5558  0.1037
17091TIP3    H172688   3.868   4.022   5.783  1.5379 -2.0498  1.3407
17091TIP3    H272689   3.825   4.109   5.898  0.0026 -1.2813  0.2029
17092TIP3   OH272690   1.973   6.029   3.744  0.3145  0.3766 -0.2841
17092TIP3    H172691   2.052   6.008   3.695  0.1816  0.0021 -0.3386
17092TIP3    H272692   1.967   6.124   3.740  0.4780  0.3692 -0.7219
17093TIP3   OH272693   6.382   3.510   2.411 -0.2100 -0.0757 -0.5008
17093TIP3    H172694   6.324   3.451   2.363 -0.6433 -0.3724  0.3708
17093TIP3    H272695   6.441   3.452   2.459  0.4583  0.2217 -0.9481
17094TIP3   OH272696   3.528   1.538   4.319  0.2511  0.2474  0.5938
17094TIP3    H172697   3.564   1.542   4.408 -1.2237 -0.3372  1.2398
17094TIP3    H272698   3.480   1.455   4.317  0.9987 -0.1646 -1.0505
17095TIP3   OH272699   4.987   6.116  12.297 -0.0236  0.4615  0.6098
17095TIP3    H172700   4.930   6.120  12.221 -1.2952  1.8926  1.6113
17095TIP3    H272701   5.013   6.207  12.314  0.5565  0.1164  1.6573
17096TIP3   OH272702   2.563   3.076   1.741  0.5052 -0.0921 -0.0812
17096TIP3    H172703   2.575   3.134   1.665 -1.6890  0.2007 -0.2356
17096TIP3    H272704   2.587   3.130   1.816  2.1110 -0.1930 -0.4942
17097TIP3   OH272705   1.797   4.645  15.271  0.4722 -0.1024  0.7488
17097TIP3    H172706   1.785   4.551  15.257 -1.6688  0.4159 -1.2376
17097TIP3    H272707   1.740   4.665  15.345 -0.6924 -0.0216 -0.1542
17098TIP3   OH272708   1.536   3.889  16.703  1.0715  0.5816  0.9002
17098TIP3    H172709   1.622   3.877  16.744  1.4891 -2.4076 -0.7735
17098TIP3    H272710   1.554   3.892  16.609 -0.8594 -2.2766  0.3969
17099TIP3   OH272711   5.402   6.242  14.654 -0.0525  0.1616 -0.4155
17099TIP3    H172712   5.369   6.160  14.691  1.5771 -0.7505 -0.9560
17099TIP3    H272713   5.391   6.306  14.725  1.5904 -1.2183  1.1215
17100TIP3   OH272714   4.234   1.730   5.852 -0.5917 -0.3040  0.1528
17100TIP3    H172715   4.277   1.814   5.834 -0.0145 -0.8211 -0.8848
17100TIP3    H272716   4.305   1.669   5.866 -1.0176 -0.5184  1.4789
17101TIP3   OH272717   6.765   1.151   0.975 -0.4124  0.0659  0.0791
17101TIP3    H172718   6.854   1.133   0.946 -0.3420  0.5327  0.0046
17101TIP3    H272719   6.711   1.141   0.897 -0.4168 -0.1498  0.1099
17102TIP3   OH272720   5.643   5.950   4.469  0.2962 -0.0171  0.4580
17102TIP3    H172721   5.548   5.965   4.478  0.1456 -0.8159  0.2785
17102TIP3    H272722   5.676   6.031   4.429 -0.5462 -0.2896 -0.8414
17103TIP3   OH272723   0.993   0.499   3.757  0.2070 -1.0792 -1.0589
17103TIP3    H172724   0.907   0.522   3.723 -0.4616 -0.2940  1.0473
17103TIP3    H272725   1.021   0.423   3.705 -1.5403 -1.0585 -2.0553
17104TIP3   OH272726   1.184   5.300   3.616 -0.0185  0.3254 -0.7708
17104TIP3    H172727   1.231   5.226   3.576  1.4607  0.1964  1.1588
17104TIP3    H272728   1.248   5.371   3.619 -0.6869  0.9160 -0.3442
17105TIP3   OH272729   2.256   5.714   4.010 -0.1681  0.0486  0.2402
17105TIP3    H172730   2.337   5.713   4.061 -0.0322 -1.4378  0.0241
17105TIP3    H272731   2.187   5.722   4.075  0.1492  1.8479  0.3943
17106TIP3   OH272732   0.051   2.684   0.840  0.1305  0.6748  0.2030
17106TIP3    H172733   0.102   2.604   0.848  0.1673  0.6795  0.0223
17106TIP3    H272734  -0.040   2.656   0.847  0.1548  0.6652  0.5184
17107TIP3   OH272735   4.142   1.210   0.487  0.0634 -0.0912  0.5699
17107TIP3    H172736   4.076   1.258   0.438 -0.1228 -0.7157  0.2109
17107TIP3    H272737   4.147   1.256   0.571  0.2872  0.8942  0.0312
17108TIP3   OH272738   2.911   3.330   0.482  0.5078  0.1998  0.2869
17108TIP3    H172739   2.860   3.264   0.529  0.2469 -1.5771 -2.3878
17108TIP3    H272740   2.846   3.393   0.451  0.4088  0.0821  0.2569
17109TIP3   OH272741   0.582   3.546   3.182 -0.6629  0.3223  0.8987
17109TIP3    H172742   0.619   3.498   3.256  0.9349 -0.6416 -0.4855
17109TIP3    H272743   0.647   3.613   3.162 -1.5566  1.2267  0.9939
17110TIP3   OH272744   5.568   4.371   3.342  0.2693  0.2824 -0.0043
17110TIP3    H172745   5.659   4.359   3.317  0.0706 -0.2953 -0.4666
17110TIP3    H272746   5.570   4.385   3.436  0.8209  0.0739  0.0133
17111TIP3   OH272747   5.342   0.535  10.480 -0.1109  0.4374 -0.4002
17111TIP3    H172748   5.393   0.463  10.517  0.7033  0.1796 -2.0036
17111TIP3    H272749   5.253   0.520  10.513  0.3704 -0.4138  0.5347
17112TIP3   OH272750   4.444   4.841   3.985 -0.3905  0.3127 -0.0715
17112TIP3    H172751   4.377   4.822   4.049 -0.1808  1.1170  0.3962
17112TIP3    H272752   4.527   4.830   4.032 -0.2315  0.5928 -0.2785
17113TIP3   OH272753   3.742   0.453   6.626 -0.2917  0.0205  0.3189
17113TIP3    H172754   3.725   0.394   6.553 -1.3361 -0.0413  0.6036
17113TIP3    H272755   3.655   0.479   6.657  0.1093 -0.9130  2.3084
17114TIP3   OH272756   2.470   5.797  14.877  0.3219  0.0152  0.2306
17114TIP3    H172757   2.536   5.850  14.833 -0.2819  0.8004  0.2509
17114TIP3    H272758   2.519   5.740  14.935  0.9615  0.7651  0.4276
17115TIP3   OH272759   6.338   2.508  12.919 -0.3751 -0.5560 -0.1826
17115TIP3    H172760   6.333   2.593  12.875  2.1081 -0.3390 -0.1323
17115TIP3    H272761   6.281   2.451  12.869 -4.1591  1.7397  1.2894
17116TIP3   OH272762   3.295   6.574   3.917  0.1177  0.1540 -0.2794
17116TIP3    H172763   3.314   6.504   3.854  1.3541 -0.5069  0.8095
17116TIP3    H272764   3.202   6.566   3.934  0.0540 -0.5817 -0.9309
17117TIP3   OH272765   3.971   6.690   1.887  0.5103  0.5972 -0.1389
17117TIP3    H172766   3.972   6.786   1.892 -0.8653  0.6592 -0.7389
17117TIP3    H272767   3.910   6.664   1.957  0.4843  0.1923 -0.3131
17118TIP3   OH272768   3.017   2.067   3.623  0.3290 -0.5352  0.0770
17118TIP3    H172769   3.093   2.098   3.674 -0.2607 -1.0641  1.2881
17118TIP3    H272770   3.054   2.005   3.561  1.0227 -0.0930  0.0400
17119TIP3   OH272771   1.108   0.480   4.401  0.3026 -0.3433  0.2402
17119TIP3    H172772   1.057   0.409   4.440  0.9893 -0.7287  0.4343
17119TIP3    H272773   1.166   0.437   4.339  0.3334  0.1078 -0.0428
17120TIP3   OH272774   5.999   2.434  11.186 -0.0765 -0.2977  0.6104
17120TIP3    H172775   6.053   2.483  11.249  0.7369  1.6486 -1.5179
17120TIP3    H272776   6.061   2.375  11.143 -0.0136  0.6200 -0.5538
17121TIP3   OH272777   3.968   0.264   5.161  0.7270 -0.6417  0.1387
17121TIP3    H172778   4.009   0.236   5.243  1.8716 -0.1766 -0.2507
17121TIP3    H272779   3.917   0.341   5.184 -1.1660 -2.0916  0.9157
17122TIP3   OH272780   0.336   5.411   0.446  0.0701  0.1413  0.1153
17122TIP3    H172781   0.325   5.396   0.540  0.4066 -0.2785  0.0922
17122TIP3    H272782   0.418   5.459   0.438 -0.1554  0.5180  0.0637
17123TIP3   OH272783   0.242   2.460   1.452  0.4363  0.1165  0.2281
17123TIP3    H172784   0.225   2.425   1.539 -0.2813  1.0264  0.4673
17123TIP3    H272785   0.338   2.464   1.445  0.5468 -2.3600 -0.0161
17124TIP3   OH272786   5.461   4.714  12.264 -0.2491 -0.2563 -0.2704
17124TIP3    H172787   5.460   4.627  12.225 -1.5840 -0.5332  0.3745
17124TIP3    H272788   5.388   4.714  12.326  1.4986  0.3515  1.8454
17125TIP3   OH272789   0.206   2.514  16.843 -0.3725  0.3042  0.9143
17125TIP3    H172790   0.156   2.585  16.802 -0.2382 -0.8497 -1.2875
17125TIP3    H272791   0.213   2.446  16.776  0.9915 -1.0984  2.4059
17126TIP3   OH272792   5.163   2.925   2.820 -0.3696 -0.2628 -0.0264
17126TIP3    H172793   5.195   2.966   2.740  0.5674  0.0782  0.5142
17126TIP3    H272794   5.178   2.832   2.807 -0.7823 -0.2674 -0.4905
17127TIP3   OH272795   4.552   6.165  13.488  0.4125  0.6285  0.2621
17127TIP3    H172796   4.494   6.211  13.428  0.7953 -1.6441 -1.9681
17127TIP3    H272797   4.496   6.102  13.532  0.6311  0.4234  0.2505
17128TIP3   OH272798   0.281   2.718   2.386 -0.0541 -0.5565 -0.1318
17128TIP3    H172799   0.234   2.753   2.462  0.0052 -3.1776  1.1631
17128TIP3    H272800   0.336   2.648   2.422  1.8728 -0.1932 -2.2301
17129TIP3   OH272801   2.036   1.180   2.327  0.9617 -0.5196  0.3067
17129TIP3    H172802   1.998   1.095   2.350 -0.6375  0.2063  0.4260
17129TIP3    H272803   2.050   1.176   2.233  2.4151 -1.5082  0.5582
17130TIP3   OH272804   1.735   5.045   1.592 -0.3910  0.1088  0.2116
17130TIP3    H172805   1.809   5.068   1.536  0.6372  0.7707  1.7840
17130TIP3    H272806   1.657   5.065   1.541  0.5159 -0.7559 -1.5370
17131TIP3   OH272807   0.569   0.284   0.842 -0.6010 -0.1708 -0.1654
17131TIP3    H172808   0.504   0.231   0.889 -0.5826 -2.0966 -2.2728
17131TIP3    H272809   0.519   0.358   0.808 -1.5591 -1.2605 -1.1519
17132TIP3   OH272810   3.563   2.027  13.480  0.3122 -0.0836  0.5533
17132TIP3    H172811   3.484   2.023  13.427  1.5943 -3.1120 -1.3394
17132TIP3    H272812   3.532   2.025  13.570 -1.7930 -1.4730 -0.1522
17133TIP3   OH272813   4.214   1.584  13.381  0.1881 -0.3285 -0.1011
17133TIP3    H172814   4.141   1.522  13.373 -0.3113  0.3055 -0.4346
17133TIP3    H272815   4.282   1.548  13.323 -0.3773 -0.1786 -0.8715
17134TIP3   OH272816   0.653   5.498   0.688  0.0386 -0.5953  0.1985
17134TIP3    H172817   0.719   5.507   0.756 -0.9195 -1.8566  1.3336
17134TIP3    H272818   0.629   5.405   0.690 -0.5857 -0.4787 -1.3004
17135TIP3   OH272819   4.113   6.433   5.669  0.0228 -0.8224 -0.4436
17135TIP3    H172820   4.128   6.471   5.755  2.1103 -0.4611 -0.9191
17135TIP3    H272821   4.118   6.338   5.682  0.0328 -0.7735 -0.1105
17136TIP3   OH272822   6.387   2.196   1.172 -0.6511  0.1726 -0.1386
17136TIP3    H172823   6.463   2.139   1.164 -1.1186 -0.4582 -0.1342
17136TIP3    H272824   6.391   2.253   1.095 -1.1371 -1.0212 -1.0638
17137TIP3   OH272825   0.867   3.383  12.307  0.0788  0.3421  0.0166
17137TIP3    H172826   0.808   3.379  12.383  0.5260  1.4643  0.4265
17137TIP3    H272827   0.814   3.349  12.235 -0.4525 -0.4414  0.7598
17138TIP3   OH272828   5.890   5.393   5.410  1.0239 -0.6570 -0.0759
17138TIP3    H172829   5.882   5.464   5.474 -0.3867  1.3516 -2.3838
17138TIP3    H272830   5.944   5.430   5.341  0.8423 -2.0736 -0.9793
17139TIP3   OH272831   2.129   1.448  14.991 -0.6870 -0.2253 -0.7643
17139TIP3    H172832   2.173   1.496  15.061  0.2261 -0.9831 -0.8065
17139TIP3    H272833   2.158   1.490  14.910  0.0488 -0.7860 -0.7968
17140TIP3   OH272834   5.963   2.736   5.740 -0.3100  0.6491  0.1915
17140TIP3    H172835   5.882   2.787   5.738 -0.0641  1.1605  1.8450
17140TIP3    H272836   5.945   2.659   5.687 -1.2206  1.7037 -1.0635
17141TIP3   OH272837   1.141   0.909   1.983  0.4256  0.1250  0.2882
17141TIP3    H172838   1.099   0.823   1.971  0.1462  0.2879  0.0872
17141TIP3    H272839   1.076   0.960   2.031 -0.5017  1.0717 -1.8943
17142TIP3   OH272840   0.834   0.363   3.220 -0.3461  0.3135 -0.3070
17142TIP3    H172841   0.860   0.340   3.309 -0.6776  0.9453 -0.0468
17142TIP3    H272842   0.872   0.294   3.166  2.4471  1.5752 -0.0261
17143TIP3   OH272843   6.348   5.068   2.973 -0.2876  0.4437 -0.0996
17143TIP3    H172844   6.366   5.149   3.020  2.1103 -0.0269 -0.1372
17143TIP3    H272845   6.381   5.083   2.884 -2.5036  0.4364 -0.9612
17144TIP3   OH272846   3.259   4.700   4.966 -0.9746 -0.7925  0.2605
17144TIP3    H172847   3.270   4.794   4.976 -2.6962 -0.3034 -2.2090
17144TIP3    H272848   3.333   4.662   5.014 -0.2770  1.7854  1.2792
17145TIP3   OH272849   5.450   0.198  12.571 -0.3032 -0.3839 -0.0043
17145TIP3    H172850   5.452   0.281  12.523 -1.5540 -0.1383  0.3515
17145TIP3    H272851   5.366   0.199  12.617 -1.0703 -2.5953 -1.3025
17146TIP3   OH272852   0.503   4.722   5.990  0.2167  0.4940  0.0125
17146TIP3    H172853   0.443   4.795   5.973 -0.0164  0.1297 -0.7486
17146TIP3    H272854   0.457   4.667   6.054 -0.6666 -0.2623 -1.2517
17147TIP3   OH272855   3.778   2.796  15.183 -0.4601 -0.3449  0.4559
17147TIP3    H172856   3.847   2.764  15.241 -1.2802 -1.1624  1.0096
17147TIP3    H272857   3.749   2.719  15.135 -0.3704  0.1677 -0.4339
17148TIP3   OH272858   3.357   5.489   5.568  0.2599  0.0492  0.0155
17148TIP3    H172859   3.348   5.458   5.478  1.8184  0.9933 -0.4995
17148TIP3    H272860   3.267   5.500   5.599 -0.3376  1.3431 -2.0260
17149TIP3   OH272861   6.547   5.685   1.190  0.2038  0.0327 -0.2027
17149TIP3    H172862   6.488   5.759   1.202  0.6100  0.6205 -1.7776
17149TIP3    H272863   6.488   5.611   1.172 -0.2678 -0.3049  2.5063
17150TIP3   OH272864   1.914   0.842   3.373  0.2368 -0.0569 -0.4535
17150TIP3    H172865   1.884   0.849   3.464 -2.7509 -3.4547 -1.0576
17150TIP3    H272866   1.834   0.847   3.321  1.7690  0.4857 -2.8530
17151TIP3   OH272867   0.092   3.990  10.968 -0.0455  0.7007  0.2185
17151TIP3    H172868  -0.002   3.971  10.966 -0.0338  0.4411  1.5351
17151TIP3    H272869   0.133   3.904  10.956  0.0283  0.9223 -1.1387
17152TIP3   OH272870   0.958   4.616  13.224  0.1365  0.1171 -0.2912
17152TIP3    H172871   1.008   4.628  13.305 -0.0569 -0.9425 -0.0045
17152TIP3    H272872   0.943   4.705  13.192  0.5935  0.5292  0.6078
17153TIP3   OH272873   0.077   0.363   2.081 -0.2742 -0.4306 -0.3273
17153TIP3    H172874   0.154   0.345   2.134 -0.0802  0.0316 -0.4487
17153TIP3    H272875   0.005   0.368   2.144  0.0078  0.4489 -0.0637
17154TIP3   OH272876   5.765   5.596   2.376  0.4658  0.4037 -0.4647
17154TIP3    H172877   5.835   5.632   2.323 -0.3142  0.8586 -1.2010
17154TIP3    H272878   5.752   5.659   2.447  1.0457  0.1310 -0.1098
17155TIP3   OH272879   1.393   1.855  10.937 -0.0864 -0.1391  0.3012
17155TIP3    H172880   1.368   1.906  10.860  1.5841 -1.3402 -1.0821
17155TIP3    H272881   1.468   1.902  10.974  0.0818 -0.3911  0.2825
17156TIP3   OH272882   5.650   0.953   5.572  0.6344 -0.5737 -0.9880
17156TIP3    H172883   5.681   1.009   5.501  2.4280 -1.3969 -0.8898
17156TIP3    H272884   5.615   1.013   5.637  2.1621  0.4312 -1.0546
17157TIP3   OH272885   5.852   5.088  15.619 -0.4835 -0.0889 -0.2528
17157TIP3    H172886   5.870   5.146  15.545  2.1682  0.6517  0.9348
17157TIP3    H272887   5.928   5.030  15.624 -2.2376 -2.5106 -0.2451
17158TIP3   OH272888   1.321   5.783  11.568  0.1229  0.0763 -0.0509
17158TIP3    H172889   1.380   5.719  11.529 -0.0090 -0.6795  0.9791
17158TIP3    H272890   1.238   5.770  11.523  0.5630  0.7267 -1.0729
17159TIP3   OH272891   5.315   0.937  17.174  0.0514 -0.2683 -0.7818
17159TIP3    H172892   5.257   0.867  17.204 -0.0618 -0.0158 -0.4122
17159TIP3    H272893   5.402   0.897  17.173  0.4309  0.4104  2.2440
17160TIP3   OH272894   0.620   1.663   0.166 -0.3074  0.3597 -0.1616
17160TIP3    H172895   0.572   1.589   0.201  2.2724 -1.0292  0.5700
17160TIP3    H272896   0.665   1.628   0.089 -1.2150  1.8701 -1.4023
17161TIP3   OH272897   2.563   1.171  14.040 -1.0482  0.2404  0.1872
17161TIP3    H172898   2.628   1.129  14.097 -2.9053 -1.2391  1.3091
17161TIP3    H272899   2.492   1.196  14.100 -2.2296  0.3171 -1.2300
17162TIP3   OH272900   6.478   1.666   0.948 -0.0717 -0.0231  0.0557
17162TIP3    H172901   6.484   1.693   0.857 -1.9925 -0.3382 -0.1839
17162TIP3    H272902   6.538   1.725   0.995  1.3019 -0.1790 -1.4473
17163TIP3   OH272903   4.713   3.654  15.895  0.2352  0.0737  0.0414
17163TIP3    H172904   4.744   3.652  15.805 -1.6708 -0.2764 -0.6252
17163TIP3    H272905   4.737   3.568  15.930 -1.3603 -0.8116 -0.9644
17164TIP3   OH272906   1.014   5.293  13.678  0.1121 -0.3543 -0.4728
17164TIP3    H172907   0.952   5.233  13.637  2.6474 -2.2383 -1.6672
17164TIP3    H272908   1.052   5.342  13.606 -0.0537  0.8929  0.2654
17165TIP3   OH272909   5.726   5.730   3.490 -0.5159 -1.0192  0.3433
17165TIP3    H172910   5.736   5.636   3.473  0.2449 -0.5009 -2.3078
17165TIP3    H272911   5.757   5.741   3.580 -0.7037 -3.3158  0.7288
17166TIP3   OH272912   2.079   3.503  12.488 -0.5885  0.6381 -0.3705
17166TIP3    H172913   2.138   3.551  12.429 -1.9251 -0.4050 -2.6376
17166TIP3    H272914   1.995   3.549  12.481 -1.0269 -0.0983 -0.0675
17167TIP3   OH272915   3.075   5.892   5.022  0.0538  0.0664  0.1620
17167TIP3    H172916   2.982   5.871   5.032  0.1089  0.7858  2.6115
17167TIP3    H272917   3.089   5.967   5.081  2.4534 -0.8531  0.8223
17168TIP3   OH272918   6.035   3.472  10.546 -0.9945 -0.0740 -0.1587
17168TIP3    H172919   6.102   3.418  10.588  0.5101  0.1080 -2.2753
17168TIP3    H272920   6.082   3.549  10.515 -2.5539  0.9665  0.0083
17169TIP3   OH272921   2.717   6.166   4.207 -0.4359 -0.4376 -0.3420
17169TIP3    H172922   2.744   6.245   4.160 -0.3337  0.9512  1.9920
17169TIP3    H272923   2.797   6.132   4.246 -0.5857 -1.3347 -0.8174
17170TIP3   OH272924   2.130   4.818   4.247 -0.4224  0.0207 -0.0570
17170TIP3    H172925   2.090   4.769   4.175  0.3439 -0.4780 -0.1513
17170TIP3    H272926   2.143   4.753   4.316 -0.5690  0.3657  0.2996
17171TIP3   OH272927   1.692   1.552   0.147 -0.7550  0.0466  0.5291
17171TIP3    H172928   1.721   1.630   0.099 -0.5584 -0.8656 -0.8753
17171TIP3    H272929   1.596   1.554   0.139 -0.7385  0.0403  0.3247
17172TIP3   OH272930   4.569   5.675  10.971  0.0411  0.2493 -0.0761
17172TIP3    H172931   4.574   5.771  10.971  0.3954  0.2335  0.8285
17172TIP3    H272932   4.594   5.650  11.060  1.9385 -0.7883 -0.8667
17173TIP3   OH272933   2.817   6.125  11.740 -0.1298 -0.2159 -0.7805
17173TIP3    H172934   2.779   6.210  11.718 -0.5738 -0.1851  0.0933
17173TIP3    H272935   2.767   6.062  11.688 -0.6773 -0.0766 -0.4173
17174TIP3   OH272936   2.144   0.660  12.681 -0.1591 -0.4878 -0.0170
17174TIP3    H172937   2.129   0.601  12.607  0.4483  1.2321 -1.5396
17174TIP3    H272938   2.210   0.721  12.650 -0.7838  1.0094  1.5212
17175TIP3   OH272939   1.101   4.309   0.178 -0.5681 -0.1502  0.2559
17175TIP3    H172940   1.129   4.344   0.263  0.2653  1.0135 -0.4809
17175TIP3    H272941   1.180   4.308   0.125 -0.9373 -1.5966 -0.2730
17176TIP3   OH272942   4.965   1.068   3.493 -0.5218 -0.0531 -0.0898
17176TIP3    H172943   4.932   0.991   3.541 -0.6944  0.0115 -0.1026
17176TIP3    H272944   5.044   1.038   3.449 -0.5750 -0.2163 -0.0727
17177TIP3   OH272945   3.081   5.784  10.969 -0.1798  0.2066 -0.0778
17177TIP3    H172946   3.146   5.841  10.928 -1.3324  2.1135  0.6150
17177TIP3    H272947   3.014   5.845  11.000 -1.0539 -1.4966  1.4484
17178TIP3   OH272948   1.044   1.989  16.792  0.2307 -0.2654 -0.0819
17178TIP3    H172949   1.073   2.081  16.788 -1.4362  0.3056  0.5690
17178TIP3    H272950   1.088   1.947  16.718 -2.0199  1.9347 -2.7399
17179TIP3   OH272951   4.937   5.377  11.791 -0.0363  0.2460 -1.0482
17179TIP3    H172952   4.980   5.320  11.727 -1.8151 -3.3438  0.7644
17179TIP3    H272953   4.846   5.379  11.764  0.0420  2.4450 -1.1856
17180TIP3   OH272954   0.810   6.287   0.682  0.3671 -0.2486 -0.3748
17180TIP3    H172955   0.773   6.293   0.771  0.4825  0.2276 -0.3554
17180TIP3    H272956   0.742   6.244   0.631  0.3327 -0.6057 -0.0355
17181TIP3   OH272957   5.670   3.828   6.016 -0.5910 -0.2962  0.2729
17181TIP3    H172958   5.677   3.920   5.991 -0.8379 -0.6702 -1.2020
17181TIP3    H272959   5.587   3.799   5.978  1.0295 -1.9889 -2.0659
17182TIP3   OH272960   6.372   6.280   6.145  0.7728  0.1850 -0.2003
17182TIP3    H172961   6.423   6.270   6.226  0.2793 -1.1668 -0.0322
17182TIP3    H272962   6.345   6.190   6.123 -0.7857  0.7803 -0.7756
17183TIP3   OH272963   0.023   6.563   3.021  0.0672  1.1297  0.0508
17183TIP3    H172964   0.045   6.509   2.945 -0.5782 -1.1595  1.4292
17183TIP3    H272965  -0.063   6.600   3.001 -0.2805  0.2074 -0.1963
17184TIP3   OH272966   3.075   6.664   4.251 -0.2059  0.2518  0.2326
17184TIP3    H172967   3.129   6.635   4.325  1.3210  0.1173 -0.8984
17184TIP3    H272968   3.015   6.728   4.290  0.3866 -0.0108  1.6414
17185TIP3   OH272969   1.530   2.306   0.497 -0.3936 -0.0088  0.2766
17185TIP3    H172970   1.586   2.241   0.454  0.9852  0.4580  1.3072
17185TIP3    H272971   1.445   2.263   0.507  0.1262 -1.1697 -0.2614
17186TIP3   OH272972   2.099   0.093  15.811 -0.0823  0.5219 -0.2771
17186TIP3    H172973   2.164   0.159  15.789  0.3556 -0.1456 -0.9846
17186TIP3    H272974   2.135   0.050  15.889  0.3823  0.0717 -0.7388
17187TIP3   OH272975   4.235   6.296  17.163 -0.4318 -0.3608  0.2259
17187TIP3    H172976   4.268   6.222  17.112  0.7910 -1.1469  2.1139
17187TIP3    H272977   4.149   6.268  17.194  0.9034 -1.9161  2.7183
17188TIP3   OH272978   2.020   3.972   3.128  0.0780  0.1810 -0.0450
17188TIP3    H172979   2.034   3.878   3.136 -2.1704  0.1283  5.1576
17188TIP3    H272980   1.936   3.980   3.083 -0.7926 -0.3990  1.4410
17189TIP3   OH272981   3.861   2.593   0.698  0.4875 -0.4428 -0.1606
17189TIP3    H172982   3.848   2.686   0.718  0.8157 -0.1488 -1.2878
17189TIP3    H272983   3.773   2.557   0.691  0.3169 -1.0203  3.8228
17190TIP3   OH272984   3.836   5.871   4.923 -0.1478 -0.0569  0.2554
17190TIP3    H172985   3.758   5.819   4.945  0.1694 -1.1758 -1.2048
17190TIP3    H272986   3.843   5.935   4.995 -2.4224  0.0908  0.3831
17191TIP3   OH272987   2.489   4.688   3.067 -0.1972 -1.1057  0.0986
17191TIP3    H172988   2.431   4.664   3.140  0.4892  1.9258  1.7463
17191TIP3    H272989   2.549   4.614   3.058 -1.3160 -2.2207  1.5441
17192TIP3   OH272990   5.824   6.531   1.396  0.1412 -0.3106 -0.5240
17192TIP3    H172991   5.905   6.518   1.348 -0.1711 -0.8411 -0.9118
17192TIP3    H272992   5.843   6.504   1.486  0.3544 -0.5618 -0.6458
17193TIP3   OH272993   1.296   1.841   0.023 -0.1483 -0.1556  0.4287
17193TIP3    H172994   1.378   1.825  -0.024  0.5779 -0.7477  1.8650
17193TIP3    H272995   1.249   1.758   0.016 -0.4771  0.0716 -0.0899
17194TIP3   OH272996   0.336   0.861   0.343  0.4228 -0.3123  0.1823
17194TIP3    H172997   0.416   0.892   0.386 -0.1206  2.0816 -0.4287
17194TIP3    H272998   0.361   0.780   0.299  1.8960 -0.8506  1.9721
17195TIP3   OH272999   3.678   2.052  12.558 -0.3796 -0.3420  0.1371
17195TIP3    H173000   3.590   2.066  12.525 -0.2522  1.5060  0.5694
17195TIP3    H273001   3.728   2.021  12.482 -0.3207  2.9304 -1.2176
17196TIP3   OH273002   5.776   3.211  10.988  0.5026 -0.2151  0.0467
17196TIP3    H173003   5.757   3.133  10.936 -0.6391 -0.4396  0.7839
17196TIP3    H273004   5.690   3.244  11.014  0.9982  0.8899  0.3429
17197TIP3   OH273005   2.574   0.044  11.598  0.0672 -0.4198 -0.1523
17197TIP3    H173006   2.543   0.118  11.650 -1.8162  1.0532 -3.2640
17197TIP3    H273007   2.496  -0.009  11.582  0.4523 -0.3901 -2.2307
17198TIP3   OH273008   3.215   1.598  10.676 -0.7646  0.1425 -0.1999
17198TIP3    H173009   3.149   1.615  10.609  0.1987  2.3594 -0.6424
17198TIP3    H273010   3.297   1.589  10.628 -0.4682 -1.0276  0.4774
17199TIP3   OH273011   4.628   3.137   5.450 -0.3921  0.2549 -0.5671
17199TIP3    H173012   4.714   3.161   5.417 -0.2779 -0.8994 -1.1395
17199TIP3    H273013   4.645   3.089   5.530 -0.3211 -2.5164 -2.1873
17200TIP3   OH273014   3.094   4.401  12.131 -0.3216  0.2701 -0.5846
17200TIP3    H173015   3.184   4.433  12.125 -0.6790  1.1435 -1.4076
17200TIP3    H273016   3.089   4.360  12.217  0.8377  0.2917 -0.4981
17201TIP3   OH273017   4.166   6.730  12.422  0.7145  0.0938 -0.0305
17201TIP3    H173018   4.145   6.769  12.337 -3.1066 -1.0176  0.3039
17201TIP3    H273019   4.178   6.637  12.403  0.2660 -0.0845  0.5415
17202TIP3   OH273020   6.729   0.281   5.441 -0.1489  0.4568  0.0972
17202TIP3    H173021   6.713   0.333   5.520  0.6387  1.3773 -0.3320
17202TIP3    H273022   6.735   0.346   5.371 -0.8972 -0.3632 -0.7332
17203TIP3   OH273023   5.978   5.525   1.682  0.0995 -0.4730  0.3315
17203TIP3    H173024   6.053   5.558   1.633 -0.7629  3.5885  1.6178
17203TIP3    H273025   5.909   5.512   1.616  0.2068  1.1021 -0.0983
17204TIP3   OH273026   2.465   3.523   1.394 -0.4037 -0.3552 -0.8597
17204TIP3    H173027   2.477   3.591   1.461  1.2018 -0.4074 -1.0713
17204TIP3    H273028   2.482   3.568   1.312 -1.5765 -0.4893 -1.1802
17205TIP3   OH273029   1.923   6.556  16.415  0.4360  0.1605  0.5577
17205TIP3    H173030   1.892   6.574  16.326 -1.5502 -0.1430  1.1492
17205TIP3    H273031   1.899   6.465  16.430  0.1788  0.4003  1.6165
17206TIP3   OH273032   4.802   6.761   1.895 -0.6101  0.3397  0.1882
17206TIP3    H173033   4.868   6.790   1.832  0.1155 -1.3138  0.1612
17206TIP3    H273034   4.723   6.810   1.871  0.4687  2.0027 -0.0574
17207TIP3   OH273035   0.405   5.076  11.237 -0.0013  0.2561 -0.5719
17207TIP3    H173036   0.310   5.083  11.229 -0.2628 -2.5890 -0.6643
17207TIP3    H273037   0.440   5.143  11.179 -1.9434  2.5278  0.8101
17208TIP3   OH273038   3.610   4.346   1.438 -0.0394 -0.1360  0.1774
17208TIP3    H173039   3.694   4.333   1.483  1.4028  0.6323 -2.1923
17208TIP3    H273040   3.607   4.440   1.421 -1.6477 -0.0820  0.6826
17209TIP3   OH273041   3.274   0.132   3.749  0.4790 -0.4523  0.2146
17209TIP3    H173042   3.272   0.185   3.828 -0.5331 -2.1980  1.3867
17209TIP3    H273043   3.182   0.123   3.724  0.6248 -1.8200  0.1551
17210TIP3   OH273044   6.156   6.274  15.073  0.0367  0.2183 -0.2175
17210TIP3    H173045   6.072   6.245  15.038 -0.7257  1.0859  0.8622
17210TIP3    H273046   6.179   6.208  15.139  0.3311 -0.1555 -0.6917
17211TIP3   OH273047   4.663   1.956   6.131  0.3258 -0.2090 -0.2599
17211TIP3    H173048   4.753   1.924   6.123  0.6003  0.6448 -0.6369
17211TIP3    H273049   4.626   1.903   6.202  1.9022  1.1160  1.6279
17212TIP3   OH273050   0.163   5.453  16.804  0.1303 -0.3864 -0.5216
17212TIP3    H173051   0.240   5.496  16.768  1.0667 -1.2551  0.4138
17212TIP3    H273052   0.127   5.401  16.732 -0.5120  1.2617 -1.4048
17213TIP3   OH273053   4.666   2.431   1.148  0.3011 -0.4605 -0.2408
17213TIP3    H173054   4.690   2.352   1.099 -1.2868 -0.1913 -1.5203
17213TIP3    H273055   4.577   2.413   1.179  0.4430  0.2941  0.6030
17214TIP3   OH273056   2.720   4.722  17.058 -0.0869 -0.7459 -0.3716
17214TIP3    H173057   2.802   4.756  17.094  0.3431 -2.6033  0.4540
17214TIP3    H273058   2.685   4.795  17.006  1.8313  0.2308 -0.3465
17215TIP3   OH273059   1.777   1.858   4.444  0.2080 -0.2852 -0.1118
17215TIP3    H173060   1.816   1.773   4.423 -0.0402 -0.4140 -0.0560
17215TIP3    H273061   1.826   1.921   4.391 -0.2470 -0.5776 -0.9003
17216TIP3   OH273062   6.565   6.577  17.074 -0.1765  0.3284 -0.0126
17216TIP3    H173063   6.634   6.555  17.136 -1.0584 -1.5292  0.3251
17216TIP3    H273064   6.567   6.508  17.008  0.4972  2.0679 -1.8863
17217TIP3   OH273065   5.924   3.845  13.120 -0.0849  0.6569 -0.6426
17217TIP3    H173066   5.862   3.856  13.192  0.4191 -1.5340  0.1673
17217TIP3    H273067   5.966   3.761  13.137  1.1557  0.8271 -2.6682
17218TIP3   OH273068   6.224   5.928   3.373 -0.4604 -0.3467 -0.5240
17218TIP3    H173069   6.159   5.916   3.304 -0.9720  0.1506 -0.1292
17218TIP3    H273070   6.305   5.947   3.326 -0.6655 -0.6505 -1.0065
17219TIP3   OH273071   6.029   3.065  15.577  0.3379  0.0951  0.0373
17219TIP3    H173072   5.956   3.121  15.601 -0.0606  0.2932 -1.6068
17219TIP3    H273073   6.101   3.092  15.634 -0.0899  1.7219 -0.1879
17220TIP3   OH273074   6.582   6.419  10.935  0.2975 -0.5669  0.5449
17220TIP3    H173075   6.643   6.475  10.984 -0.5059  1.4100 -0.6243
17220TIP3    H273076   6.603   6.435  10.843 -2.1664  0.4551  0.0966
17221TIP3   OH273077   4.101   6.201  15.521 -0.2653  0.2890 -0.3349
17221TIP3    H173078   4.138   6.240  15.441 -0.5408  2.0059  0.3526
17221TIP3    H273079   4.177   6.176  15.573 -0.0708  1.0353 -0.2521
17222TIP3   OH273080   4.207   1.297  14.250  0.0930  0.5761 -0.0464
17222TIP3    H173081   4.248   1.273  14.167 -0.5810 -0.2895 -0.1434
17222TIP3    H273082   4.257   1.372  14.281  1.2321  0.0385 -0.5534
17223TIP3   OH273083   1.650   0.634  11.882  0.2177  0.3249 -0.1523
17223TIP3    H173084   1.654   0.643  11.786 -0.4491  0.0253 -0.2152
17223TIP3    H273085   1.649   0.724  11.915  1.6422  0.4230 -0.3688
17224TIP3   OH273086   2.670   2.596   4.004 -0.8715 -0.2373  0.1487
17224TIP3    H173087   2.677   2.506   4.038  0.0892 -0.5865 -0.9482
17224TIP3    H273088   2.598   2.635   4.054 -1.2980 -1.6211  0.6337
17225TIP3   OH273089   6.545   5.295   1.834 -0.6003 -0.0563  0.3530
17225TIP3    H173090   6.508   5.270   1.750 -0.4650  0.1443  0.2341
17225TIP3    H273091   6.473   5.282   1.896 -1.0136  0.7392  0.0591
17226TIP3   OH273092   1.679   3.336  15.994 -0.5137  0.1040  0.0970
17226TIP3    H173093   1.588   3.319  15.970 -0.7906  1.5405  0.0332
17226TIP3    H273094   1.693   3.427  15.969  1.1994 -0.3475 -0.6160
17227TIP3   OH273095   0.776   0.889   6.307  0.5632 -0.3217 -0.3568
17227TIP3    H173096   0.743   0.978   6.296  2.3376  0.3659 -0.3454
17227TIP3    H273097   0.712   0.846   6.363 -2.6475 -0.3936 -3.8831
17228TIP3   OH273098   5.323   0.383  14.812  0.2756  0.3698  0.1321
17228TIP3    H173099   5.310   0.474  14.839  0.1227  0.9002 -1.6495
17228TIP3    H273100   5.419   0.373  14.808  0.2798  0.9000 -1.1184
17229TIP3   OH273101   3.599   6.629   1.343 -0.0515  0.3489 -0.0720
17229TIP3    H173102   3.588   6.610   1.250  0.4770 -2.9047  0.4891
17229TIP3    H273103   3.677   6.684   1.347  0.6056 -0.4663 -1.4522
17230TIP3   OH273104   5.207   0.219  14.137  0.2917 -0.3984  0.1443
17230TIP3    H173105   5.248   0.279  14.198 -0.1911 -0.0667  0.1408
17230TIP3    H273106   5.113   0.225  14.155  0.1757 -0.5775 -0.3718
17231TIP3   OH273107   3.795   0.768  12.918 -0.4539 -0.2018 -0.0136
17231TIP3    H173108   3.791   0.773  12.823  0.9430  0.6657 -0.0484
17231TIP3    H273109   3.876   0.720  12.936  2.0065  3.9609  0.7547
17232TIP3   OH273110   3.828   5.901  15.808  0.2830  0.2322 -0.7179
17232TIP3    H173111   3.858   5.958  15.738  0.8711  0.6988 -0.0874
17232TIP3    H273112   3.881   5.925  15.884  0.5682 -1.1800 -0.4566
17233TIP3   OH273113   0.096   5.171   5.957  0.3440 -0.4040  0.1111
17233TIP3    H173114   0.124   5.229   5.886  2.4177 -0.2588  1.0325
17233TIP3    H273115   0.048   5.229   6.017 -0.1565 -0.2476 -0.4261
17234TIP3   OH273116   0.803   3.242  13.313 -0.0905  0.4699 -0.1651
17234TIP3    H173117   0.898   3.248  13.303  0.4236 -3.8224  1.1726
17234TIP3    H273118   0.769   3.246  13.224  1.4731  0.0230 -0.8061
17235TIP3   OH273119   3.576   0.260   4.533 -0.0807 -0.1490  0.4325
17235TIP3    H173120   3.517   0.233   4.603 -1.0698 -0.1264 -0.3715
17235TIP3    H273121   3.664   0.251   4.570 -0.5543 -0.9826  1.3724
17236TIP3   OH273122   6.727   4.705  14.306 -0.6400 -0.3238  0.2705
17236TIP3    H173123   6.737   4.798  14.325 -1.8218 -0.4922  1.9098
17236TIP3    H273124   6.774   4.661  14.376  2.0079 -0.9911 -1.8534
17237TIP3   OH273125   3.358   0.756   5.222 -0.3415 -0.5261 -0.1092
17237TIP3    H173126   3.365   0.727   5.313 -0.2452  0.1582  0.1051
17237TIP3    H273127   3.264   0.758   5.205 -0.2898 -3.3407 -0.9072
17238TIP3   OH273128   3.783   3.547  14.680  0.4977  0.4743  0.1614
17238TIP3    H173129   3.766   3.559  14.773  0.9018  1.5669  0.1004
17238TIP3    H273130   3.878   3.551  14.672  0.5428 -0.8397 -0.1460
17239TIP3   OH273131   5.674   1.841  15.247  0.0830  0.1055 -0.2074
17239TIP3    H173132   5.613   1.794  15.191  0.0752 -0.2599  0.1053
17239TIP3    H273133   5.670   1.795  15.331  0.1884  0.5711  0.0555
17240TIP3   OH273134   1.048   2.751   4.791  0.7402 -0.0228 -0.6885
17240TIP3    H173135   1.020   2.699   4.715 -0.3111 -1.9374  0.9743
17240TIP3    H273136   1.036   2.842   4.763 -0.3349 -0.7043 -2.5606
17241TIP3   OH273137   5.183   0.534   4.485  0.1471  0.2403  0.6901
17241TIP3    H173138   5.161   0.612   4.434  1.9973 -0.3628 -1.1064
17241TIP3    H273139   5.161   0.461   4.427  0.2064 -0.5273  1.6258
17242TIP3   OH273140   6.403   1.159  16.413  0.0410  0.4076 -0.4510
17242TIP3    H173141   6.469   1.135  16.478  0.0422  0.4289 -0.4443
17242TIP3    H273142   6.435   1.241  16.376 -0.3211  0.7596  0.0185
17243TIP3   OH273143   6.775   5.026  16.540 -0.6744  0.1012 -0.8452
17243TIP3    H173144   6.813   5.050  16.625 -0.3084 -1.1890 -0.6298
17243TIP3    H273145   6.716   4.953  16.560 -0.1631 -0.5819 -1.7754
17244TIP3   OH273146   5.620   0.919  14.030  0.6067  0.4060 -0.6006
17244TIP3    H173147   5.558   0.941  14.099 -0.3921 -3.5955 -0.1365
17244TIP3    H273148   5.590   0.835  13.995  3.6321  0.1724 -2.9006
17245TIP3   OH273149   4.264   6.668  10.251  1.2088 -0.5565 -0.4479
17245TIP3    H173150   4.292   6.760  10.249 -2.3517  0.6923  1.8463
17245TIP3    H273151   4.317   6.628  10.320  0.6906  0.5934  0.6508
17246TIP3   OH273152   2.322   1.918  14.208  0.4134  0.1241  0.2262
17246TIP3    H173153   2.376   1.879  14.140 -1.6815 -0.5310 -1.1072
17246TIP3    H273154   2.348   2.010  14.211  0.0613  0.3181 -1.9336
17247TIP3   OH273155   0.107   1.938   1.086 -0.2675 -0.0045 -0.0072
17247TIP3    H173156   0.138   1.853   1.119  1.2889  0.5620  0.0348
17247TIP3    H273157   0.084   1.921   0.994 -0.1707 -0.5128  0.0591
17248TIP3   OH273158   2.694   0.413  11.034 -0.6283  0.1647  0.4774
17248TIP3    H173159   2.723   0.409  11.126  0.1840 -0.5469  0.2025
17248TIP3    H273160   2.709   0.504  11.008 -2.8229  0.8914  1.6642
17249TIP3   OH273161   2.388   0.338  12.043  0.4004  0.0450 -0.3021
17249TIP3    H173162   2.481   0.334  12.022  0.2702 -0.1035 -0.8695
17249TIP3    H273163   2.382   0.398  12.117  1.0397 -0.6244  0.3061
17250TIP3   OH273164   3.449   1.182   5.278 -0.4242 -0.7693  0.3216
17250TIP3    H173165   3.488   1.222   5.356  0.2161 -1.5452  0.3996
17250TIP3    H273166   3.358   1.166   5.302 -0.7199  0.7012  0.2672
17251TIP3   OH273167   3.898   5.100  12.652 -0.2204 -0.2539 -0.5007
17251TIP3    H173168   3.868   5.153  12.725 -0.1120 -0.4096 -0.3417
17251TIP3    H273169   3.965   5.153  12.609  0.5150 -0.6263  0.1819
17252TIP3   OH273170   3.642   4.084  16.097 -0.3592  0.3166 -0.4784
17252TIP3    H173171   3.640   4.050  16.186 -0.9232  0.2275 -0.5230
17252TIP3    H273172   3.691   4.166  16.103 -3.7190  2.3276  0.6067
17253TIP3   OH273173   3.072   0.117  14.099 -0.1891 -0.1753  0.2940
17253TIP3    H173174   3.047   0.075  14.017  0.7888  0.1125 -0.1670
17253TIP3    H273175   3.090   0.045  14.159 -1.6169 -0.3799  0.4746
17254TIP3   OH273176   3.755   5.044  12.959 -0.5854 -0.1930 -0.4312
17254TIP3    H173177   3.736   5.128  12.917 -0.7139  0.2585  0.5219
17254TIP3    H273178   3.780   5.067  13.049  0.3377 -1.1050 -0.4501
17255TIP3   OH273179   6.316   4.204   3.230  0.1330  0.5963  0.1765
17255TIP3    H173180   6.243   4.209   3.168 -0.0623  1.3172  0.4683
17255TIP3    H273181   6.276   4.180   3.313  0.4536 -0.8550 -0.0715
17256TIP3   OH273182   0.822   4.705  15.400 -0.6076 -0.6022  0.2132
17256TIP3    H173183   0.829   4.800  15.394  0.5881 -0.6029  1.3877
17256TIP3    H273184   0.770   4.690  15.478 -0.7041 -0.9207  0.0882
17257TIP3   OH273185   0.339   1.516   4.621  0.1074  0.2278  0.0464
17257TIP3    H173186   0.246   1.496   4.610 -0.2365  0.4926  2.3134
17257TIP3    H273187   0.384   1.448   4.572 -1.1949 -2.3508  2.3077
17258TIP3   OH273188   1.456   5.751  15.578 -0.4018  0.2773 -0.3098
17258TIP3    H173189   1.539   5.742  15.532 -0.6773 -0.1837 -0.7285
17258TIP3    H273190   1.436   5.663  15.609 -1.4681  0.0790 -1.5117
17259TIP3   OH273191   1.442   4.620   0.128 -0.1663 -0.1266  0.6659
17259TIP3    H173192   1.522   4.655   0.169  1.1174  0.1694 -2.0102
17259TIP3    H273193   1.438   4.662   0.043 -2.3689 -1.3381  0.1316
17260TIP3   OH273194   3.495   2.622   1.567  0.2452  0.0804  0.5133
17260TIP3    H173195   3.424   2.639   1.506  0.1632 -2.4127 -0.1699
17260TIP3    H273196   3.566   2.588   1.513  1.7729  1.9894  1.2631
17261TIP3   OH273197   6.314   5.298   2.004  0.0782 -0.7788  0.5206
17261TIP3    H173198   6.293   5.378   1.955  1.3730  0.3335  1.7219
17261TIP3    H273199   6.233   5.275   2.048 -0.5219 -0.5783 -0.4755
17262TIP3   OH273200   3.932   4.170  15.104 -0.3788  0.2645  0.3165
17262TIP3    H173201   3.955   4.231  15.034 -0.4006 -0.7602 -0.5897
17262TIP3    H273202   4.005   4.108  15.108 -0.5538  0.0931  0.9496
17263TIP3   OH273203   5.450   3.694   4.960 -0.6009 -0.4254  1.1077
17263TIP3    H173204   5.390   3.720   5.030 -1.0281  1.6910  0.0253
17263TIP3    H273205   5.537   3.702   4.999 -0.8624  0.0689  1.6082
17264TIP3   OH273206   5.366   6.742  15.275 -0.2058  0.2071  0.4041
17264TIP3    H173207   5.390   6.738  15.367 -0.3858 -0.3639  0.4277
17264TIP3    H273208   5.327   6.657  15.256  0.1907  0.1707 -0.2948
17265TIP3   OH273209   2.204   6.730   4.457  0.1696  0.2111 -0.1454
17265TIP3    H173210   2.249   6.801   4.411  1.9167  1.3246  3.1307
17265TIP3    H273211   2.117   6.765   4.477  0.0141  0.3431 -1.0154
17266TIP3   OH273212   0.482   6.565   1.735  0.6213 -0.0083 -0.2382
17266TIP3    H173213   0.452   6.495   1.677  1.1240  0.2994 -0.8711
17266TIP3    H273214   0.439   6.546   1.819 -1.2642  0.3577 -1.0938
17267TIP3   OH273215   0.655   3.911  16.793  0.2038 -0.7794  0.4308
17267TIP3    H173216   0.587   3.859  16.837 -0.2040 -0.3522  0.3119
17267TIP3    H273217   0.713   3.938  16.864  0.7680 -1.9309  0.3993
17268TIP3   OH273218   3.109   2.187   0.947  0.0020  0.3811  0.4090
17268TIP3    H173219   3.017   2.198   0.972  0.2711  3.8784  0.1911
17268TIP3    H273220   3.105   2.141   0.863 -1.5239  0.0848  0.6175
17269TIP3   OH273221   5.931   3.745   2.193 -0.3775 -0.3339  0.3520
17269TIP3    H173222   5.858   3.685   2.178 -0.0395 -0.9283  1.0460
17269TIP3    H273223   5.913   3.820   2.135 -1.6500 -0.3695  0.6831
17270TIP3   OH273224   4.970   6.177   3.664  0.5187 -0.1287  0.3672
17270TIP3    H173225   4.971   6.094   3.616 -0.8508 -0.4502  0.8766
17270TIP3    H273226   4.958   6.243   3.596  3.5293 -0.1657 -0.2575
17271TIP3   OH273227   0.042   6.250   4.035  0.3389 -0.1853 -0.0953
17271TIP3    H173228   0.071   6.163   4.007  2.3790  1.1033 -2.1776
17271TIP3    H273229   0.100   6.272   4.108 -0.7722 -0.9277  1.0214
17272TIP3   OH273230   3.085   3.996   5.971  0.4442  0.5161  0.6746
17272TIP3    H173231   2.995   3.970   5.952  0.9934  1.2545 -3.4882
17272TIP3    H273232   3.137   3.916   5.959  0.5210  0.4354  1.5436
17273TIP3   OH273233   6.166   5.480  17.158 -0.4502 -0.0628  0.2425
17273TIP3    H173234   6.256   5.476  17.128 -0.7342  2.4950 -1.0871
17273TIP3    H273235   6.165   5.551  17.222 -1.6108  0.2581 -0.1145
17274TIP3   OH273236   6.062   3.180   3.708  0.6043  0.3715 -0.3856
17274TIP3    H173237   6.086   3.116   3.775 -0.6759  0.2081 -0.0677
17274TIP3    H273238   6.136   3.179   3.647  0.1531 -2.1819 -0.9522
17275TIP3   OH273239   0.546   1.654  13.889 -0.7842 -0.3428  0.2386
17275TIP3    H173240   0.597   1.625  13.964 -1.6606  0.4844  1.1689
17275TIP3    H273241   0.611   1.688  13.827 -0.1782  0.5470  1.3412
17276TIP3   OH273242   2.147   4.575  11.387 -0.6814 -0.0223 -0.4169
17276TIP3    H173243   2.071   4.632  11.379 -1.9378 -1.7175 -0.7780
17276TIP3    H273244   2.172   4.555  11.296  0.5037  0.9217 -0.3086
17277TIP3   OH273245   4.341   1.910  12.374  0.1387  0.0057  0.3893
17277TIP3    H173246   4.315   1.954  12.455 -1.5690 -2.0854  0.9939
17277TIP3    H273247   4.325   1.975  12.306 -0.6454  0.9616  1.4660
17278TIP3   OH273248   5.257   4.180  14.885 -0.0650  0.8285  0.3846
17278TIP3    H173249   5.251   4.135  14.969 -0.4887 -0.1239 -0.1445
17278TIP3    H273250   5.253   4.273  14.907 -0.9297  0.5668  1.3569
17279TIP3   OH273251   5.176   0.276  16.426 -0.2189 -0.0732  0.1368
17279TIP3    H173252   5.242   0.326  16.379 -0.5305 -0.5542 -0.8214
17279TIP3    H273253   5.093   0.321  16.406 -0.3757 -0.3760  0.1073
17280TIP3   OH273254   3.407   1.757  15.392  0.7682 -0.0088  0.0456
17280TIP3    H173255   3.479   1.801  15.438  0.8824  0.3673 -0.4837
17280TIP3    H273256   3.348   1.828  15.367  0.2943 -0.2988  0.3297
17281TIP3   OH273257   6.679   2.802   5.066 -0.2631  0.1611 -0.0714
17281TIP3    H173258   6.594   2.844   5.074 -0.1561  0.4714 -0.5337
17281TIP3    H273259   6.730   2.837   5.140  0.9820  3.6511 -2.4495
17282TIP3   OH273260   3.470   0.501   2.766  0.1359  0.4102 -0.0776
17282TIP3    H173261   3.467   0.594   2.747  0.6578  0.3145 -0.6462
17282TIP3    H273262   3.554   0.471   2.730  0.9641  0.1406  2.0215
17283TIP3   OH273263   2.353   2.411   1.549  0.3324  0.0345  0.3034
17283TIP3    H173264   2.396   2.334   1.588 -0.0055 -0.3464 -0.0646
17283TIP3    H273265   2.322   2.462   1.624  3.1339  1.3291  0.6457
17284TIP3   OH273266   4.026   4.358  14.932  0.0699 -0.2787 -0.3925
17284TIP3    H173267   4.043   4.368  14.838 -0.2499 -0.6777 -0.4954
17284TIP3    H273268   3.962   4.427  14.952  0.9986  0.5425 -0.2270
17285TIP3   OH273269   0.404   5.430   6.146 -0.1514  0.9328  0.1398
17285TIP3    H173270   0.368   5.342   6.149 -2.1275  1.6900 -0.5560
17285TIP3    H273271   0.362   5.477   6.218 -0.4687  1.7820 -0.5758
17286TIP3   OH273272   2.785   2.153   4.061  0.0121 -0.3275 -0.1114
17286TIP3    H173273   2.761   2.235   4.104 -0.2314  0.0484 -0.9523
17286TIP3    H273274   2.874   2.168   4.028  0.3691 -0.7703  0.6415
17287TIP3   OH273275   0.041   6.024   3.134  0.1322 -0.0668 -0.2802
17287TIP3    H173276   0.059   6.029   3.040  1.6714  0.8110  0.0275
17287TIP3    H273277  -0.045   6.064   3.144 -0.7202 -1.5165 -1.4750
17288TIP3   OH273278   0.272   3.177  11.833  0.5829  0.7227  0.2782
17288TIP3    H173279   0.280   3.084  11.814 -2.9446  0.3982  0.0791
17288TIP3    H273280   0.260   3.218  11.747  0.6167  1.1940  0.4972
17289TIP3   OH273281   2.128   4.521   4.993 -0.0070 -0.0049 -0.0665
17289TIP3    H173282   2.077   4.587   4.946 -0.9678 -2.1551 -2.1464
17289TIP3    H273283   2.216   4.560   4.999 -0.4579  1.3329 -1.5603
17290TIP3   OH273284   6.216   6.694   0.513 -0.0425  0.0539  0.5550
17290TIP3    H173285   6.297   6.667   0.555 -1.7828 -2.5747  2.3884
17290TIP3    H273286   6.172   6.612   0.490 -2.8914  1.3908  1.0239
17291TIP3   OH273287   1.218   4.987  11.722  0.7834 -0.3734 -0.3152
17291TIP3    H173288   1.188   4.982  11.631 -1.5011  1.0213  0.2970
17291TIP3    H273289   1.212   5.080  11.744  1.8424 -0.6235  1.1003
17292TIP3   OH273290   3.263   3.945   1.257  0.0111  0.0602 -0.1888
17292TIP3    H173291   3.299   3.858   1.275  0.8088  0.5215  0.5050
17292TIP3    H273292   3.308   4.003   1.320 -0.1699  1.0377 -0.9453
17293TIP3   OH273293   0.191   4.676   5.108  0.2712 -0.2332  0.6850
17293TIP3    H173294   0.282   4.706   5.104 -0.3632  1.7465  0.4916
17293TIP3    H273295   0.189   4.601   5.048  1.6431  0.0530  0.2408
17294TIP3   OH273296   2.441   5.680  10.630  0.0017  0.0944 -0.2596
17294TIP3    H173297   2.363   5.714  10.587  0.3263  0.7503 -0.3352
17294TIP3    H273298   2.514   5.720  10.583  0.3630  0.5336  0.6506
17295TIP3   OH273299   2.200   1.022  12.362 -0.0110  0.0176 -0.4521
17295TIP3    H173300   2.213   1.093  12.300 -0.5039  1.0613  0.6290
17295TIP3    H273301   2.159   1.063  12.438 -1.4394 -1.6288 -0.3016
17296TIP3   OH273302   1.123   4.455   0.578  0.1467 -0.2894 -0.1271
17296TIP3    H173303   1.216   4.468   0.594 -0.3936  0.7523  2.3250
17296TIP3    H273304   1.110   4.361   0.587  0.9517 -0.4323 -0.4564
17297TIP3   OH273305   2.293   3.118  13.700 -0.3252  0.4751 -0.5028
17297TIP3    H173306   2.318   3.139  13.610  4.1209 -0.4679  0.4110
17297TIP3    H273307   2.336   3.185  13.753  0.5483 -1.3596  1.1887
17298TIP3   OH273308   1.331   0.006   0.137 -0.4570  0.2904 -0.6236
17298TIP3    H173309   1.409  -0.044   0.160  0.2385  1.2486 -0.8783
17298TIP3    H273310   1.282   0.015   0.219 -0.4955 -0.6339 -0.5397
17299TIP3   OH273311   0.076   1.619  12.942  0.2280  0.7442 -0.4048
17299TIP3    H173312   0.027   1.630  13.023  1.7255 -0.3562  0.7014
17299TIP3    H273313   0.025   1.665  12.876 -0.8893  1.8823  1.2146
17300TIP3   OH273314   5.414   4.412  14.049  0.1928 -0.8812 -0.2258
17300TIP3    H173315   5.357   4.488  14.048  1.5515  0.1616 -1.6305
17300TIP3    H273316   5.372   4.350  13.989  0.4352 -0.1728 -1.1489
17301TIP3   OH273317   0.283   4.647   0.040 -0.2631  0.0835 -0.4273
17301TIP3    H173318   0.223   4.721   0.044  0.0308  0.4495 -2.2776
17301TIP3    H273319   0.243   4.581   0.097  0.8561  2.5752  3.4178
17302TIP3   OH273320   6.339   1.241  15.273 -0.0497  0.3246 -0.1233
17302TIP3    H173321   6.397   1.171  15.303  0.5539  0.5579 -0.7264
17302TIP3    H273322   6.355   1.313  15.334  1.2875  0.8517 -1.0646
17303TIP3   OH273323   1.495   6.320   1.486  0.0304  0.4971  0.6563
17303TIP3    H173324   1.573   6.266   1.487  0.1992  0.7047 -0.3744
17303TIP3    H273325   1.441   6.282   1.417 -0.2952  1.0205  0.6225
17304TIP3   OH273326   5.831   4.474  13.567  0.1451 -0.2011  0.0406
17304TIP3    H173327   5.775   4.397  13.573 -0.6743  0.5958  4.1278
17304TIP3    H273328   5.920   4.439  13.567 -0.2361 -1.1770  0.7774
17305TIP3   OH273329   4.517   0.934   3.852  0.3034  0.2702  0.1545
17305TIP3    H173330   4.445   0.989   3.820  1.7565  0.7403 -2.5029
17305TIP3    H273331   4.490   0.845   3.832  0.7289  0.4908 -1.4946
17306TIP3   OH273332   6.570   4.536   6.231 -0.3843 -0.2992 -0.3841
17306TIP3    H173333   6.612   4.513   6.148 -0.0912  0.4269 -0.4414
17306TIP3    H273334   6.514   4.611   6.209  0.4270  0.5029  0.2799
17307TIP3   OH273335   1.257   5.521   1.711 -0.3308  0.6314  0.2072
17307TIP3    H173336   1.240   5.613   1.688 -0.8009  0.5757  0.3136
17307TIP3    H273337   1.179   5.495   1.760 -0.6601 -0.1237 -0.6912
17308TIP3   OH273338   5.310   2.240   0.885 -0.2991  0.0286  0.5906
17308TIP3    H173339   5.401   2.210   0.884 -0.2818  0.0865  0.4731
17308TIP3    H273340   5.259   2.159   0.876 -0.2447  0.0641 -0.0606
17309TIP3   OH273341   3.850   3.043  12.217 -0.8038  0.6593 -0.1169
17309TIP3    H173342   3.888   3.129  12.198 -1.2800  0.6508 -1.1262
17309TIP3    H273343   3.847   2.998  12.133 -0.6651 -0.3111  0.3906
17310TIP3   OH273344   1.498   2.706  12.532  0.4790  0.1138  0.3241
17310TIP3    H173345   1.558   2.631  12.539  0.0837 -0.1591  0.7550
17310TIP3    H273346   1.556   2.782  12.532  0.9212 -0.2147 -0.6976
17311TIP3   OH273347   2.542   0.567  12.866  0.0557 -0.4184  0.4604
17311TIP3    H173348   2.557   0.642  12.808 -0.3978 -0.8519 -0.2287
17311TIP3    H273349   2.493   0.603  12.940  0.1299  0.0281  0.2929
17312TIP3   OH273350   3.314   2.514  16.031 -0.1678 -0.0474  0.6227
17312TIP3    H173351   3.247   2.477  16.088 -1.6801 -0.0837 -1.1271
17312TIP3    H273352   3.325   2.604  16.062  0.1427 -0.5190  1.9213
17313TIP3   OH273353   4.426   5.571   2.776  0.0726  0.2505 -0.8970
17313TIP3    H173354   4.342   5.602   2.809  1.0579  0.5143  1.4814
17313TIP3    H273355   4.420   5.579   2.681 -2.7634 -0.2279 -0.7859
17314TIP3   OH273356   5.102   0.339  14.965  0.0335  0.1468  0.7417
17314TIP3    H173357   5.170   0.377  15.022 -0.5562  0.8166  1.0049
17314TIP3    H273358   5.151   0.300  14.893  0.8689 -1.5677  2.1861
17315TIP3   OH273359   3.499   2.112   2.059  0.2460 -0.1425 -0.0301
17315TIP3    H173360   3.423   2.078   2.106  0.5539  1.1141  1.3819
17315TIP3    H273361   3.545   2.033   2.028 -1.4554 -0.9134 -0.6675
17316TIP3   OH273362   0.659   3.639  16.115  0.4149  0.1318 -0.3321
17316TIP3    H173363   0.722   3.694  16.161 -0.3714  0.7750 -0.0147
17316TIP3    H273364   0.667   3.553  16.156  1.7496 -0.0275 -0.9232
17317TIP3   OH273365   1.436   6.265  11.423 -0.2258  0.0899  0.2816
17317TIP3    H173366   1.518   6.215  11.429 -0.7709 -0.9105 -0.3544
17317TIP3    H273367   1.463   6.357  11.424  0.9994 -0.2472 -1.1676
17318TIP3   OH273368   0.384   5.193  16.734  0.4721  0.3444 -0.0820
17318TIP3    H173369   0.436   5.117  16.708  0.6529 -0.0608  1.4270
17318TIP3    H273370   0.447   5.264  16.738  0.6520  0.1572  0.3929
17319TIP3   OH273371   5.941   2.287   5.415  0.2279 -0.1876 -0.0271
17319TIP3    H173372   5.847   2.278   5.435  0.0289 -0.3695 -1.0554
17319TIP3    H273373   5.973   2.197   5.409 -0.1171 -0.1695 -2.4375
17320TIP3   OH273374   4.524   5.126  16.222  0.3774  0.1878 -0.4252
17320TIP3    H173375   4.581   5.153  16.293  0.5957 -0.9054 -0.1713
17320TIP3    H273376   4.445   5.178  16.232  0.2131 -0.3165  0.9122
17321TIP3   OH273377   1.485   3.131  16.624  0.2795 -0.5325  0.4558
17321TIP3    H173378   1.391   3.116  16.637  0.4674 -0.5384  1.8054
17321TIP3    H273379   1.497   3.123  16.529 -1.4796  1.7125 -0.0179
17322TIP3   OH273380   3.040   3.850   1.084  0.5753 -0.0104  0.3577
17322TIP3    H173381   2.977   3.818   1.149  1.6112  0.1226  1.4609
17322TIP3    H273382   3.108   3.894   1.137  0.3354  2.0140 -0.9670
17323TIP3   OH273383   2.795   1.591  14.951  0.0773  0.2638 -0.0928
17323TIP3    H173384   2.709   1.610  14.987  0.5132  1.0571  0.5565
17323TIP3    H273385   2.839   1.676  14.948  1.2538 -0.3028  0.7084
17324TIP3   OH273386   5.326   4.918  14.520  0.0141  0.3605  0.1407
17324TIP3    H173387   5.305   5.009  14.497  1.0710  0.6594  0.3149
17324TIP3    H273388   5.332   4.873  14.436 -1.2313  0.2892  0.0903
17325TIP3   OH273389   5.613   0.697  15.233  1.0159 -0.0424 -0.3061
17325TIP3    H173390   5.657   0.715  15.316 -0.9234  1.1273  0.4952
17325TIP3    H273391   5.602   0.601  15.232  0.7912 -0.0333  0.9261
17326TIP3   OH273392   1.088   5.141   6.029  0.1160  0.5131 -0.5844
17326TIP3    H173393   1.019   5.171   6.088  0.6015  0.9545 -0.2299
17326TIP3    H273394   1.128   5.067   6.075  1.3549  1.6782  0.2640
17327TIP3   OH273395   2.202   3.000   4.214 -0.2779 -0.0661  0.7851
17327TIP3    H173396   2.182   2.972   4.125 -0.1269  0.5159  0.5674
17327TIP3    H273397   2.166   2.931   4.270 -0.6404 -0.2800  0.2870
17328TIP3   OH273398   3.988   2.232  14.816 -0.1042  1.0273 -0.0186
17328TIP3    H173399   3.946   2.316  14.834 -3.1049 -0.3103 -0.2947
17328TIP3    H273400   3.958   2.175  14.886  0.1075 -0.3661 -1.0357
17329TIP3   OH273401   3.090   1.641   4.453 -0.1346  0.1497 -0.7295
17329TIP3    H173402   3.155   1.690   4.403 -0.2491  0.9014 -0.1298
17329TIP3    H273403   3.101   1.669   4.543 -1.0331  0.0019 -0.5615
17330TIP3   OH273404   5.102   2.834  16.274 -0.0276  0.5733  0.2317
17330TIP3    H173405   5.061   2.912  16.238 -1.2224 -0.3562 -0.4402
17330TIP3    H273406   5.083   2.839  16.368 -0.6012  0.7887  0.1098
17331TIP3   OH273407   1.295   1.531  11.086  0.4408 -0.3714 -0.8934
17331TIP3    H173408   1.256   1.444  11.077  1.9768 -1.4706  2.2892
17331TIP3    H273409   1.379   1.524  11.039 -0.1263 -0.0936 -1.9698
17332TIP3   OH273410   5.875   1.896   4.813 -0.6081 -0.1057 -0.4327
17332TIP3    H173411   5.939   1.824   4.808  1.6880  1.7727  1.0217
17332TIP3    H273412   5.843   1.904   4.723  1.0010 -1.2735 -1.1675
17333TIP3   OH273413   3.803   4.827   5.999  0.4790  0.0778 -0.1253
17333TIP3    H173414   3.814   4.806   6.092  1.4734 -2.6303 -0.8130
17333TIP3    H273415   3.810   4.743   5.954 -1.9002  1.0784 -2.5245
17334TIP3   OH273416   1.329   5.677  11.163 -0.3648 -0.2050  0.0734
17334TIP3    H173417   1.293   5.705  11.079  1.6573  0.0930 -0.7179
17334TIP3    H273418   1.309   5.583  11.167 -0.9897 -0.0990 -0.4667
17335TIP3   OH273419   5.560   0.102   3.098 -0.0124  0.2520 -0.0273
17335TIP3    H173420   5.527   0.019   3.130  0.0674 -0.9627 -2.9389
17335TIP3    H273421   5.607   0.080   3.017  2.3885  2.7623  0.6039
17336TIP3   OH273422   0.819   1.204   4.963  0.5920  0.3933 -0.3607
17336TIP3    H173423   0.822   1.289   5.005 -0.7999 -0.7438  2.1421
17336TIP3    H273424   0.897   1.159   4.994 -1.3148 -1.0698  2.4801
17337TIP3   OH273425   5.916   2.593   2.358  0.1706  0.4965  0.2184
17337TIP3    H173426   5.990   2.544   2.393  0.2653  0.8568  0.5255
17337TIP3    H273427   5.949   2.683   2.350 -0.1628  0.6136  0.1429
17338TIP3   OH273428   2.507   6.226   0.396  0.3255  0.3331 -0.0299
17338TIP3    H173429   2.573   6.214   0.327  1.0288  0.6813  0.5815
17338TIP3    H273430   2.527   6.312   0.433  0.4476 -0.2015  1.1488
17339TIP3   OH273431   3.628   3.915   3.370 -0.2881  0.5338  0.0237
17339TIP3    H173432   3.622   3.849   3.301  2.2397 -0.9058  1.1088
17339TIP3    H273433   3.612   3.998   3.325 -4.5453 -0.8227 -1.1948
17340TIP3   OH273434   1.215   1.441  15.674  0.2434 -0.2618  0.3110
17340TIP3    H173435   1.278   1.377  15.707  1.6002  0.9116  0.0132
17340TIP3    H273436   1.211   1.508  15.742  2.0085  1.4631 -1.2173
17341TIP3   OH273437   0.777   2.143   2.902  0.1339  0.0726  0.3161
17341TIP3    H173438   0.683   2.157   2.918 -0.5821 -2.8901 -1.0895
17341TIP3    H273439   0.812   2.118   2.987 -0.5086  0.3183  0.6605
17342TIP3   OH273440   4.469   5.324   4.039 -0.0535  0.2034  0.2962
17342TIP3    H173441   4.387   5.345   4.083 -1.0663 -0.4364 -1.2867
17342TIP3    H273442   4.488   5.402   3.986  0.0492  0.1068  0.1927
17343TIP3   OH273443   5.559   5.400   0.552 -0.4656  0.0922 -0.9427
17343TIP3    H173444   5.505   5.373   0.478  0.7944  0.5188 -2.0431
17343TIP3    H273445   5.509   5.469   0.595 -1.8271 -1.1091 -0.5670
17344TIP3   OH273446   4.764   0.635  13.458  0.2728 -0.2867 -0.1313
17344TIP3    H173447   4.838   0.686  13.424  1.3664 -1.3502  0.6156
17344TIP3    H273448   4.767   0.649  13.552  1.4914 -2.8664  0.2543
17345TIP3   OH273449   4.587   3.027  12.210  0.2154 -0.6357 -0.1150
17345TIP3    H173450   4.560   3.105  12.161 -0.3499 -0.3373  0.6621
17345TIP3    H273451   4.664   3.055  12.259 -0.5713 -0.2596  0.9391
17346TIP3   OH273452   0.752   5.206   1.075 -0.1337 -0.5355  0.3277
17346TIP3    H173453   0.827   5.153   1.104 -0.1737 -1.3543 -1.0421
17346TIP3    H273454   0.783   5.250   0.996 -1.0391 -0.7217 -0.1351
17347TIP3   OH273455   6.646   5.703   6.534  0.2908  0.2889 -0.1864
17347TIP3    H173456   6.588   5.654   6.476 -0.3887 -0.0648  0.7889
17347TIP3    H273457   6.730   5.656   6.529  0.0268 -0.1698 -0.3179
17348TIP3   OH273458   4.389   3.040  12.889  0.3375 -0.3508  0.3299
17348TIP3    H173459   4.428   2.996  12.813 -1.0692 -2.3928  0.7629
17348TIP3    H273460   4.346   2.970  12.938 -3.3217  1.6614  0.2082
17349TIP3   OH273461   5.905   1.330   2.350  0.3716 -0.1397  0.1816
17349TIP3    H173462   5.939   1.409   2.309 -3.2525  2.2090  1.4219
17349TIP3    H273463   5.894   1.268   2.278  3.6048  0.3100 -0.7496
17350TIP3   OH273464   2.406   5.718   6.596 -0.5646  0.1881  0.3352
17350TIP3    H173465   2.314   5.741   6.585 -0.6389 -0.1269  0.2855
17350TIP3    H273466   2.452   5.802   6.604 -0.5834  0.4273 -1.7487
17351TIP3   OH273467   2.429   0.497  16.887  0.5726  0.3008 -0.0739
17351TIP3    H173468   2.519   0.489  16.853  0.5503 -1.3488  0.1923
17351TIP3    H273469   2.390   0.412  16.869 -0.6391  0.6902  0.7055
17352TIP3   OH273470   4.492   2.467   5.048  0.0721 -0.7941 -0.3199
17352TIP3    H173471   4.524   2.386   5.007 -1.3795 -1.2985 -0.4820
17352TIP3    H273472   4.449   2.438   5.129  1.3789  0.0280  0.6796
17353TIP3   OH273473   6.227   2.295  10.769 -0.5374 -0.0693 -0.3010
17353TIP3    H173474   6.239   2.279  10.675  0.7952 -1.7080  0.1233
17353TIP3    H273475   6.282   2.372  10.787 -2.2429  1.4192 -1.1783
17354TIP3   OH273476   4.941   1.157  13.800  0.7775 -0.3045  0.3838
17354TIP3    H173477   4.887   1.129  13.874 -0.0864 -0.7133 -0.3810
17354TIP3    H273478   4.922   1.251  13.791  1.3641 -0.1219  1.0729
17355TIP3   OH273479   3.192   5.296  14.845  0.6145  0.1719  0.0732
17355TIP3    H173480   3.125   5.350  14.803  1.4375  1.1862  0.0532
17355TIP3    H273481   3.142   5.233  14.898 -0.3586  0.6533 -0.2561
17356TIP3   OH273482   1.746   0.744   1.100 -0.7678  0.2553  0.4854
17356TIP3    H173483   1.690   0.807   1.146 -0.0693  0.3472  1.2374
17356TIP3    H273484   1.807   0.713   1.168  0.3322  0.4428 -0.3912
17357TIP3   OH273485   0.479   4.949  15.112 -0.0513  0.4250 -0.3012
17357TIP3    H173486   0.538   4.928  15.039  1.0039  0.0199  0.6553
17357TIP3    H273487   0.392   4.936  15.076  0.3977  2.1474 -2.0848
17358TIP3   OH273488   2.578   4.873   4.698  0.3557  0.7716  0.4667
17358TIP3    H173489   2.568   4.932   4.773  0.1906  0.6172  0.5670
17358TIP3    H273490   2.669   4.844   4.702 -0.2131 -0.9471  1.8920
17359TIP3   OH273491   2.605   4.407  14.897 -0.1569  0.7126 -0.6704
17359TIP3    H173492   2.661   4.452  14.960 -1.5504  2.0038 -0.3136
17359TIP3    H273493   2.576   4.328  14.943  2.5690 -0.7496 -1.4174
17360TIP3   OH273494   6.026   3.486   0.047  0.2802  0.4738  0.3274
17360TIP3    H173495   5.999   3.576   0.061  3.1341  1.2904  1.0317
17360TIP3    H273496   5.947   3.440   0.020 -1.1204  3.2811 -0.4982
17361TIP3   OH273497   3.664   5.874   2.210 -0.0034 -0.0514 -0.3920
17361TIP3    H173498   3.680   5.821   2.288  0.2817 -0.7188 -0.9033
17361TIP3    H273499   3.743   5.863   2.157  0.5460  1.7807  0.0131
17362TIP3   OH273500   5.546   4.683  15.556 -0.2725 -0.0382 -0.2516
17362TIP3    H173501   5.505   4.626  15.491 -2.1719  0.8621  0.1324
17362TIP3    H273502   5.571   4.761  15.508  3.7651 -1.7352 -1.1171
17363TIP3   OH273503   3.860   0.408  12.290 -0.3117 -0.5174  0.5361
17363TIP3    H173504   3.856   0.319  12.325  1.2686 -0.3504  1.1856
17363TIP3    H273505   3.924   0.453  12.346  0.4419  0.4444 -1.0489
17364TIP3   OH273506   1.117   5.141   0.239 -0.0447 -0.7227 -0.1647
17364TIP3    H173507   1.063   5.087   0.296  0.4768  0.8907  1.9207
17364TIP3    H273508   1.140   5.083   0.166  0.4985 -3.3407  1.9852
17365TIP3   OH273509   0.094   4.060  16.464 -0.0808 -0.3703 -0.5767
17365TIP3    H173510   0.181   4.073  16.427 -0.6762 -0.9144 -2.1973
17365TIP3    H273511   0.088   3.965  16.480 -1.0725 -0.6020 -2.2546
17366TIP3   OH273512   0.114   1.838  14.614  0.3412 -0.2521  0.7732
17366TIP3    H173513   0.168   1.916  14.601  0.2962 -0.2316  0.7062
17366TIP3    H273514   0.156   1.791  14.686  0.4771 -0.2627  0.6876
17367TIP3   OH273515   5.495   5.537   2.152  0.1106 -0.1636  0.2316
17367TIP3    H173516   5.485   5.464   2.212  0.6565  1.2841  2.1468
17367TIP3    H273517   5.557   5.507   2.087 -0.3126 -1.6799  0.5147
17368TIP3   OH273518   2.249   0.074   3.061  0.1283  0.1854  0.0524
17368TIP3    H173519   2.340   0.060   3.089 -0.0701 -0.7964  0.2197
17368TIP3    H273520   2.250   0.161   3.021  0.4891  1.4990  2.7888
17369TIP3   OH273521   4.425   0.197  16.707  0.0210 -0.1410 -0.2432
17369TIP3    H173522   4.336   0.160  16.708 -0.6302  1.2811  3.1245
17369TIP3    H273523   4.452   0.194  16.799  2.3323  2.1209 -0.8152
17370TIP3   OH273524   4.132   2.542   3.848 -0.5759  0.0082 -0.1273
17370TIP3    H173525   4.084   2.510   3.924 -0.8957 -0.3807 -0.4844
17370TIP3    H273526   4.215   2.494   3.850 -0.0180  1.0030  0.7350
17371TIP3   OH273527   0.943   5.535  15.815 -0.1440  0.3779  0.2928
17371TIP3    H173528   0.936   5.623  15.852  0.2137  0.0780  1.0843
17371TIP3    H273529   0.904   5.478  15.880 -1.6611  0.0824 -0.8414
17372TIP3   OH273530   5.644   2.729   2.814 -0.1232  1.3049  0.0810
17372TIP3    H173531   5.616   2.801   2.870 -1.8940  0.8011 -0.1192
17372TIP3    H273532   5.649   2.768   2.726  0.1928  1.4902  0.1803
17373TIP3   OH273533   5.211   2.139  11.990  0.3572 -0.4440  0.4041
17373TIP3    H173534   5.297   2.101  12.009 -0.1016 -2.4038 -1.2421
17373TIP3    H273535   5.165   2.137  12.074  1.7809  0.2732  1.2181
17374TIP3   OH273536   2.378   4.687   6.102  0.2031  0.0570  0.2566
17374TIP3    H173537   2.403   4.639   6.024  0.9898 -0.6360  0.9171
17374TIP3    H273538   2.303   4.741   6.075 -1.5312 -2.4883 -0.1840
17375TIP3   OH273539   1.066   5.217   2.584  0.1215 -0.3050  0.0172
17375TIP3    H173540   0.982   5.261   2.586 -1.4832 -3.1357 -1.7558
17375TIP3    H273541   1.071   5.170   2.667  0.3711  0.5640  0.4997
17376TIP3   OH273542   1.267   4.466  15.697 -0.1155  0.5339  0.3225
17376TIP3    H173543   1.193   4.422  15.739 -0.0886 -1.0600 -1.2339
17376TIP3    H273544   1.230   4.505  15.618  0.6611 -0.0956 -0.3534
17377TIP3   OH273545   2.890   5.372  13.873 -0.2557 -0.3345  0.1009
17377TIP3    H173546   2.887   5.402  13.782  1.3262  0.3417  0.2531
17377TIP3    H273547   2.964   5.312  13.876  0.1317  0.1875  1.1077
17378TIP3   OH273548   3.414   3.688  10.988  0.1789  0.3332  0.5613
17378TIP3    H173549   3.392   3.759  10.928 -0.2962  0.0403  0.3948
17378TIP3    H273550   3.352   3.619  10.969  1.8512 -0.8869 -0.5840
17379TIP3   OH273551   5.173   1.726   2.896  0.2519  0.4875  0.5324
17379TIP3    H173552   5.149   1.692   2.983 -0.1881  1.7215  0.9121
17379TIP3    H273553   5.268   1.727   2.896  0.2590  1.7034  1.5128
17380TIP3   OH273554   5.255   4.554   1.395 -0.4859  0.0121  0.0748
17380TIP3    H173555   5.245   4.467   1.433 -3.0957  0.0434 -0.4305
17380TIP3    H273556   5.340   4.551   1.350 -0.5117 -2.2499  0.1199
17381TIP3   OH273557   3.562   5.885  16.136  0.0579  0.3071  0.4895
17381TIP3    H173558   3.491   5.898  16.199 -0.8224 -0.6920 -0.2706
17381TIP3    H273559   3.561   5.791  16.117  1.1585  0.3842 -0.0324
17382TIP3   OH273560   0.792   0.471   5.184 -0.2735  0.2314 -0.5229
17382TIP3    H173561   0.703   0.504   5.197 -1.1548 -2.0042 -0.5619
17382TIP3    H273562   0.816   0.500   5.096 -1.5576 -0.3609 -1.0934
17383TIP3   OH273563   3.190   6.296   2.482 -0.2272  0.1451 -0.1981
17383TIP3    H173564   3.250   6.317   2.553  1.0479 -0.9441 -0.9053
17383TIP3    H273565   3.107   6.334   2.508  0.5568  0.9321  1.2293
17384TIP3   OH273566   4.296   5.413  11.843  0.0647 -0.4218 -0.3894
17384TIP3    H173567   4.253   5.489  11.803  0.3693 -0.3228 -0.5373
17384TIP3    H273568   4.339   5.369  11.769 -0.3918 -0.9267 -0.3552
17385TIP3   OH273569   5.980   0.801  13.320  0.2816  0.7210 -0.2664
17385TIP3    H173570   6.031   0.731  13.360 -1.8599 -0.5634  0.2923
17385TIP3    H273571   5.959   0.769  13.232 -0.9532  0.5120  0.0936
17386TIP3   OH273572   4.786   2.253  11.286  0.0533  0.4134  0.2390
17386TIP3    H173573   4.730   2.243  11.363  0.3705 -0.9959  0.2898
17386TIP3    H273574   4.730   2.231  11.212  0.5590 -1.0954  0.2967
17387TIP3   OH273575   5.268   4.479   0.654  0.0467 -0.9743 -0.0067
17387TIP3    H173576   5.185   4.431   0.653 -0.9417  0.5815  1.8299
17387TIP3    H273577   5.272   4.516   0.742  2.0135  0.1518 -0.5506
17388TIP3   OH273578   1.538   3.365   1.315  0.3009 -0.0297 -0.2018
17388TIP3    H173579   1.625   3.386   1.347  0.2011 -0.0467  0.0826
17388TIP3    H273580   1.505   3.448   1.281 -0.0199  0.2402  0.7540
17389TIP3   OH273581   4.448   5.328   0.776 -0.4322 -0.0720  0.2490
17389TIP3    H173582   4.410   5.344   0.863  0.0797 -0.3584  0.5249
17389TIP3    H273583   4.508   5.254   0.789 -0.6088 -0.3414 -0.4174
17390TIP3   OH273584   0.432   4.535  13.074  0.3767  0.0377 -0.0164
17390TIP3    H173585   0.526   4.541  13.093  0.6019  0.3022 -1.1553
17390TIP3    H273586   0.428   4.506  12.982 -0.6630 -0.9304  0.3176
17391TIP3   OH273587   6.720   5.220  12.975 -0.6817  0.5420 -0.0965
17391TIP3    H173588   6.651   5.267  13.023 -1.2845 -1.3245  0.9356
17391TIP3    H273589   6.677   5.142  12.942  0.4290  0.4423 -1.3350
17392TIP3   OH273590   2.985   0.524   0.672  0.2972 -0.0142 -0.0412
17392TIP3    H173591   2.942   0.504   0.589  0.2401 -0.4097  0.0812
17392TIP3    H273592   2.992   0.440   0.716  2.5235 -0.1993 -0.6835
17393TIP3   OH273593   3.218   4.327  17.138  0.5676 -0.7391  0.0149
17393TIP3    H173594   3.135   4.314  17.185  1.5016 -0.7568  1.6908
17393TIP3    H273595   3.201   4.402  17.080 -0.4655 -0.4228  0.7132
17394TIP3   OH273596   0.900   4.640   2.240  0.6600 -0.0855  0.8426
17394TIP3    H173597   0.807   4.638   2.265  0.6513 -1.1266  0.7486
17394TIP3    H273598   0.904   4.699   2.165  0.0649 -0.0746  0.8179
17395TIP3   OH273599   3.301   4.220   2.036  0.1632  0.1943  0.4818
17395TIP3    H173600   3.376   4.186   1.987 -0.5890 -0.7806 -0.0094
17395TIP3    H273601   3.245   4.144   2.050 -0.0210  0.6195  2.1760
17396TIP3   OH273602   0.380   1.297  15.175  0.3505  0.3554 -0.2201
17396TIP3    H173603   0.408   1.219  15.223  0.0687  0.4578  0.1084
17396TIP3    H273604   0.461   1.345  15.159  0.1378  1.7682  2.6813
17397TIP3   OH273605   2.083   0.450   2.742  0.2154  0.3651 -0.3243
17397TIP3    H173606   2.124   0.363   2.747 -2.4759 -1.0197 -1.3138
17397TIP3    H273607   2.067   0.474   2.834 -0.3519 -0.8312 -0.1077
17398TIP3   OH273608   5.983   4.712  12.297  0.3541 -0.3277 -0.0160
17398TIP3    H173609   6.075   4.713  12.323  0.1965  0.7969  0.5489
17398TIP3    H273610   5.985   4.700  12.202  1.0773 -0.6084  0.0326
17399TIP3   OH273611   1.273   4.332   4.199  0.5837 -0.8945 -0.4665
17399TIP3    H173612   1.254   4.246   4.161  1.3732 -1.1161 -0.3691
17399TIP3    H273613   1.230   4.331   4.284  0.0754 -0.9617 -0.7227
17400TIP3   OH273614   2.951   0.551   6.303 -0.8419  0.6421  0.0380
17400TIP3    H173615   3.012   0.477   6.303 -1.2348  0.2924  1.8165
17400TIP3    H273616   2.866   0.513   6.279 -0.3939  1.1364 -2.4822
17401TIP3   OH273617   2.171   2.562   3.613 -0.7778  0.0700  0.0660
17401TIP3    H173618   2.181   2.479   3.661  1.0761  0.9516  1.2879
17401TIP3    H273619   2.238   2.619   3.651 -0.4450  1.3736 -2.4092
17402TIP3   OH273620   5.257   4.976   4.467 -0.1667 -0.1351 -0.2494
17402TIP3    H173621   5.252   4.974   4.371  2.8968  0.1298 -0.4744
17402TIP3    H273622   5.202   5.051   4.492  0.6555  1.0728 -1.9589
17403TIP3   OH273623   0.127   6.167   4.563  0.1883  0.0847  0.0199
17403TIP3    H173624   0.041   6.174   4.605 -0.1967 -0.2246 -0.7100
17403TIP3    H273625   0.166   6.088   4.602  0.6190  0.8647  1.1957
17404TIP3   OH273626   2.737   4.211  14.046  0.4552  0.0339  0.6327
17404TIP3    H173627   2.657   4.165  14.073  0.4335 -0.3230 -0.0274
17404TIP3    H273628   2.808   4.157  14.079  0.4260 -0.1911  0.3306
17405TIP3   OH273629   1.448   6.415  10.759  0.0077 -0.5551 -0.1613
17405TIP3    H173630   1.402   6.362  10.824  1.1565  0.0749  1.2082
17405TIP3    H273631   1.535   6.376  10.752  1.0542  1.3853  1.2583
17406TIP3   OH273632   5.323   3.240  16.304 -0.2356  0.2430  0.1225
17406TIP3    H173633   5.314   3.335  16.291  1.2338  0.4242  0.3632
17406TIP3    H273634   5.396   3.215  16.248  0.4328 -0.4686  1.2942
17407TIP3   OH273635   4.074   1.244  13.612 -0.3817 -0.8838  0.7945
17407TIP3    H173636   4.048   1.316  13.554 -2.3405 -1.5090  0.8501
17407TIP3    H273637   4.031   1.263  13.695 -0.2004 -1.6599  1.0743
17408TIP3   OH273638   4.235   0.467  16.958  0.1509 -0.3261 -0.3708
17408TIP3    H173639   4.176   0.511  17.018  0.5196  0.7021 -0.7476
17408TIP3    H273640   4.317   0.456  17.007  0.0007 -0.7478 -0.2143
17409TIP3   OH273641   0.185   3.093   4.020  0.5829 -0.3140  0.1586
17409TIP3    H173642   0.123   3.124   3.954  1.5873 -0.8911 -1.0938
17409TIP3    H273643   0.249   3.042   3.970  2.1014  0.3230  1.4117
17410TIP3   OH273644   1.767   5.922   0.810  0.2496 -0.1095  0.5877
17410TIP3    H173645   1.846   5.967   0.780  1.6261 -2.7806 -0.0295
17410TIP3    H273646   1.785   5.900   0.901 -0.3641  0.4695  0.8532
17411TIP3   OH273647   5.320   3.234  11.306 -0.2942  0.2361 -0.3318
17411TIP3    H173648   5.331   3.156  11.251  0.1798 -0.6304  0.9656
17411TIP3    H273649   5.409   3.264  11.323 -0.3880 -0.0993  0.7892
17412TIP3   OH273650   6.231   4.838  16.043 -0.1921  0.2453 -0.0614
17412TIP3    H173651   6.225   4.789  16.125 -0.0366 -0.2665 -0.3557
17412TIP3    H273652   6.324   4.856  16.031  0.1974 -2.6010 -1.8244
17413TIP3   OH273653   0.463   4.428  13.525  0.7330 -0.1236  0.2374
17413TIP3    H173654   0.374   4.454  13.498  0.6719 -0.0056  0.5537
17413TIP3    H273655   0.482   4.482  13.601  1.1238 -0.0684  0.1019
17414TIP3   OH273656   5.373   0.852  16.289  0.1355 -0.2965  0.3366
17414TIP3    H173657   5.387   0.932  16.238 -2.0514  1.1426  1.8822
17414TIP3    H273658   5.427   0.864  16.367  0.9868 -1.0374 -0.1311
17415TIP3   OH273659   1.282   3.336   5.659 -0.7164 -0.7780  0.3267
17415TIP3    H173660   1.352   3.272   5.649 -0.5378 -0.6426  0.7263
17415TIP3    H273661   1.206   3.283   5.686 -1.3250 -1.2164 -2.0987
17416TIP3   OH273662   0.891   1.399   5.985 -0.1885 -0.4111 -0.6908
17416TIP3    H173663   0.954   1.449   6.038  2.0724 -0.5667 -3.1136
17416TIP3    H273664   0.806   1.438   6.005  0.7437  0.2428  2.1987
17417TIP3   OH273665   6.649   0.491  11.172  0.1070 -0.4299  0.7290
17417TIP3    H173666   6.657   0.537  11.256 -1.3737  1.5923 -0.1877
17417TIP3    H273667   6.710   0.536  11.114 -0.4368 -0.4111  0.1630
17418TIP3   OH273668   6.492   5.074   6.618 -0.1297 -0.2489  0.2206
17418TIP3    H173669   6.450   5.019   6.684  1.8010 -1.2033  0.7028
17418TIP3    H273670   6.485   5.163   6.653 -0.2736 -0.5948  1.0984
17419TIP3   OH273671   1.915   4.498  13.864  0.2781  0.5641 -0.5999
17419TIP3    H173672   1.858   4.477  13.938  0.9546 -0.5737 -0.4002
17419TIP3    H273673   1.933   4.592  13.874  1.8984  0.0478  1.7698
17420TIP3   OH273674   6.264   6.154  17.160 -0.2779  0.2985  0.0123
17420TIP3    H173675   6.349   6.160  17.203  0.5947  0.5554 -1.7002
17420TIP3    H273676   6.213   6.094  17.215  0.5516  1.1618  1.7638
17421TIP3   OH273677   4.703   1.472  13.352  0.0215  0.2720  0.9591
17421TIP3    H173678   4.790   1.488  13.390  0.1590 -0.2999  0.8792
17421TIP3    H273679   4.692   1.377  13.357  0.0175  0.1970 -0.3846
17422TIP3   OH273680   3.944   0.377  14.900  0.3212  0.6413  0.4874
17422TIP3    H173681   3.941   0.321  14.822 -0.0071 -0.1107  1.0312
17422TIP3    H273682   3.897   0.327  14.967  0.5007  1.3313  1.1353
17423TIP3   OH273683   5.457   4.698   4.155 -0.1038 -0.1627 -0.3794
17423TIP3    H173684   5.483   4.751   4.230 -0.9549 -1.3380  0.7669
17423TIP3    H273685   5.470   4.607   4.184  0.8956 -0.6216 -2.1439
17424TIP3   OH273686   4.339   2.154   4.428  0.5205  0.0321  0.2220
17424TIP3    H173687   4.372   2.064   4.435  2.4720  0.8454  2.0745
17424TIP3    H273688   4.245   2.146   4.442  0.7731 -1.6515  1.0666
17425TIP3   OH273689   0.225   2.467  13.054 -0.1696 -0.0454  0.4183
17425TIP3    H173690   0.183   2.476  13.140 -1.3333 -2.2314  0.1195
17425TIP3    H273691   0.189   2.538  13.002 -2.5466 -1.1005  0.5646
17426TIP3   OH273692   1.263   6.750  16.298  0.3289  0.1845 -0.0090
17426TIP3    H173693   1.326   6.714  16.236 -0.6388  0.1102 -0.9540
17426TIP3    H273694   1.179   6.750  16.251 -0.6804 -1.0854  1.7381
17427TIP3   OH273695   3.833   3.460  16.120 -0.3805  0.6946 -0.0703
17427TIP3    H173696   3.814   3.526  16.188 -1.2162  0.4635 -0.0737
17427TIP3    H273697   3.893   3.504  16.060  0.4340  0.8739  0.8705
17428TIP3   OH273698   4.226   0.815  13.756  0.7338  0.1352 -0.0134
17428TIP3    H173699   4.217   0.757  13.832  1.3741  1.3361  0.9924
17428TIP3    H273700   4.253   0.757  13.685  2.4320 -0.6477  1.2402
17429TIP3   OH273701   4.769   4.945   1.995  0.5489  0.3296  0.0224
17429TIP3    H173702   4.749   4.970   1.905  2.6527  0.7930 -0.3423
17429TIP3    H273703   4.793   4.852   1.989 -1.5502 -0.2922  0.4989
17430TIP3   OH273704   2.163   2.867   3.363 -0.6915 -0.2405 -0.0470
17430TIP3    H173705   2.166   2.877   3.268  1.9134  0.1921  0.0371
17430TIP3    H273706   2.107   2.791   3.378 -0.2313 -0.9878 -1.9820
17431TIP3   OH273707   2.767   0.121  12.781  0.3339 -0.0016  0.0581
17431TIP3    H173708   2.825   0.161  12.716 -0.5755  1.7643  0.3341
17431TIP3    H273709   2.752   0.032  12.747  2.7879 -0.3241 -0.2611
17432TIP3   OH273710   6.650   1.701  16.352  0.5837 -0.7524 -0.6530
17432TIP3    H173711   6.656   1.664  16.440  1.1045 -1.0523 -0.8087
17432TIP3    H273712   6.682   1.631  16.295  0.4530 -0.4803 -1.0573
17433TIP3   OH273713   2.636   0.498   1.194  0.4872 -0.2891  0.0254
17433TIP3    H173714   2.583   0.490   1.273  0.7235 -0.8532  0.1242
17433TIP3    H273715   2.572   0.519   1.125  0.1811 -0.6002  0.2134
17434TIP3   OH273716   6.507   1.279   5.323  0.4297 -0.3914 -0.0950
17434TIP3    H173717   6.527   1.372   5.312  0.4348 -0.4006 -0.1607
17434TIP3    H273718   6.441   1.261   5.255  1.2411 -0.6946 -0.8076
17435TIP3   OH273719   4.005   0.258  14.143  0.0043 -0.3692 -0.1680
17435TIP3    H173720   4.065   0.184  14.146  1.1615  0.5615  0.7844
17435TIP3    H273721   3.954   0.251  14.223  2.1706  1.4649  1.4554
17436TIP3   OH273722   1.353   6.459  11.687 -0.4651 -0.0089 -0.2632
17436TIP3    H173723   1.291   6.461  11.614 -0.2771  0.7930 -0.4044
17436TIP3    H273724   1.408   6.382  11.669 -1.3267 -0.6451 -0.2019
17437TIP3   OH273725   6.407   6.008   0.909  0.1107  0.0749  0.4709
17437TIP3    H173726   6.336   5.968   0.859 -0.6138 -1.3573  2.5546
17437TIP3    H273727   6.378   6.098   0.923 -0.2863  0.1144 -0.5240
17438TIP3   OH273728   2.409   0.827  15.762 -0.6939  0.1620 -0.0481
17438TIP3    H173729   2.354   0.847  15.687 -0.4885  0.9307  0.0025
17438TIP3    H273730   2.429   0.912  15.801  0.0350 -0.1489  0.2787
17439TIP3   OH273731   3.504   2.910  14.326  0.0224 -0.0792  0.4513
17439TIP3    H173732   3.562   2.884  14.398 -2.1693 -1.9797  1.6139
17439TIP3    H273733   3.424   2.939  14.369 -1.0788 -0.5929 -1.2087
17440TIP3   OH273734   0.416   3.772  16.879 -0.1368  0.8957 -0.7400
17440TIP3    H173735   0.350   3.712  16.845  0.4490  0.4610 -1.1162
17440TIP3    H273736   0.397   3.779  16.972 -0.4193  0.4049 -0.7595
17441TIP3   OH273737   2.707   5.784   1.219  0.0851  0.1914 -0.0458
17441TIP3    H173738   2.713   5.832   1.136  1.3155  2.1166  1.1139
17441TIP3    H273739   2.630   5.820   1.263 -1.2917 -1.6896 -0.8427
17442TIP3   OH273740   3.606   2.427  16.075 -0.2022  0.4245 -0.1211
17442TIP3    H173741   3.520   2.465  16.056 -0.0555  1.7101  1.6211
17442TIP3    H273742   3.587   2.337  16.102 -1.2117  1.2342  1.9873
17443TIP3   OH273743   3.578   3.874  11.127  0.4445 -0.2343 -0.1367
17443TIP3    H173744   3.661   3.875  11.079  0.3298  0.6265 -0.3241
17443TIP3    H273745   3.523   3.813  11.078  0.3709  0.5352 -1.0388
17444TIP3   OH273746   0.881   6.472   3.935 -0.2425 -0.1911 -0.4743
17444TIP3    H173747   0.889   6.378   3.918  0.7116 -0.2377  0.2165
17444TIP3    H273748   0.929   6.513   3.863 -0.8247 -0.2163 -0.8850
17445TIP3   OH273749   3.161   4.455  13.252 -0.3490  0.0046 -0.1047
17445TIP3    H173750   3.210   4.453  13.170  1.5377 -1.7887  1.0118
17445TIP3    H273751   3.159   4.364  13.281  0.3403  0.7937  2.5577
17446TIP3   OH273752   2.095   3.090  15.134  0.0413 -0.1163  0.7114
17446TIP3    H173753   2.109   3.172  15.086  0.7464 -0.3080  0.5909
17446TIP3    H273754   2.001   3.090  15.153 -0.0518  0.4861  0.2855
17447TIP3   OH273755   3.597   1.623   3.109  0.5869  0.2347  0.4423
17447TIP3    H173756   3.686   1.657   3.120  0.3496  1.0172  0.0069
17447TIP3    H273757   3.545   1.669   3.175  0.4868 -0.1481  0.6323
17448TIP3   OH273758   0.753   5.086  13.675  0.2384  0.0792 -0.5344
17448TIP3    H173759   0.711   5.127  13.752 -0.8376 -1.5583 -0.2289
17448TIP3    H273760   0.811   5.020  13.712  0.5422  0.0226 -1.1075
17449TIP3   OH273761   1.271   4.734   4.514 -0.7407  0.1827  0.3836
17449TIP3    H173762   1.187   4.689   4.515 -0.2744 -0.8187 -1.7180
17449TIP3    H273763   1.290   4.746   4.420  0.7180  1.7762  0.8557
17450TIP3   OH273764   5.560   2.156  14.687 -0.2557 -0.5332 -0.4236
17450TIP3    H173765   5.581   2.146  14.779 -0.7873  4.2844  0.3425
17450TIP3    H273766   5.465   2.157  14.683 -0.2408 -1.0049 -1.0872
17451TIP3   OH273767   4.504   0.382  11.853 -0.3531  0.0518  0.4137
17451TIP3    H173768   4.430   0.355  11.798 -0.9928 -0.3691  1.4763
17451TIP3    H273769   4.581   0.364  11.799 -0.8546 -2.3922  0.4536
17452TIP3   OH273770   6.260   2.701  16.328 -0.6412 -0.2371  0.5068
17452TIP3    H173771   6.186   2.641  16.331  1.5915 -3.0755  1.7862
17452TIP3    H273772   6.282   2.708  16.235 -1.6455 -0.5133  0.2493
17453TIP3   OH273773   4.928   4.111  15.002  0.6563  0.3692  0.3238
17453TIP3    H173774   4.949   4.195  15.042  1.1923  1.4782 -2.2068
17453TIP3    H273775   4.852   4.128  14.947  0.8199 -0.7818 -0.2787
17454TIP3   OH273776   1.888   1.969   3.721 -0.0049  0.1749  0.2116
17454TIP3    H173777   1.878   1.935   3.810  2.0079 -1.9189 -0.2794
17454TIP3    H273778   1.805   1.949   3.678  0.7232 -3.4759  0.2524
17455TIP3   OH273779   1.653   3.143  11.907  0.4900 -0.0904  0.2193
17455TIP3    H173780   1.637   3.201  11.833  0.3969  1.1807  1.2191
17455TIP3    H273781   1.569   3.140  11.954  0.5537 -0.8764  0.2958
17456TIP3   OH273782   0.298   4.840  16.727  0.4183  0.2061 -0.2451
17456TIP3    H173783   0.386   4.875  16.741  0.7908 -1.1471  0.9787
17456TIP3    H273784   0.305   4.787  16.648  0.2448  1.5576 -1.1792
17457TIP3   OH273785   6.721   4.979   5.840  0.2813 -0.0403  0.0449
17457TIP3    H173786   6.742   4.954   5.750 -0.7474 -1.4391  0.1774
17457TIP3    H273787   6.790   5.041   5.864 -0.1197  1.3085 -2.1189
17458TIP3   OH273788   5.005   1.751   4.677 -0.0844  0.2037 -0.1152
17458TIP3    H173789   4.945   1.692   4.722 -0.0616  1.2651  1.3275
17458TIP3    H273790   4.977   1.747   4.585 -1.7950 -0.0161  0.3896
17459TIP3   OH273791   6.288   0.815   0.696 -0.2791 -0.0437  0.4470
17459TIP3    H173792   6.291   0.757   0.620  1.4443  0.7602 -0.1260
17459TIP3    H273793   6.306   0.758   0.771 -0.1752 -0.5302  0.0532
17460TIP3   OH273794   6.059   5.965  14.721 -0.8726  0.1281  0.2273
17460TIP3    H173795   6.076   6.039  14.664 -1.2592 -0.0784 -0.1586
17460TIP3    H273796   5.964   5.962  14.729 -0.9619 -1.3652 -1.1586
17461TIP3   OH273797   2.665   5.778  16.356  0.3054 -0.2999  0.3024
17461TIP3    H173798   2.639   5.689  16.332 -1.0912 -0.5598  2.6253
17461TIP3    H273799   2.621   5.794  16.440 -0.9503  3.2651 -0.9697
17462TIP3   OH273800   3.640   1.163  10.895  0.6554 -0.0910  0.1174
17462TIP3    H173801   3.559   1.159  10.845  0.3647 -0.8658  0.6397
17462TIP3    H273802   3.616   1.203  10.978  0.4913 -1.6854  0.8570
17463TIP3   OH273803   3.057   4.991   0.134  0.2383 -0.0923 -0.1938
17463TIP3    H173804   3.096   4.918   0.086  1.5466  1.1163 -0.9734
17463TIP3    H273805   2.985   4.951   0.184 -1.0179 -1.3948 -2.9707
17464TIP3   OH273806   3.285   5.893  12.964 -0.0337 -0.2564 -0.3314
17464TIP3    H173807   3.191   5.905  12.949 -0.2853  1.4105  2.2607
17464TIP3    H273808   3.292   5.805  13.001 -0.9274  0.6614  2.0855
17465TIP3   OH273809   0.970   5.458   2.068 -0.0550  0.1913  0.9117
17465TIP3    H173810   1.024   5.536   2.056 -1.1696  0.9200  0.5933
17465TIP3    H273811   0.984   5.433   2.160 -0.4494  1.3299  1.2839
17466TIP3   OH273812   5.178   1.162  17.034  0.3157  0.1036 -0.1001
17466TIP3    H173813   5.085   1.166  17.057 -0.4171  0.0767 -2.8864
17466TIP3    H273814   5.208   1.078  17.069 -1.3609 -1.0567 -1.3719
17467TIP3   OH273815   0.558   1.254   6.014  0.1721  0.1051 -0.2870
17467TIP3    H173816   0.572   1.334   6.066 -0.0662  0.4002 -0.6776
17467TIP3    H273817   0.608   1.187   6.061  0.0704  0.3987  0.2524
17468TIP3   OH273818   1.077   0.629   3.981 -0.6359  0.4030 -0.2659
17468TIP3    H173819   1.170   0.640   3.965 -0.1334 -0.6654  1.7348
17468TIP3    H273820   1.039   0.612   3.895  0.9565  1.1635 -1.1380
17469TIP3   OH273821   0.770   2.854  13.630 -0.3357 -0.2421  0.0141
17469TIP3    H173822   0.719   2.780  13.661  0.5264  0.0070  2.1354
17469TIP3    H273823   0.817   2.885  13.707  0.4043  1.6409 -1.1420
17470TIP3   OH273824   4.329   1.865  15.013  0.2700  0.0375  0.6349
17470TIP3    H173825   4.365   1.778  14.995 -0.2001 -0.2282  0.9608
17470TIP3    H273826   4.259   1.849  15.077  0.7910  0.7601  1.3987
17471TIP3   OH273827   2.417   2.261   2.883  0.5144 -0.7901 -0.2746
17471TIP3    H173828   2.410   2.315   2.963  0.3265  1.1771 -1.5816
17471TIP3    H273829   2.488   2.200   2.902  0.1806 -0.6487  1.5678
17472TIP3   OH273830   3.660   2.430  14.590  1.0179  0.6322  0.4324
17472TIP3    H173831   3.713   2.450  14.667  0.0616 -0.7732  1.4831
17472TIP3    H273832   3.708   2.359  14.546  1.6723  1.5737 -0.4034
17473TIP3   OH273833   0.797   2.527  16.247  0.0581 -0.4093 -0.8407
17473TIP3    H173834   0.713   2.562  16.275 -0.4621 -1.4587 -1.0885
17473TIP3    H273835   0.861   2.594  16.274 -0.9284  0.7987 -1.4372
17474TIP3   OH273836   0.451   1.486  16.484  0.3891  0.5137 -0.1716
17474TIP3    H173837   0.510   1.412  16.470  0.3055 -0.2500  3.1080
17474TIP3    H273838   0.509   1.559  16.507  0.2157  0.2325  1.2228
17475TIP3   OH273839   4.986   1.261  14.838 -0.3282  0.3886  0.0570
17475TIP3    H173840   5.059   1.310  14.800 -0.3749 -1.3835 -2.4705
17475TIP3    H273841   4.938   1.325  14.890  0.7840  2.4992 -1.4508
17476TIP3   OH273842   0.646   1.441   5.679  0.1435 -0.2856 -0.5323
17476TIP3    H173843   0.640   1.461   5.585 -0.8496  2.6231  0.1215
17476TIP3    H273844   0.556   1.423   5.705  0.3011 -0.2230  0.0536
17477TIP3   OH273845   2.713   0.733  16.927 -0.4061  0.2535  0.4054
17477TIP3    H173846   2.628   0.738  16.884 -0.9311 -1.4087  1.1996
17477TIP3    H273847   2.702   0.665  16.993  1.9749 -1.0514 -0.4906
17478TIP3   OH273848   1.063   3.013  13.526  0.1355 -0.4007 -0.0698
17478TIP3    H173849   1.030   3.036  13.613 -1.5666 -0.6623 -0.6266
17478TIP3    H273850   0.997   2.955  13.490  1.6845 -1.6908 -0.8774
17479TIP3   OH273851   0.870   0.757   5.549 -0.3820 -0.2059 -0.1151
17479TIP3    H173852   0.901   0.792   5.466 -0.4794 -0.5838 -0.3135
17479TIP3    H273853   0.855   0.834   5.604  0.7710 -0.0056 -0.0607
17480TIP3   OH273854   2.569   3.631   2.496 -0.0477  0.3349  0.4928
17480TIP3    H173855   2.614   3.552   2.469 -1.3211 -1.0334  2.2619
17480TIP3    H273856   2.526   3.663   2.417  1.3006 -0.1577 -0.4533
17481TIP3   OH273857   0.721   0.453  11.553  0.4248 -0.0740  0.0323
17481TIP3    H173858   0.734   0.538  11.513 -0.0466 -0.6151 -1.2840
17481TIP3    H273859   0.655   0.468  11.621 -0.5147  0.3672 -0.9820
17482TIP3   OH273860   3.736   4.031  11.819 -0.4498  0.7235 -0.3767
17482TIP3    H173861   3.655   4.046  11.868  0.2937  1.1948  0.7408
17482TIP3    H273862   3.795   4.100  11.850  1.2994 -1.2669  0.9000
17483TIP3   OH273863   4.028   5.467  11.533  0.1768  0.0653  0.2979
17483TIP3    H173864   3.987   5.519  11.464 -0.0261 -0.5275 -0.0422
17483TIP3    H273865   3.973   5.479  11.610 -0.8116 -0.9741 -0.2417
17484TIP3   OH273866   2.465   3.907   0.037 -0.1572 -0.0397  0.0020
17484TIP3    H173867   2.487   3.931  -0.053 -0.0103  0.5574  0.1951
17484TIP3    H273868   2.371   3.924   0.045  0.1266  1.3664  0.4141
17485TIP3   OH273869   1.270   1.793   6.364  0.2129 -0.1707 -0.6690
17485TIP3    H173870   1.331   1.853   6.322  1.3930 -0.6096  0.3910
17485TIP3    H273871   1.190   1.845   6.376  1.0690  1.0474 -0.1645
17486TIP3   OH273872   6.736   4.464   2.460 -0.4868 -1.0973  0.4454
17486TIP3    H173873   6.791   4.535   2.427  0.9157 -2.0218  0.7425
17486TIP3    H273874   6.770   4.447   2.548 -0.4972 -2.4528  0.1898
17487TIP3   OH273875   4.346   3.104   4.595  0.0208 -0.1146  0.2873
17487TIP3    H173876   4.342   3.197   4.618  0.4374 -0.0721  0.1863
17487TIP3    H273877   4.405   3.100   4.520 -0.7090 -0.3506 -0.2757
17488TIP3   OH273878   0.304   1.072  16.806 -0.0907 -0.6664 -0.2104
17488TIP3    H173879   0.324   1.118  16.725 -0.1814 -0.7833 -0.3004
17488TIP3    H273880   0.292   1.141  16.871  0.3498 -0.5856 -0.2144
17489TIP3   OH273881   2.812   1.462  11.590  0.0111  0.4561  0.0108
17489TIP3    H173882   2.870   1.421  11.527 -1.3674 -0.3182 -0.7607
17489TIP3    H273883   2.843   1.431  11.675  0.2905 -0.4905 -0.4378
17490TIP3   OH273884   4.420   2.476   2.185  0.1864  0.2615 -0.5012
17490TIP3    H173885   4.513   2.502   2.187  0.2413  0.0118  0.3121
17490TIP3    H273886   4.422   2.380   2.184 -0.0516  0.2639 -1.3486
17491TIP3   OH273887   0.460   4.617  10.702  0.0073  0.0408 -0.4968
17491TIP3    H173888   0.407   4.554  10.652 -0.9715  1.2540 -1.0424
17491TIP3    H273889   0.536   4.633  10.646 -0.2415  0.0941 -0.8282
17492TIP3   OH273890   2.799   4.039   4.107  0.0478 -0.1703 -0.0721
17492TIP3    H173891   2.863   3.970   4.126  0.8169  0.6691  0.3756
17492TIP3    H273892   2.850   4.111   4.071 -0.4962  0.9431  1.3434
17493TIP3   OH273893   5.221   1.007  12.607  0.0799 -0.6526  0.0604
17493TIP3    H173894   5.229   0.958  12.689  0.5964 -0.9477 -0.1594
17493TIP3    H273895   5.301   0.985  12.559 -0.2143 -0.4722 -0.5173
17494TIP3   OH273896   4.595   0.688  15.092 -0.0226  0.1712  0.5068
17494TIP3    H173897   4.610   0.608  15.143  1.5559 -0.7659 -1.3669
17494TIP3    H273898   4.607   0.759  15.154  1.7129 -0.9476  1.4759
17495TIP3   OH273899   1.518   3.839   2.865  0.4012 -0.6103 -0.0309
17495TIP3    H173900   1.503   3.753   2.904  0.7861  0.1488  1.8364
17495TIP3    H273901   1.599   3.828   2.815 -0.4431 -1.7649 -1.1821
17496TIP3   OH273902   4.168   4.457  13.058 -0.6713  0.1703 -0.3661
17496TIP3    H173903   4.165   4.361  13.056 -1.6636  0.1631  0.9720
17496TIP3    H273904   4.213   4.477  13.140 -0.8974  0.8640 -0.4119
17497TIP3   OH273905   1.487   6.034   3.955 -0.1327  0.1718  0.1680
17497TIP3    H173906   1.478   6.123   3.921 -0.5956  0.2378  0.4670
17497TIP3    H273907   1.432   6.032   4.033 -0.1880 -0.4025  0.1152
17498TIP3   OH273908   2.477   3.704   3.333 -0.1195 -0.6366  0.0741
17498TIP3    H173909   2.403   3.765   3.345  0.7377  0.6326 -0.9522
17498TIP3    H273910   2.442   3.636   3.276 -0.1413  0.6588 -1.5094
17499TIP3   OH273911   4.255   3.710  12.464  0.2732 -0.2864 -0.3512
17499TIP3    H173912   4.332   3.730  12.411  0.9276  0.2485  0.7732
17499TIP3    H273913   4.217   3.796  12.485  0.0942 -0.4795  0.1330
17500TIP3   OH273914   5.145   4.184   4.030  0.0861  0.9008  0.0547
17500TIP3    H173915   5.206   4.198   3.958  0.2352  0.6127  0.1249
17500TIP3    H273916   5.187   4.223   4.106  0.2528  0.5633  0.1352
17501TIP3   OH273917   5.901   3.891   4.893 -0.0888 -0.2482  0.0676
17501TIP3    H173918   5.935   3.865   4.807  0.7802  0.3343  0.2242
17501TIP3    H273919   5.912   3.814   4.948  0.1960 -0.3354 -0.1104
17502TIP3   OH273920   5.478   2.072  16.892 -0.4688 -0.0344  0.2246
17502TIP3    H173921   5.446   2.131  16.960 -2.5234  0.7884 -1.4110
17502TIP3    H273922   5.452   2.114  16.810  0.8384 -1.6528 -1.0547
17503TIP3   OH273923   5.828   6.122  16.931  0.3289 -0.2726 -0.2170
17503TIP3    H173924   5.811   6.065  16.856  2.4148  0.6431 -1.4194
17503TIP3    H273925   5.885   6.070  16.987  0.7336 -0.0461 -0.4240
17504TIP3   OH273926   4.322   2.496  15.805  1.1820  0.2880 -0.3104
17504TIP3    H173927   4.394   2.557  15.823  0.7049  0.2324  1.9026
17504TIP3    H273928   4.318   2.439  15.882 -3.0373  2.0935  0.9629
17505TIP3   OH273929   6.405   2.948  13.387 -0.0194 -0.0876  0.1727
17505TIP3    H173930   6.492   2.957  13.349 -0.5144 -0.8858 -1.2161
17505TIP3    H273931   6.411   2.873  13.445 -0.0112 -0.7254 -0.6448
17506TIP3   OH273932   3.455   6.373  10.627 -0.1556 -0.3415  0.0998
17506TIP3    H173933   3.539   6.404  10.595  0.2248 -1.3552  0.1197
17506TIP3    H273934   3.391   6.427  10.581  0.4851  0.1575 -0.2147
17507TIP3   OH273935   2.132   2.426   2.871  0.0936 -0.4731  0.0712
17507TIP3    H173936   2.160   2.427   2.780  0.6321  1.0785  0.2337
17507TIP3    H273937   2.056   2.484   2.874 -0.6996 -1.5008  0.3942
17508TIP3   OH273938   3.250   4.170  13.260  0.4055  0.5208  0.0042
17508TIP3    H173939   3.172   4.134  13.217  1.3036 -1.5945  0.0570
17508TIP3    H273940   3.236   4.152  13.353  0.3641  1.3285  0.1566
17509TIP3   OH273941   0.125   4.971  11.723 -0.2666 -0.0074 -0.0971
17509TIP3    H173942   0.198   4.909  11.725 -2.0383 -2.1493  0.3437
17509TIP3    H273943   0.085   4.963  11.809 -1.4430  0.6343 -0.5836
17510TIP3   OH273944   3.050   4.287   5.609 -0.4497  0.2613 -0.4241
17510TIP3    H173945   3.109   4.351   5.650 -1.3533 -0.4810  2.1536
17510TIP3    H273946   2.965   4.304   5.650 -1.2438 -0.9336 -1.5633
17511TIP3   OH273947   2.880   4.916   4.429  0.0275 -0.0624  0.3459
17511TIP3    H173948   2.824   4.869   4.367  0.4402 -1.3683  0.9397
17511TIP3    H273949   2.858   5.008   4.417  0.7997 -0.1843 -2.4670
17512TIP3   OH273950   1.245   2.983  16.588  0.6837 -0.3761  0.4772
17512TIP3    H173951   1.162   2.965  16.632  0.4825 -1.1751 -0.2393
17512TIP3    H273952   1.289   2.898  16.582  0.5040 -0.3639 -1.3014
17513TIP3   OH273953   3.232   2.997  15.647 -0.0290  0.1553  0.0250
17513TIP3    H173954   3.261   3.023  15.735  0.0260 -0.2400  0.1264
17513TIP3    H273955   3.284   3.051  15.587  0.4409 -0.0755  0.2190
17514TIP3   OH273956   1.597   0.359  12.385 -0.1070 -0.3888 -0.1094
17514TIP3    H173957   1.568   0.409  12.462 -0.1539 -2.0130  0.9436
17514TIP3    H273958   1.689   0.381  12.376 -0.3931  0.7756 -0.3545
17515TIP3   OH273959   3.541   4.783   0.548  0.4782 -0.0102  0.0410
17515TIP3    H173960   3.515   4.793   0.457 -0.4724 -0.3570  0.2657
17515TIP3    H273961   3.484   4.712   0.582  0.5329  0.3922  0.9997
17516TIP3   OH273962   6.089   3.259   4.752  0.2969 -0.2032  0.6761
17516TIP3    H173963   6.005   3.306   4.746 -0.8882 -2.3028  0.2817
17516TIP3    H273964   6.087   3.219   4.839 -0.4379 -2.6237 -0.4128
17517TIP3   OH273965   1.871   1.206  11.598  0.0782 -0.2047  0.1251
17517TIP3    H173966   1.835   1.294  11.586  2.6975  0.6106 -2.2993
17517TIP3    H273967   1.799   1.147  11.573 -1.3935  1.2150  0.8931
17518TIP3   OH273968   6.173   5.997   1.942 -0.3633  0.2725 -0.7548
17518TIP3    H173969   6.210   5.929   1.998  1.1993 -0.6233 -2.8085
17518TIP3    H273970   6.246   6.056   1.924 -1.1041  1.1243 -0.9697
17519TIP3   OH273971   1.611   1.842   2.956 -0.4156 -0.0453  0.3855
17519TIP3    H173972   1.672   1.884   2.896 -1.6600 -0.0654 -0.9232
17519TIP3    H273973   1.619   1.749   2.937 -2.0641  0.0591 -1.0301
17520TIP3   OH273974   6.703   0.558   0.257  0.3135 -0.3321  0.0971
17520TIP3    H173975   6.716   0.593   0.169 -0.7849  0.1236  0.1100
17520TIP3    H273976   6.630   0.496   0.249  1.9433 -2.3264  0.1664
17521TIP3   OH273977   0.920   6.735  11.596 -0.2094 -0.2808  0.2182
17521TIP3    H173978   0.948   6.811  11.646  0.8935 -0.5383 -0.0061
17521TIP3    H273979   0.832   6.759  11.565  0.4943  1.2979 -0.6461
17522TIP3   OH273980   4.151   1.421  14.710  0.7120 -0.4291  0.3264
17522TIP3    H173981   4.091   1.408  14.783  0.5304 -1.8517 -0.0564
17522TIP3    H273982   4.095   1.441  14.635  0.8944  0.9922  0.5574
17523TIP3   OH273983   0.161   4.997   1.290 -0.1002  0.1131  0.9053
17523TIP3    H173984   0.251   5.010   1.321 -0.4337  1.5964  1.3103
17523TIP3    H273985   0.170   4.946   1.210  1.1904  1.0763  0.4134
17524TIP3   OH273986   3.096   3.640   3.353 -0.0743 -0.0843  0.5403
17524TIP3    H173987   3.088   3.703   3.425 -0.8990  1.1656 -0.6026
17524TIP3    H273988   3.159   3.681   3.293  1.3499 -1.5649  0.9832
17525TIP3   OH273989   0.599   6.105   5.621  0.1001 -0.0254 -0.2404
17525TIP3    H173990   0.550   6.024   5.638  0.5973 -0.3385 -0.2748
17525TIP3    H273991   0.567   6.166   5.687 -0.2139 -0.2783 -0.1540
17526TIP3   OH273992   3.314   3.574   3.732  0.0117  0.1855 -0.2662
17526TIP3    H173993   3.255   3.540   3.665 -1.5324  1.3021  0.5122
17526TIP3    H273994   3.396   3.591   3.685 -0.3735 -1.0205 -1.4203
17527TIP3   OH273995   4.232   2.039   3.655 -0.3752 -0.0336 -0.3982
17527TIP3    H173996   4.221   2.008   3.744  0.9375 -1.6113 -0.7767
17527TIP3    H273997   4.261   2.130   3.664  0.1649 -0.3255  0.7711
17528TIP3   OH273998   2.857   2.210  16.259 -0.3175  0.7899 -0.5578
17528TIP3    H173999   2.952   2.198  16.251 -0.1452  2.3555 -0.9604
17528TIP3    H274000   2.838   2.187  16.351 -0.0186 -2.3208 -1.1938
17529TIP3   OH274001   3.213   3.299   5.275 -0.0159 -0.5416  0.2804
17529TIP3    H174002   3.199   3.204   5.276  0.6601 -0.6464  0.6632
17529TIP3    H274003   3.287   3.312   5.216 -1.3437 -0.0583 -1.2939
17530TIP3   OH274004   1.413   0.074   0.532 -0.2600  0.3748  0.0112
17530TIP3    H174005   1.446   0.070   0.443 -1.5940  1.3634 -0.5351
17530TIP3    H274006   1.488   0.049   0.587  1.1140  1.6916 -1.2454
17531TIP3   OH274007   5.308   0.318   1.179 -0.0751  0.7156  0.1010
17531TIP3    H174008   5.275   0.408   1.189 -3.2593 -0.4130  0.3190
17531TIP3    H274009   5.380   0.311   1.242 -0.4344  2.8056  0.7757
17532TIP3   OH274010   0.798   1.728  12.012  0.0701 -0.0485 -0.0959
17532TIP3    H174011   0.743   1.746  11.935 -1.4754  1.1418  1.2440
17532TIP3    H274012   0.882   1.770  11.992 -0.6605  1.1450 -0.7161
17533TIP3   OH274013   3.868   0.483   5.311 -0.5430 -0.4568 -0.0064
17533TIP3    H174014   3.860   0.509   5.403 -0.8304  0.1491 -0.2026
17533TIP3    H274015   3.846   0.562   5.262  0.4938 -0.5245 -0.5958
17534TIP3   OH274016   1.495   5.772   3.748 -0.4190 -0.1800 -0.2946
17534TIP3    H174017   1.479   5.853   3.797  0.7391 -0.3106  0.3176
17534TIP3    H274018   1.561   5.796   3.683 -0.5571 -0.4738 -0.5459
17535TIP3   OH274019   3.899   3.327   5.507 -0.1765  0.5647 -0.0382
17535TIP3    H174020   3.858   3.256   5.557  2.8549 -0.0928  1.6025
17535TIP3    H274021   3.983   3.291   5.478 -0.1215  2.3340 -2.1749
17536TIP3   OH274022   6.562   3.489   3.313 -0.3698  0.2525 -0.1498
17536TIP3    H174023   6.511   3.419   3.272 -0.3531  0.4697 -0.5465
17536TIP3    H274024   6.578   3.551   3.242  1.3681 -0.3190 -0.2855
17537TIP3   OH274025   6.266   5.587  16.224 -0.3260 -0.4982  0.6984
17537TIP3    H174026   6.258   5.596  16.129 -3.1020  1.2810  1.0696
17537TIP3    H274027   6.353   5.623  16.244  0.5409 -1.4562 -1.1905
17538TIP3   OH274028   5.669   3.762   5.509 -0.2935 -0.3084 -0.4045
17538TIP3    H174029   5.619   3.842   5.493 -2.3740 -1.5582 -0.3587
17538TIP3    H274030   5.603   3.698   5.535  1.5415 -1.6036  1.1834
17539TIP3   OH274031   2.166   0.959   2.127  0.4562 -0.0948 -0.5484
17539TIP3    H174032   2.169   0.929   2.036  0.3747 -1.7414 -0.0341
17539TIP3    H274033   2.166   1.054   2.121  2.7603 -0.1417 -2.2239
17540TIP3   OH274034   5.934   2.921   6.575  0.1058  0.2740  0.1403
17540TIP3    H174035   5.965   2.844   6.527  0.6864  0.3174  0.4407
17540TIP3    H274036   5.882   2.970   6.511 -0.2687 -0.3651 -0.0519
17541TIP3   OH274037   2.096   5.666  11.718  0.0406  0.3257 -0.2243
17541TIP3    H174038   2.068   5.581  11.686  0.3518  0.0125  0.3322
17541TIP3    H274039   2.165   5.693  11.657 -0.2394  0.2989 -0.5535
17542TIP3   OH274040   6.213   4.648  16.577 -0.1580  0.3242 -0.4702
17542TIP3    H174041   6.179   4.675  16.663  0.1700  1.7845 -0.7754
17542TIP3    H274042   6.165   4.568  16.557 -0.9320  0.4800  0.6531
17543TIP3   OH274043   3.956   2.847   4.257  0.4560 -0.0329  0.1357
17543TIP3    H174044   3.928   2.760   4.286 -2.6858  0.2291 -1.9195
17543TIP3    H274045   3.942   2.846   4.162 -1.7533  3.4520  0.3501
17544TIP3   OH274046   5.423   5.344  14.536 -0.1819 -0.0607 -0.1927
17544TIP3    H174047   5.449   5.302  14.618 -0.6691  0.1570  0.0721
17544TIP3    H274048   5.381   5.425  14.563  0.8528  0.6601 -0.7077
17545TIP3   OH274049   3.232   1.286   0.188  0.0261  0.1617  0.0474
17545TIP3    H174050   3.169   1.355   0.166  0.7246  0.8384  0.1565
17545TIP3    H274051   3.189   1.235   0.257 -0.8589 -0.0472 -0.6570
17546TIP3   OH274052   1.344   2.846   2.869 -0.2988  0.4378 -0.0156
17546TIP3    H174053   1.283   2.903   2.823  0.4981  0.4007 -1.1324
17546TIP3    H274054   1.370   2.895   2.947 -1.5948  0.5344  0.3558
17547TIP3   OH274055   0.250   6.080   0.124  0.4724 -0.0672  0.1173
17547TIP3    H174056   0.289   6.082   0.037 -0.6611  0.0673 -0.3951
17547TIP3    H274057   0.316   6.121   0.180  1.8957 -1.6560 -0.3753
17548TIP3   OH274058   2.959   6.140   0.623  0.0130 -0.0902 -0.3203
17548TIP3    H174059   3.019   6.211   0.644 -0.0266  0.0571 -0.7161
17548TIP3    H274060   2.968   6.126   0.529 -0.8677  0.2080 -0.4559
17549TIP3   OH274061   0.118   6.713  15.075  0.0536 -0.0967  0.2783
17549TIP3    H174062   0.123   6.753  14.988  0.4891  0.8380  0.7172
17549TIP3    H274063   0.149   6.624  15.063 -1.9866 -0.6628 -0.9357
17550TIP3   OH274064   6.744   6.153  12.353 -0.3983 -0.0568 -0.0568
17550TIP3    H174065   6.779   6.096  12.284 -0.3754  0.0532 -0.1368
17550TIP3    H274066   6.652   6.164  12.330 -0.9406 -1.8228  1.1459
17551TIP3   OH274067   1.502   0.793   3.306 -0.1956 -0.4632  0.4030
17551TIP3    H174068   1.536   0.874   3.269  0.6749 -0.9371  0.1634
17551TIP3    H274069   1.579   0.747   3.338 -0.7720 -0.8192  1.2967
17552TIP3   OH274070   2.291   5.113  16.014 -0.2015  0.8857 -0.2887
17552TIP3    H174071   2.306   5.167  16.092 -0.1652  0.3381  0.0818
17552TIP3    H274072   2.378   5.103  15.975 -0.1637  0.8376 -0.1921
17553TIP3   OH274073   4.605   6.312   4.008  0.3121 -0.3338 -0.1746
17553TIP3    H174074   4.550   6.350   4.076  0.3458  0.8200 -0.7800
17553TIP3    H274075   4.554   6.239   3.973 -0.4467  0.1556 -0.0987
17554TIP3   OH274076   3.399   4.699  17.158 -0.2726 -0.1030 -0.6587
17554TIP3    H174077   3.488   4.679  17.128 -0.9523 -1.8109 -1.5976
17554TIP3    H274078   3.378   4.629  17.219 -1.0939  0.1019 -0.7070
17555TIP3   OH274079   0.670   6.548  11.156  0.5768 -1.5845  0.2487
17555TIP3    H174080   0.729   6.473  11.165 -1.0464 -3.0870 -1.3638
17555TIP3    H274081   0.583   6.510  11.147 -0.2686  0.4925 -0.7667
17556TIP3   OH274082   5.016   2.588   2.612 -0.3198 -0.0384  0.1135
17556TIP3    H174083   5.006   2.668   2.561  1.9402  0.7747  0.9006
17556TIP3    H274084   5.036   2.618   2.701  2.3105 -1.4324  0.0520
17557TIP3   OH274085   0.858   2.390  10.204  0.8268 -0.3229  0.4625
17557TIP3    H174086   0.934   2.339  10.231  0.9570  0.3361  1.3594
17557TIP3    H274087   0.787   2.360  10.260  0.5116 -0.6729 -0.1202
17558TIP3   OH274088   1.748   0.339   3.573  0.1433 -0.0197 -0.0553
17558TIP3    H174089   1.826   0.388   3.547  0.1640 -0.3908 -0.7094
17558TIP3    H274090   1.744   0.266   3.511 -0.9118  0.1789 -0.2333
17559TIP3   OH274091   5.315   4.335   0.960 -0.0896 -0.3566  0.3452
17559TIP3    H174092   5.240   4.357   1.015 -1.1555 -0.7145 -0.9466
17559TIP3    H274093   5.293   4.250   0.921  0.5713 -0.0393 -0.7517
17560TIP3   OH274094   6.727   0.507  12.043 -0.0788  0.3847  0.4135
17560TIP3    H174095   6.745   0.426  12.090  0.3668  0.2562  0.0285
17560TIP3    H274096   6.814   0.539  12.017 -0.4973 -1.6709 -3.9065
17561TIP3   OH274097   3.228   1.446   5.910 -0.2231 -0.1860 -0.3688
17561TIP3    H174098   3.299   1.387   5.935 -1.1609  0.0506  3.1241
17561TIP3    H274099   3.156   1.425   5.970 -1.4165  2.8750 -0.6021
17562TIP3   OH274100   5.012   5.814   5.438 -0.2468  0.1366  1.0242
17562TIP3    H174101   4.959   5.748   5.481  0.2611  0.1244  1.6328
17562TIP3    H274102   5.056   5.860   5.509 -0.4361  0.9945  0.5923
17563TIP3   OH274103   3.774   5.695  12.337 -0.1383  0.4120 -0.4361
17563TIP3    H174104   3.775   5.779  12.293  1.6553 -0.5437 -2.2792
17563TIP3    H274105   3.722   5.638  12.280 -0.5326  0.0046  0.3117
17564TIP3   OH274106   1.959   0.567  12.850 -0.2779 -0.3599  0.6834
17564TIP3    H174107   2.031   0.617  12.812  0.4855 -0.6444  1.7116
17564TIP3    H274108   1.880   0.608  12.815  0.3807  0.0336 -0.3694
17565TIP3   OH274109   6.548   2.449  11.039  0.4693 -0.1368  0.6537
17565TIP3    H174110   6.629   2.461  10.988 -0.5406 -4.1708 -2.1330
17565TIP3    H274111   6.478   2.463  10.975 -0.9222 -1.2990  1.9076
17566TIP3   OH274112   0.471   3.446  12.704  0.4366 -0.0740 -0.2820
17566TIP3    H174113   0.460   3.446  12.799 -1.6742 -0.3462 -0.5041
17566TIP3    H274114   0.433   3.529  12.675 -1.2641 -1.1241 -1.1173
17567TIP3   OH274115   1.175   5.769   4.963 -0.4820  0.6135 -0.1844
17567TIP3    H174116   1.242   5.729   4.907 -0.2720 -0.1409  0.5843
17567TIP3    H274117   1.217   5.846   5.000  0.5807 -0.7957  1.6452
17568TIP3   OH274118   6.677   6.448   6.345 -0.8597 -0.0478  0.3489
17568TIP3    H174119   6.629   6.371   6.377 -0.4144 -0.4656 -0.0002
17568TIP3    H274120   6.626   6.522   6.378 -0.0417 -0.4677  2.6378
17569TIP3   OH274121   2.822   4.686   0.804  0.3283  0.2749 -0.1539
17569TIP3    H174122   2.910   4.724   0.807  0.5363 -0.3327  2.0201
17569TIP3    H274123   2.834   4.597   0.771  0.3408  0.6655 -1.2251
17570TIP3   OH274124   0.820   5.740  13.597 -0.3910  0.0114 -0.4312
17570TIP3    H174125   0.796   5.750  13.690  0.3512 -0.9381 -0.1319
17570TIP3    H274126   0.773   5.811  13.553  1.5781  2.3438  1.0746
17571TIP3   OH274127   6.553   5.378  13.581 -0.0269 -0.3973  0.3792
17571TIP3    H174128   6.562   5.320  13.657  1.1012  1.9521  2.1106
17571TIP3    H274129   6.572   5.465  13.615  0.2166  0.7659 -2.5609
17572TIP3   OH274130   4.526   4.146   0.320 -0.0973  0.2514 -0.1285
17572TIP3    H174131   4.612   4.176   0.350 -0.6437  1.7573 -0.0148
17572TIP3    H274132   4.509   4.196   0.241 -0.9917  0.1734  0.0055
17573TIP3   OH274133   4.431   4.134  15.511  0.6395  0.3822 -0.5019
17573TIP3    H174134   4.345   4.122  15.471  1.3703 -1.2082 -1.6616
17573TIP3    H274135   4.443   4.229  15.514 -1.0484  0.6228 -0.5264
17574TIP3   OH274136   5.798   2.124   6.092  0.5112 -0.1792  0.1562
17574TIP3    H174137   5.852   2.045   6.093  0.9273  0.0109 -2.5507
17574TIP3    H274138   5.855   2.192   6.058 -0.7235  0.5933 -0.4246
17575TIP3   OH274139   4.184   5.734  11.435 -0.4548 -0.7376  0.0772
17575TIP3    H174140   4.101   5.779  11.450 -1.4588 -2.0934 -1.3307
17575TIP3    H274141   4.215   5.768  11.351 -0.5631 -1.7122 -0.3546
17576TIP3   OH274142   5.166   4.068  14.498  0.2843 -0.2713 -0.3013
17576TIP3    H174143   5.077   4.031  14.497  0.0765  0.2203 -0.5194
17576TIP3    H274144   5.151   4.163  14.501  0.8050 -0.2319  1.8523
17577TIP3   OH274145   0.965   0.895   5.344 -0.3063 -0.5420 -0.2546
17577TIP3    H174146   0.971   0.871   5.252 -0.2028  1.6307 -0.8375
17577TIP3    H274147   1.052   0.930   5.365 -0.5740 -0.2789  0.4377
17578TIP3   OH274148   5.134   0.561   3.105  0.7304  0.0149 -0.2453
17578TIP3    H174149   5.229   0.559   3.119  0.6950  0.5845  0.0704
17578TIP3    H274150   5.111   0.471   3.083  1.0380 -0.5612  1.6892
17579TIP3   OH274151   2.793   6.356  14.503 -0.3762 -0.3963  0.7189
17579TIP3    H174152   2.780   6.437  14.453  1.2239 -1.3772 -1.3611
17579TIP3    H274153   2.873   6.371  14.553 -2.0414  0.6313  3.1851
17580TIP3   OH274154   4.792   0.559   5.002  0.2110 -0.2480  0.3275
17580TIP3    H174155   4.780   0.465   4.989 -0.7952 -0.0308 -0.3871
17580TIP3    H274156   4.788   0.596   4.914 -1.4787  0.6872  0.7830
17581TIP3   OH274157   2.123   1.931   0.758  0.5578  0.6522 -0.8336
17581TIP3    H174158   2.082   1.993   0.698  1.0472  0.3220 -1.5110
17581TIP3    H274159   2.139   1.853   0.705 -0.9081 -0.4023  0.2433
17582TIP3   OH274160   3.710   1.973  13.097 -0.0472  0.0770  0.5891
17582TIP3    H174161   3.691   2.065  13.079 -0.0352  0.4821  2.5309
17582TIP3    H274162   3.626   1.929  13.087 -0.0817  0.3057 -0.1959
17583TIP3   OH274163   6.493   3.844  11.799  0.1264  0.3914 -0.1490
17583TIP3    H174164   6.529   3.932  11.800 -0.9237  0.8274  0.8108
17583TIP3    H274165   6.568   3.787  11.820  0.6418  1.1199 -0.0035
17584TIP3   OH274166   5.069   6.505  15.439  0.5861  0.2587 -0.3873
17584TIP3    H174167   4.998   6.553  15.481 -0.8876 -0.6148 -1.7797
17584TIP3    H274168   5.029   6.467  15.360  2.0053 -2.1764 -0.0094
17585TIP3   OH274169   0.268   0.790  11.341 -0.2911  0.0461 -0.1929
17585TIP3    H174170   0.288   0.870  11.390 -0.4748  0.0173 -0.0657
17585TIP3    H274171   0.182   0.807  11.303  0.1413  0.3188 -1.0452
17586TIP3   OH274172   2.585   3.343   0.636  0.5550  0.4358 -0.2962
17586TIP3    H174173   2.621   3.431   0.647  1.8262 -0.0704 -0.2534
17586TIP3    H274174   2.607   3.297   0.718  0.2104 -0.0250 -0.4554
17587TIP3   OH274175   4.875   3.505  14.733 -0.2235  0.2759 -0.2829
17587TIP3    H174176   4.833   3.496  14.647 -0.3398  0.8696 -0.2852
17587TIP3    H274177   4.936   3.431  14.737 -0.2531  0.2175 -0.8552
17588TIP3   OH274178   3.970   3.688  12.594 -0.4876 -0.3447 -0.3918
17588TIP3    H174179   3.946   3.693  12.687  0.6315  0.9275 -0.1613
17588TIP3    H274180   4.052   3.637  12.594 -0.9369 -1.0780 -0.7730
17589TIP3   OH274181   6.412   2.782  12.194  0.2638 -0.4493  0.7178
17589TIP3    H174182   6.446   2.701  12.233 -1.4422 -1.6130 -0.1573
17589TIP3    H274183   6.449   2.783  12.106 -1.7014 -1.5735 -0.1375
17590TIP3   OH274184   6.719   2.361  11.707  0.3865 -0.0160  0.1883
17590TIP3    H174185   6.683   2.272  11.712 -0.3101  0.2547 -0.0714
17590TIP3    H274186   6.768   2.371  11.789  1.1389 -0.9279 -0.1358
17591TIP3   OH274187   0.127   3.020  16.083  0.7416  0.4138 -0.2508
17591TIP3    H174188   0.077   3.003  16.003 -1.0295  1.5992  0.5798
17591TIP3    H274189   0.066   2.999  16.154  2.1055 -0.0743  0.7994
17592TIP3   OH274190   3.818   2.976  15.649  0.2527 -0.0599 -0.1409
17592TIP3    H174191   3.900   2.927  15.643  0.3150 -0.0738  0.8025
17592TIP3    H274192   3.751   2.910  15.666  0.3133  0.1458  0.9550
17593TIP3   OH274193   5.579   6.641  12.695 -0.1415 -0.4390 -0.1809
17593TIP3    H174194   5.523   6.695  12.750 -0.0285 -1.0564  0.5434
17593TIP3    H274195   5.572   6.553  12.732  1.8573 -0.3988  0.3713
17594TIP3   OH274196   2.946   3.591  16.845  0.0825  0.0985 -0.5795
17594TIP3    H174197   2.875   3.656  16.840  0.4148  0.4051 -1.4502
17594TIP3    H274198   2.972   3.592  16.937  0.3745  1.5320 -0.6640
17595TIP3   OH274199   5.244   4.911   0.796 -0.2670 -0.1045 -0.0117
17595TIP3    H174200   5.205   4.952   0.872  2.6286  0.7902  1.0641
17595TIP3    H274201   5.311   4.852   0.832  0.1896 -0.7269 -1.7899
17596TIP3   OH274202   6.537   3.301  16.155  0.3049 -0.3665  0.1792
17596TIP3    H174203   6.600   3.260  16.214  0.4197  0.3215  0.5383
17596TIP3    H274204   6.487   3.360  16.211  1.2307  1.1993 -0.6409
17597TIP3   OH274205   4.231   0.978  15.214  0.0866  0.5279  0.1856
17597TIP3    H174206   4.236   0.896  15.165 -1.6099 -0.0086  0.8899
17597TIP3    H274207   4.318   0.986  15.255  0.9411  0.1199 -1.4979
17598TIP3   OH274208   3.892   3.743  16.992 -0.1281 -0.1736  0.4504
17598TIP3    H174209   3.799   3.733  16.972  0.7619 -0.6606 -3.9166
17598TIP3    H274210   3.907   3.838  16.990 -0.5244 -0.0893  1.2548
17599TIP3   OH274211   1.821   6.665   1.147  0.3444  0.6936  0.6390
17599TIP3    H174212   1.773   6.593   1.190  1.9821 -1.6068 -1.2397
17599TIP3    H274213   1.760   6.700   1.083  0.0057  0.0642  0.6149
17600TIP3   OH274214   6.736   5.027   0.846 -0.0282  0.0630 -0.0204
17600TIP3    H174215   6.681   5.019   0.924 -0.1105  0.2906 -0.0548
17600TIP3    H274216   6.690   5.089   0.791  0.3521  0.3866  0.0266
17601TIP3   OH274217   3.833   2.176   4.026  0.3061  0.2713  0.3468
17601TIP3    H174218   3.866   2.266   4.031  1.3419 -0.0966  0.2857
17601TIP3    H274219   3.902   2.123   4.067  0.0185 -0.5775 -0.2562
17602TIP3   OH274220   3.600   2.598  15.074  0.0257 -0.1496  0.0736
17602TIP3    H174221   3.636   2.639  14.995 -0.0286  1.1619  0.7054
17602TIP3    H274222   3.520   2.649  15.093 -1.6341 -2.3604 -0.7296
17603TIP3   OH274223   4.773   0.308  11.102 -0.3790  0.3671 -0.2850
17603TIP3    H174224   4.803   0.218  11.089  1.2411  0.8316  0.0778
17603TIP3    H274225   4.782   0.323  11.196 -0.0695  1.0896 -0.4263
17604TIP3   OH274226   3.741   5.693  12.605 -0.1029  0.1184 -0.0836
17604TIP3    H174227   3.752   5.705  12.510 -0.1940  1.6466  0.0786
17604TIP3    H274228   3.814   5.637  12.631  0.7443  0.8339 -0.8483
17605TIP3   OH274229   2.996   6.263   4.879 -1.0042 -0.1950 -0.2398
17605TIP3    H174230   3.077   6.212   4.871 -0.6594 -0.1613  2.5181
17605TIP3    H274231   2.943   6.213   4.941 -2.6021  0.4252 -1.0889
17606TIP3   OH274232   4.013   1.807   0.007 -0.4697 -0.5229  0.4977
17606TIP3    H174233   4.013   1.902   0.006  0.2516 -0.5364 -1.4368
17606TIP3    H274234   3.930   1.784   0.050  0.1562  0.9537  2.5737
17607TIP3   OH274235   1.530   0.280  11.762 -0.1010 -0.9031  0.4345
17607TIP3    H174236   1.623   0.294  11.747 -0.2820 -0.0610  0.0361
17607TIP3    H274237   1.519   0.185  11.762  0.8434 -1.0137  1.0547
17608TIP3   OH274238   2.192   1.825  10.584  0.1174  0.3677 -0.7600
17608TIP3    H174239   2.138   1.746  10.577  0.8079 -0.1748 -0.0206
17608TIP3    H274240   2.233   1.819  10.670 -1.2132  2.4543  0.0492
17609TIP3   OH274241   5.382   1.240  15.873 -0.5007  0.4331  0.0076
17609TIP3    H174242   5.426   1.180  15.812 -0.1892  0.4080  0.2536
17609TIP3    H274243   5.356   1.185  15.947  0.7961  0.8007  0.7545
17610TIP3   OH274244   5.542   1.579  11.862  0.2486  0.3141  0.0730
17610TIP3    H174245   5.564   1.493  11.827 -0.1452  0.8288 -1.4437
17610TIP3    H274246   5.516   1.562  11.953 -0.9657 -1.3138 -0.5686
17611TIP3   OH274247   0.217   1.381  16.307 -0.4472 -0.2206 -0.3031
17611TIP3    H174248   0.297   1.391  16.255 -0.8595  0.2114 -0.8633
17611TIP3    H274249   0.236   1.427  16.389  0.5772 -1.7726  0.3482
17612TIP3   OH274250   6.627   5.181   3.340  0.6723 -0.2070  0.2118
17612TIP3    H174251   6.589   5.123   3.273  2.6284 -0.7450 -0.4737
17612TIP3    H274252   6.551   5.218   3.385 -0.6989 -0.1183 -2.0627
17613TIP3   OH274253   1.700   1.443  14.875  0.4516  0.5674  0.4128
17613TIP3    H174254   1.621   1.478  14.835  1.7517  0.6826 -2.1630
17613TIP3    H274255   1.669   1.379  14.939 -1.7311  0.9743 -0.2202
17614TIP3   OH274256   2.741   6.414  12.982 -0.1502  0.0954  0.6598
17614TIP3    H174257   2.834   6.427  12.963 -1.1790  2.7125 -3.1614
17614TIP3    H274258   2.720   6.328  12.944  0.6226 -0.3818  1.3033
17615TIP3   OH274259   6.378   0.106  13.779 -0.0582  0.4001  0.1032
17615TIP3    H174260   6.302   0.080  13.727  0.6494 -2.0816  0.2129
17615TIP3    H274261   6.453   0.091  13.721  0.4782  0.9953  0.6368
17616TIP3   OH274262   6.762   5.575  16.212  0.2485  0.1706 -0.0504
17616TIP3    H174263   6.787   5.552  16.302 -1.5644 -0.4592  0.3001
17616TIP3    H274264   6.834   5.631  16.182  2.3200 -1.9636  0.7550
17617TIP3   OH274265   0.757   0.612  11.886 -0.4387  0.3672 -0.4244
17617TIP3    H174266   0.732   0.693  11.842  0.5484  0.2988 -1.1236
17617TIP3    H274267   0.849   0.624  11.910 -0.4676 -0.2902  0.0449
17618TIP3   OH274268   2.036   5.780   5.148  0.7439  0.2365 -0.2293
17618TIP3    H174269   2.043   5.687   5.128  0.7220  0.2201 -0.1566
17618TIP3    H274270   2.126   5.812   5.140  1.4909 -0.5674  3.7105
17619TIP3   OH274271   1.483   5.878  15.851 -0.0587 -0.1443 -0.4584
17619TIP3    H174272   1.568   5.919  15.835 -1.4945  2.5254 -1.6697
17619TIP3    H274273   1.450   5.857  15.763 -0.5777 -1.3386  0.0105
17620TIP3   OH274274   1.529   6.068  11.771  0.1735  0.1374  0.1399
17620TIP3    H174275   1.530   6.138  11.836  1.2498 -0.8103  1.1686
17620TIP3    H274276   1.439   6.068  11.738 -0.2090  1.0756  1.1371
17621TIP3   OH274277   4.991   6.089  16.631  0.5109  0.8425  0.1035
17621TIP3    H174278   5.084   6.083  16.652  0.8115  0.5539 -1.2496
17621TIP3    H274279   4.989   6.132  16.546 -0.5037 -0.7327 -0.6956
17622TIP3   OH274280   2.154   4.622  14.096 -0.4073  0.4913  0.1805
17622TIP3    H174281   2.122   4.532  14.088  0.2598  0.3366 -1.0012
17622TIP3    H274282   2.182   4.645  14.007  2.2872  0.7565  1.0483
17623TIP3   OH274283   2.430   3.837  12.188 -0.0660  0.4169  0.2206
17623TIP3    H174284   2.371   3.902  12.150  2.0925  1.5920 -1.1477
17623TIP3    H274285   2.433   3.859  12.281 -1.0373  0.9225  0.1380
17624TIP3   OH274286   5.234   0.948   5.899  0.5425 -0.2983 -0.2518
17624TIP3    H174287   5.143   0.920   5.912  0.0215  1.1369 -0.7221
17624TIP3    H274288   5.269   0.957   5.988  0.5107 -1.7111 -0.0781
17625TIP3   OH274289   2.232   1.698  11.650 -1.0039  0.3203  0.0695
17625TIP3    H174290   2.281   1.707  11.732  0.4047 -1.5052 -0.5381
17625TIP3    H274291   2.228   1.787  11.615 -0.7956  0.9670  1.6326
17626TIP3   OH274292   2.390   0.412  11.453 -0.3186  0.5213 -0.2161
17626TIP3    H174293   2.383   0.415  11.358 -1.9692  0.0618 -0.1278
17626TIP3    H274294   2.428   0.497  11.477  1.6209  0.0115 -1.3845
17627TIP3   OH274295   4.152   3.064   4.022 -0.3274 -0.4701 -0.1685
17627TIP3    H174296   4.148   3.124   3.947 -0.6967 -0.5965 -0.2528
17627TIP3    H274297   4.071   3.013   4.016  0.7620 -2.1413 -1.0578
17628TIP3   OH274298   4.334   2.589   0.817  0.0404  0.7208 -0.2798
17628TIP3    H174299   4.302   2.502   0.843 -1.7283  1.5117  0.3102
17628TIP3    H274300   4.406   2.572   0.757  1.3550 -1.1717  1.7743
17629TIP3   OH274301   6.288   1.280  11.510 -0.1284  0.5655  0.5849
17629TIP3    H174302   6.296   1.370  11.544  0.4056  0.5013  0.6302
17629TIP3    H274303   6.329   1.226  11.577 -1.2229  0.1962  0.9677
17630TIP3   OH274304   2.102   4.549  17.211  0.4172  0.1331 -0.0107
17630TIP3    H174305   2.108   4.479  17.276  0.4242  0.2712  0.1361
17630TIP3    H274306   2.168   4.526  17.145 -0.2008 -0.4712 -0.4161
17631TIP3   OH274307   6.538   4.426   4.957  0.0643  0.7810  0.0322
17631TIP3    H174308   6.595   4.410   5.032  0.2590  1.4518  0.0308
17631TIP3    H274309   6.592   4.404   4.881 -0.8085 -1.9482  0.1371
17632TIP3   OH274310   4.627   3.076  17.171 -0.3136  0.1380  0.5686
17632TIP3    H174311   4.638   2.981  17.167  0.1273  0.2397 -1.1363
17632TIP3    H274312   4.542   3.092  17.128  0.2172  0.6086 -0.3237
17633TIP3   OH274313   4.301   3.392  15.317  0.4123 -0.1671 -0.8324
17633TIP3    H174314   4.326   3.484  15.311  4.3429 -1.1539 -0.8159
17633TIP3    H274315   4.213   3.393  15.355  1.7430  3.4335  2.4025
17634TIP3   OH274316   4.807   5.429   6.402  0.2528  0.3348 -0.3744
17634TIP3    H174317   4.893   5.396   6.377 -0.4702  0.7623 -3.5906
17634TIP3    H274318   4.770   5.359   6.457  1.0971 -1.6018 -2.2046
17635TIP3   OH274319   1.271   5.369  14.106  0.2270 -0.2042  0.2524
17635TIP3    H174320   1.209   5.330  14.045  0.0805 -1.3377  1.1038
17635TIP3    H274321   1.345   5.308  14.108  1.2524  0.9857 -0.5326
17636TIP3   OH274322   3.795   2.661  11.363 -0.0508  0.0395 -0.0301
17636TIP3    H174323   3.816   2.651  11.456 -0.2049 -0.9926 -0.1000
17636TIP3    H274324   3.723   2.724  11.362  1.7120  2.1135  0.3404
17637TIP3   OH274325   0.932   0.906   6.070  0.1761  0.4770 -0.1382
17637TIP3    H174326   0.847   0.893   6.112  0.3845 -0.2151  0.0793
17637TIP3    H274327   0.944   0.829   6.015 -0.3919  1.6759 -1.9893
17638TIP3   OH274328   4.897   5.446   2.182 -0.1374 -0.4423 -0.5033
17638TIP3    H174329   4.904   5.351   2.177 -2.1063 -0.5512 -1.4947
17638TIP3    H274330   4.814   5.462   2.225 -0.1669  0.8325 -1.0192
17639TIP3   OH274331   2.604   3.701  14.745 -0.6422 -0.9080 -0.2334
17639TIP3    H174332   2.685   3.699  14.695 -0.4060  1.4451 -0.0127
17639TIP3    H274333   2.551   3.630  14.708  0.2769 -0.4355 -2.5633
17640TIP3   OH274334   0.162   3.418  15.846  0.4736  0.1649  0.1678
17640TIP3    H174335   0.073   3.394  15.872  0.6765 -0.1896  0.5461
17640TIP3    H274336   0.162   3.413  15.751  0.6240 -1.7758  0.2566
17641TIP3   OH274337   3.021   3.537   1.692  0.0626 -0.0938  0.2032
17641TIP3    H174338   2.955   3.591   1.649 -1.2344  1.5702  3.9956
17641TIP3    H274339   2.997   3.447   1.670 -1.6371  0.6338 -0.9765
17642TIP3   OH274340   0.107   4.794   4.169  0.1031 -0.1066  0.5811
17642TIP3    H174341   0.123   4.701   4.155  1.3598  0.2348 -0.2496
17642TIP3    H274342   0.081   4.799   4.261  1.4869 -1.0878  1.0403
17643TIP3   OH274343   3.384   3.521   4.852  0.3879  0.6171 -0.1124
17643TIP3    H174344   3.302   3.569   4.837 -0.7909 -1.0193  0.8609
17643TIP3    H274345   3.412   3.495   4.764 -0.6529  0.3725 -0.3840
17644TIP3   OH274346   1.828   1.250   4.412  0.2571 -0.5126  0.3042
17644TIP3    H174347   1.743   1.285   4.386 -1.6665 -2.1713  4.0166
17644TIP3    H274348   1.875   1.326   4.448 -1.0494 -0.2745  1.5490
17645TIP3   OH274349   5.881   5.532  16.729 -0.7499 -0.1792  0.1457
17645TIP3    H174350   5.915   5.590  16.797  0.5056  0.9260 -1.4216
17645TIP3    H274351   5.787   5.551  16.726 -0.7511  0.0365  1.2903
17646TIP3   OH274352   1.047   1.089  10.679 -0.3946 -0.1544  0.8055
17646TIP3    H174353   0.995   1.010  10.699  0.3671 -0.3841  1.8987
17646TIP3    H274354   0.981   1.158  10.671 -1.3497 -1.3445 -2.8336
17647TIP3   OH274355   0.926   6.332  13.913  0.0107 -0.0288  0.7124
17647TIP3    H174356   0.928   6.251  13.963 -0.1642 -0.0488  0.6865
17647TIP3    H274357   0.839   6.334  13.874  0.6531 -0.7384 -0.7823
17648TIP3   OH274358   2.454   3.991  13.380  0.3353  0.2551 -0.1881
17648TIP3    H174359   2.377   4.015  13.328 -0.2535 -1.3117 -0.0474
17648TIP3    H274360   2.473   4.070  13.430 -0.8869  0.8247 -0.5866
17649TIP3   OH274361   4.690   0.444  16.995  0.3121  0.2102 -0.5982
17649TIP3    H174362   4.735   0.526  17.017 -1.2723  1.2782 -1.2861
17649TIP3    H274363   4.613   0.443  17.051  0.1956 -0.6966 -0.7673
17650TIP3   OH274364   3.769   4.720   0.036 -0.1449 -0.2413  0.5624
17650TIP3    H174365   3.757   4.648   0.099  0.2346 -0.8764 -0.0817
17650TIP3    H274366   3.766   4.677  -0.050  0.4822  0.4587  0.1899
17651TIP3   OH274367   6.099   4.623  14.210 -0.0835  0.1607 -0.3508
17651TIP3    H174368   6.134   4.543  14.170  0.0439 -0.3833  0.8250
17651TIP3    H274369   6.172   4.686  14.205 -0.3237  0.3655 -1.6674
17652TIP3   OH274370   3.636   6.309  13.085  0.0906 -0.4703  0.5296
17652TIP3    H174371   3.633   6.213  13.089  1.2935 -0.5579 -0.5350
17652TIP3    H274372   3.555   6.337  13.129 -0.3854 -1.9698  0.6400
17653TIP3   OH274373   0.443   3.127  12.041 -0.4188 -0.1363 -0.1514
17653TIP3    H174374   0.407   3.039  12.048  1.0526 -0.8947 -1.5377
17653TIP3    H274375   0.385   3.172  11.980  0.9325 -1.3593 -2.4069
17654TIP3   OH274376   1.168   4.651  11.901 -0.4728 -0.0738  0.5018
17654TIP3    H174377   1.228   4.576  11.897 -1.9384 -1.2229 -1.1481
17654TIP3    H274378   1.086   4.614  11.934 -1.0674  0.8987  0.1486
17655TIP3   OH274379   4.455   6.581  12.430 -0.7113 -0.4126 -0.4243
17655TIP3    H174380   4.405   6.532  12.365 -2.2073 -0.0433  0.4181
17655TIP3    H274381   4.470   6.519  12.501 -1.4055 -0.0409  0.0440
17656TIP3   OH274382   0.510   4.964   3.936  0.1552 -0.7983  0.1006
17656TIP3    H174383   0.439   4.977   3.999 -0.1959 -0.4235 -0.3658
17656TIP3    H274384   0.471   4.985   3.852  0.6762 -1.1200 -0.2216
17657TIP3   OH274385   6.588   6.371  16.891 -0.1881  0.1780  0.1024
17657TIP3    H174386   6.642   6.294  16.876  2.0024  1.6402  0.0867
17657TIP3    H274387   6.506   6.354  16.846  1.1992 -1.1029 -1.9848
17658TIP3   OH274388   1.853   2.237  10.716 -0.3205  0.0393 -0.0515
17658TIP3    H174389   1.893   2.153  10.693 -1.1625  0.2099 -2.2525
17658TIP3    H274390   1.779   2.213  10.772  0.2576 -0.5579  0.4827
17659TIP3   OH274391   3.313   3.626  16.402  0.1187 -0.1203 -0.0255
17659TIP3    H174392   3.241   3.632  16.465  1.0829  2.5895  0.9161
17659TIP3    H274393   3.269   3.616  16.317 -1.3367  0.3261  0.6539
17660TIP3   OH274394   2.813   1.889  16.350 -0.6462  0.1292 -0.3790
17660TIP3    H174395   2.862   1.807  16.356 -0.9705 -0.1839 -1.9641
17660TIP3    H274396   2.871   1.955  16.390 -1.0111 -1.1036  2.3242
17661TIP3   OH274397   3.488   4.496   3.284  0.2814 -0.3361  0.0411
17661TIP3    H174398   3.450   4.481   3.197  0.9295 -2.4053  0.0836
17661TIP3    H274399   3.412   4.502   3.342 -0.0997 -0.7250 -0.4099
17662TIP3   OH274400   5.783   1.901  15.528  0.0765  0.3413 -0.3522
17662TIP3    H174401   5.773   1.841  15.602 -1.2155 -0.3522 -1.0690
17662TIP3    H274402   5.725   1.975  15.550  0.0949  0.3781 -0.4292
17663TIP3   OH274403   5.584   5.950  11.368  0.4970  0.3144 -0.1803
17663TIP3    H174404   5.609   5.893  11.440 -0.0655 -0.3784 -0.5256
17663TIP3    H274405   5.502   5.913  11.335 -0.6537  2.1750  0.5073
17664TIP3   OH274406   1.861   6.400  14.581 -0.1137  0.0762 -0.1024
17664TIP3    H174407   1.777   6.423  14.622  0.3074  0.6831  0.4130
17664TIP3    H274408   1.875   6.469  14.516  0.6020  0.6795  0.6828
17665TIP3   OH274409   2.828   5.501  10.848 -0.0613  0.0344 -0.4915
17665TIP3    H174410   2.793   5.581  10.811 -0.2947 -0.0234 -0.3928
17665TIP3    H274411   2.922   5.505  10.828 -0.0886  0.2822 -0.5721
17666TIP3   OH274412   4.703   6.557   5.564 -0.2283 -0.3720 -0.4624
17666TIP3    H174413   4.677   6.527   5.477 -0.4195 -0.2672 -0.4415
17666TIP3    H274414   4.721   6.651   5.553 -0.2025 -0.3694 -0.4013
17667TIP3   OH274415   1.855   2.049  16.630  0.3093  0.3357 -0.4074
17667TIP3    H174416   1.904   2.085  16.704 -1.5579 -0.7048  1.3658
17667TIP3    H274417   1.794   2.119  16.606  0.6538  0.5277 -0.7334
17668TIP3   OH274418   0.825   3.090  16.648  0.2749 -0.7604  0.2428
17668TIP3    H174419   0.772   3.092  16.569  1.3852 -0.5075 -0.5109
17668TIP3    H274420   0.862   3.178  16.654 -0.2804 -0.6000  1.3759
17669TIP3   OH274421   6.402   0.966   0.100  0.4911 -1.3043  0.4065
17669TIP3    H174422   6.434   0.973   0.190 -1.0193 -0.6610  0.9107
17669TIP3    H274423   6.318   0.920   0.108  0.0573 -0.7082 -0.6063
17670TIP3   OH274424   2.627   6.314   4.473  0.4793  0.2049  0.3662
17670TIP3    H174425   2.567   6.242   4.456  0.9548 -0.3339  0.9562
17670TIP3    H274426   2.572   6.393   4.471 -0.0308 -0.1685 -0.3223
17671TIP3   OH274427   6.500   0.953  15.057  0.4335 -0.5312  0.0507
17671TIP3    H174428   6.475   1.018  14.991  1.4866  2.5242  2.5398
17671TIP3    H274429   6.549   0.887  15.008  2.4262  2.3689 -2.1001
17672TIP3   OH274430   5.366   1.389  13.378 -0.1770 -0.0902  0.0549
17672TIP3    H174431   5.446   1.441  13.371  1.3392 -2.2304  0.9715
17672TIP3    H274432   5.317   1.410  13.298  1.3644  1.1319 -0.6024
17673TIP3   OH274433   3.969   6.665  15.617  0.2093 -0.3424  0.1606
17673TIP3    H174434   4.040   6.602  15.607  0.5766 -0.0210  0.6679
17673TIP3    H274435   3.992   6.736  15.557 -0.2248 -0.7041 -0.4402
17674TIP3   OH274436   4.035   3.110  16.457 -0.4406 -0.9112 -0.4684
17674TIP3    H174437   3.973   3.040  16.435  0.2134 -1.2669 -1.2083
17674TIP3    H274438   4.107   3.064  16.502 -0.1277 -0.6904 -0.7373
17675TIP3   OH274439   4.630   5.890  13.197 -0.4759  0.7657  0.0125
17675TIP3    H174440   4.537   5.914  13.192 -0.4640  0.7365 -0.3795
17675TIP3    H274441   4.639   5.817  13.136 -0.1225  1.0069 -0.2243
17676TIP3   OH274442   3.816   4.537   0.454 -0.5291 -0.0331 -0.1045
17676TIP3    H174443   3.761   4.460   0.441 -0.0390 -0.6361  1.2616
17676TIP3    H274444   3.854   4.525   0.542  2.1962  0.0760 -1.1969
17677TIP3   OH274445   4.539   0.626   4.843  0.3107 -0.3368  0.2993
17677TIP3    H174446   4.467   0.610   4.782  0.3041 -0.7375  0.4097
17677TIP3    H274447   4.613   0.649   4.788 -0.0345  0.5978  0.2089
17678TIP3   OH274448   2.189   1.485  13.057 -0.1918 -0.1608  0.1406
17678TIP3    H174449   2.271   1.503  13.103 -0.4688  0.0481  0.5522
17678TIP3    H274450   2.216   1.464  12.968  0.2139  1.2531 -0.0865
17679TIP3   OH274451   2.909   6.238  17.073 -0.1978  0.9451 -0.4144
17679TIP3    H174452   2.941   6.322  17.039  0.1224  0.7748 -0.5288
17679TIP3    H274453   2.985   6.180  17.071 -0.1238  0.9791  0.7489
17680TIP3   OH274454   5.746   0.130   1.131  0.1210 -0.0637 -0.4527
17680TIP3    H174455   5.829   0.161   1.095  1.4737 -1.1501  1.5882
17680TIP3    H274456   5.766   0.044   1.168 -1.6472  0.1144  1.0386
17681TIP3   OH274457   3.898   6.568  15.882 -0.5588 -0.0032  0.2841
17681TIP3    H174458   3.834   6.616  15.934  0.4996  0.3364  1.2921
17681TIP3    H274459   3.930   6.631  15.817 -1.6799 -0.3471 -0.6082
17682TIP3   OH274460   1.939   2.472  16.272  0.3888 -0.4349  0.5400
17682TIP3    H174461   2.030   2.444  16.281  1.1314  1.8173  0.2522
17682TIP3    H274462   1.918   2.457  16.180  1.4154  1.7195 -0.0757
17683TIP3   OH274463   3.769   3.819   0.303 -0.1176 -0.4415  0.3229
17683TIP3    H174464   3.859   3.850   0.314 -1.8477  4.8806  0.7262
17683TIP3    H274465   3.757   3.810   0.209  0.5944 -0.5876  0.2433
17684TIP3   OH274466   0.663   5.906  13.452  0.2613 -0.1816  0.1512
17684TIP3    H174467   0.586   5.858  13.422 -1.0540  1.8913  0.1501
17684TIP3    H274468   0.637   5.998  13.450  2.1537  0.4344  1.8622
17685TIP3   OH274469   0.179   5.069  12.614 -0.1043  0.7132  0.0707
17685TIP3    H174470   0.129   4.999  12.655 -1.6680  2.5924  1.4774
17685TIP3    H274471   0.136   5.082  12.529  0.4295 -0.2738 -0.3555
17686TIP3   OH274472   0.098   1.899   3.168  0.1383 -0.0901  0.0076
17686TIP3    H174473   0.059   1.880   3.254 -0.5362  3.2576  0.5125
17686TIP3    H274474   0.041   1.853   3.106 -0.7663 -0.6141  1.1962
17687TIP3   OH274475   1.498   1.678  15.153  0.1368 -0.0862  0.2857
17687TIP3    H174476   1.539   1.601  15.193  2.1670  0.9362  0.2352
17687TIP3    H274477   1.405   1.668  15.173 -0.0214 -3.7884 -1.7472
17688TIP3   OH274478   6.555   6.086  11.447  0.1088 -0.0034  0.1911
17688TIP3    H174479   6.578   6.131  11.366 -0.0135 -0.5483 -0.1465
17688TIP3    H274480   6.637   6.049  11.479  0.0473 -0.3018  0.0009
17689TIP3   OH274481   1.534   2.007  16.112 -0.0110  1.1192  0.4850
17689TIP3    H174482   1.497   1.920  16.125 -0.9783  1.1814 -1.6677
17689TIP3    H274483   1.509   2.056  16.191 -1.0508 -0.0185  0.8722
17690TIP3   OH274484   6.253   3.666   2.799 -0.3094 -0.5894  0.4203
17690TIP3    H174485   6.246   3.756   2.766  2.0988 -1.1051 -1.6713
17690TIP3    H274486   6.162   3.637   2.808 -1.1039  1.5168 -0.3996
17691TIP3   OH274487   4.796   3.407   1.758 -0.4601  0.1250 -0.1869
17691TIP3    H174488   4.822   3.392   1.667 -1.3979 -1.6244 -0.1812
17691TIP3    H274489   4.825   3.329   1.805 -0.2932  0.8637  0.9629
17692TIP3   OH274490   4.749   2.238   2.334 -0.0166  0.2108  0.0240
17692TIP3    H174491   4.778   2.263   2.422  1.4684  0.1596 -0.4416
17692TIP3    H274492   4.821   2.264   2.277  0.8235 -3.4221 -0.6994
17693TIP3   OH274493   2.311   3.183   1.425 -0.2777 -0.4568  0.5266
17693TIP3    H174494   2.355   3.180   1.341 -3.1048  0.0942 -1.0379
17693TIP3    H274495   2.288   3.092   1.443  0.4591 -0.5944  0.7940
17694TIP3   OH274496   2.850   0.204  16.786 -0.0479 -0.3576  0.3961
17694TIP3    H174497   2.900   0.159  16.719  2.4514 -0.0730  1.9745
17694TIP3    H274498   2.834   0.138  16.853  0.5317  0.1993  1.0957
17695TIP3   OH274499   4.148   3.892   3.805  0.4811  0.3846  0.0577
17695TIP3    H174500   4.134   3.821   3.867 -1.1983  0.0647 -0.6601
17695TIP3    H274501   4.077   3.883   3.741  1.1924  1.7231 -0.9533
17696TIP3   OH274502   0.220   6.616   6.062 -0.1139 -0.6428  0.3116
17696TIP3    H174503   0.256   6.583   6.145  2.3736  2.4857  0.5796
17696TIP3    H274504   0.238   6.710   6.064 -0.1393 -0.4657 -3.7324
17697TIP3   OH274505   0.084   6.069   5.716 -0.6800  0.5023  0.0177
17697TIP3    H174506   0.166   6.084   5.763 -0.3333  2.2416 -1.1020
17697TIP3    H274507   0.019   6.123   5.761 -0.7272  0.8034 -0.4009
17698TIP3   OH274508   6.709   5.187   2.066  0.3307 -0.4214  0.2809
17698TIP3    H174509   6.668   5.236   1.994 -0.3691 -2.1941 -0.5447
17698TIP3    H274510   6.792   5.232   2.080 -0.6984  1.6068  0.2004
17699TIP3   OH274511   3.707   1.407  14.312  0.1858 -0.2410 -0.1620
17699TIP3    H174512   3.789   1.376  14.351 -0.3784 -1.6383 -0.0879
17699TIP3    H274513   3.657   1.442  14.386  0.2567 -0.4075 -0.0343
17700TIP3   OH274514   6.602   0.573   1.769  0.0356  0.1291  0.0248
17700TIP3    H174515   6.630   0.525   1.691  2.1941  0.7276  0.3958
17700TIP3    H274516   6.528   0.626   1.739 -0.6057 -1.3413 -1.0475
17701TIP3   OH274517   0.721   4.922   3.356 -0.4913  0.6303 -0.1120
17701TIP3    H174518   0.687   4.960   3.437 -0.6782  1.9418 -0.7985
17701TIP3    H274519   0.648   4.872   3.319  0.1028 -1.4348  1.3938
17702TIP3   OH274520   0.084   2.380   4.042  0.1119 -0.1914  0.5789
17702TIP3    H174521   0.178   2.365   4.031 -0.1733 -2.2049  0.6781
17702TIP3    H274522   0.058   2.428   3.963  1.1013 -0.1305  0.2779
17703TIP3   OH274523   6.756   0.414   5.090  0.3875  0.5354 -0.2903
17703TIP3    H174524   6.818   0.452   5.028  0.1480  0.3995 -0.6141
17703TIP3    H274525   6.673   0.412   5.043  0.3349 -0.1224 -0.1785
17704TIP3   OH274526   4.721   4.652   2.594  0.2712  0.1538 -0.0616
17704TIP3    H174527   4.796   4.711   2.592  1.7163 -1.5925  0.8774
17704TIP3    H274528   4.746   4.584   2.657 -1.8511 -0.7869 -0.1990
17705TIP3   OH274529   1.545   0.991  13.274  0.3290  0.1138 -0.5751
17705TIP3    H174530   1.549   0.932  13.349  0.1679  0.5370 -0.2320
17705TIP3    H274531   1.501   0.939  13.206 -1.0630  0.2874  0.1582
17706TIP3   OH274532   5.498   5.755   1.423 -0.0327 -0.1505  0.0690
17706TIP3    H174533   5.489   5.799   1.507 -1.0671  0.2749 -0.2570
17706TIP3    H274534   5.497   5.661   1.445 -2.2078 -0.0899  0.3720
17707TIP3   OH274535   1.448   3.009  10.599 -0.6239  0.0947  0.0930
17707TIP3    H174536   1.543   3.008  10.587 -0.6884  0.2366 -0.4297
17707TIP3    H274537   1.426   2.917  10.616 -0.1249  0.3709  2.3982
17708TIP3   OH274538   6.089   3.663   0.718  0.1402  0.1171  0.4699
17708TIP3    H174539   6.069   3.699   0.632 -0.1985  0.1779  0.5720
17708TIP3    H274540   6.162   3.717   0.750  0.3241  0.0352  0.1858
17709TIP3   OH274541   5.664   0.803   6.027  0.2646 -0.1658 -0.0990
17709TIP3    H174542   5.700   0.870   5.968  0.2523  0.5853  0.7432
17709TIP3    H274543   5.580   0.839   6.056 -0.4133 -1.1869 -0.7677
17710TIP3   OH274544   2.042   5.185  10.710  0.5050 -0.1414  0.7588
17710TIP3    H174545   1.981   5.119  10.743  0.2739  0.3229  1.2524
17710TIP3    H274546   2.102   5.202  10.782  0.5562  0.2015  0.6396
17711TIP3   OH274547   4.449   0.262  10.541  0.1182 -0.1192 -0.1246
17711TIP3    H174548   4.439   0.354  10.516 -0.1253  0.1503  0.9383
17711TIP3    H274549   4.537   0.257  10.577 -0.1755 -0.1208  0.5917
17712TIP3   OH274550   3.576   3.495  16.318  0.0676  0.4783 -0.1089
17712TIP3    H174551   3.504   3.538  16.364 -0.6992  1.4196 -2.1312
17712TIP3    H274552   3.579   3.537  16.232  1.6590 -1.0235 -0.8337
17713TIP3   OH274553   6.345   0.808  11.185  0.6857 -0.4181 -0.3481
17713TIP3    H174554   6.375   0.852  11.264 -0.7111 -1.8315  0.9875
17713TIP3    H274555   6.257   0.842  11.170  0.3351 -1.3209 -0.3865
17714TIP3   OH274556   5.901   4.323  14.930  0.3479 -0.1925 -0.2616
17714TIP3    H174557   5.951   4.403  14.915  0.0257 -0.1022 -0.8655
17714TIP3    H274558   5.907   4.275  14.847 -2.4732  0.8781 -1.1216
17715TIP3   OH274559   1.166   0.696  14.555  0.3354  0.1449 -0.4914
17715TIP3    H174560   1.207   0.782  14.547 -2.0457  1.2977 -0.6914
17715TIP3    H274561   1.212   0.655  14.629  2.1823  1.1477 -1.0437
17716TIP3   OH274562   3.051   2.621   2.953  0.3745 -0.0412 -0.2913
17716TIP3    H174563   3.110   2.595   3.024  0.8009  2.1824  0.2161
17716TIP3    H274564   2.966   2.587   2.979  0.7203 -0.0842  0.8220
17717TIP3   OH274565   3.644   0.999  11.676  0.1272 -0.5522  0.4054
17717TIP3    H174566   3.568   1.009  11.619  0.9703 -1.3086 -0.8653
17717TIP3    H274567   3.606   0.995  11.765 -1.1079  1.4747 -0.0001
17718TIP3   OH274568   0.853   2.879  13.361 -0.0956 -0.2232  0.4585
17718TIP3    H174569   0.871   2.894  13.268  0.4641  0.4055  0.6635
17718TIP3    H274570   0.775   2.931  13.379 -0.3348 -0.5206  0.2938
17719TIP3   OH274571   5.004   5.982  11.557  0.1378 -0.0613  0.0268
17719TIP3    H174572   4.925   5.998  11.608  0.4432  0.4861  0.3373
17719TIP3    H274573   5.049   6.066  11.555 -0.7906  0.4210 -2.8107
17720TIP3   OH274574   3.889   0.527  15.250 -0.0461  0.1510 -0.3890
17720TIP3    H174575   3.955   0.588  15.217  0.5353 -0.6727 -0.7638
17720TIP3    H274576   3.905   0.524  15.345  0.3088  0.1264 -0.4498
17721TIP3   OH274577   2.831   3.608   4.993  0.2178  0.0117  0.7175
17721TIP3    H174578   2.878   3.663   4.931 -1.2770  0.1035 -0.3584
17721TIP3    H274579   2.816   3.664   5.069 -0.6924  0.8836 -0.0959
17722TIP3   OH274580   5.808   2.561  12.629  0.2892 -0.1083 -0.2174
17722TIP3    H174581   5.774   2.559  12.539  1.6175  0.4793 -0.7464
17722TIP3    H274582   5.825   2.469  12.650  0.6633 -0.1825 -0.8396
17723TIP3   OH274583   6.120   0.997   4.271  0.3469  0.0578  0.5915
17723TIP3    H174584   6.115   1.083   4.313  0.5617  0.7676 -0.8235
17723TIP3    H274585   6.172   0.944   4.331  3.4112  1.9765 -0.2547
17724TIP3   OH274586   4.131   0.078  14.673 -0.0342 -0.5319  0.1078
17724TIP3    H174587   4.083   0.003  14.638 -0.8065  0.0720 -0.1470
17724TIP3    H274588   4.206   0.088  14.615 -2.0708  1.3751 -2.3227
17725TIP3   OH274589   4.264   4.572  16.376  0.4721  0.0103  0.2962
17725TIP3    H174590   4.360   4.570  16.368  0.6148  1.2250  1.4498
17725TIP3    H274591   4.234   4.604  16.291  1.0695 -0.7047 -0.1910
17726TIP3   OH274592   2.331   6.030   3.734 -0.0017  0.2649  0.3151
17726TIP3    H174593   2.303   6.036   3.643 -3.0656 -0.9456  1.1146
17726TIP3    H274594   2.393   5.957   3.736 -0.8925 -0.5232 -0.5931
17727TIP3   OH274595   3.683   6.323  16.031  1.1177  0.8046  0.4759
17727TIP3    H174596   3.722   6.263  16.095  0.0912 -0.4917 -0.0750
17727TIP3    H274597   3.637   6.265  15.970  1.9259  2.0382 -1.3365
17728TIP3   OH274598   4.665   0.181  15.341 -0.0357  0.1539 -0.0066
17728TIP3    H174599   4.620   0.124  15.403  0.8770 -0.2972  0.2503
17728TIP3    H274600   4.707   0.121  15.280 -0.4735  0.5868 -0.7500
17729TIP3   OH274601   3.850   6.147   3.008 -0.3905  0.9867 -0.1094
17729TIP3    H174602   3.935   6.161   3.049  0.1363  0.0357 -0.8380
17729TIP3    H274603   3.807   6.082   3.064 -0.2768  0.8061 -0.2309
17730TIP3   OH274604   5.189   2.856   4.887 -0.4509 -0.0613 -0.5680
17730TIP3    H174605   5.100   2.821   4.893  0.1465 -1.7981 -1.7109
17730TIP3    H274606   5.202   2.873   4.794  0.5769 -0.2299 -0.4530
17731TIP3   OH274607   6.446   5.985  16.601  0.6308 -0.4625  0.1288
17731TIP3    H174608   6.466   6.075  16.576  2.3721 -0.8679  0.0241
17731TIP3    H274609   6.527   5.936  16.583  0.6042 -1.5427  2.7525
17732TIP3   OH274610   5.043   1.132  15.924  0.4423  0.1351  0.1446
17732TIP3    H174611   5.032   1.167  15.835 -0.3472  0.5001  0.3819
17732TIP3    H274612   4.959   1.090  15.943 -0.0092  1.5531  1.3711
17733TIP3   OH274613   1.583   0.769  13.527 -0.3475 -0.2113 -0.3860
17733TIP3    H174614   1.563   0.800  13.615 -0.8078  2.8012 -1.4993
17733TIP3    H274615   1.507   0.717  13.501 -1.4037  1.1688 -0.0483
17734TIP3   OH274616   3.301   0.952  16.809  0.1224 -0.4153  0.1201
17734TIP3    H174617   3.272   1.038  16.777 -1.3807 -0.1501  2.1026
17734TIP3    H274618   3.278   0.891  16.739 -1.5758  0.3858 -0.0509
17735TIP3   OH274619   1.935   6.376   5.023  0.0377  0.1165  0.1995
17735TIP3    H174620   2.000   6.411   5.084  0.1579 -0.1795  0.2427
17735TIP3    H274621   1.893   6.453   4.985  0.1821  0.3045  0.4219
17736TIP3   OH274622   6.518   0.539  15.495 -0.0564 -0.0008 -0.3703
17736TIP3    H174623   6.496   0.476  15.427  0.0943  1.1587 -1.5090
17736TIP3    H274624   6.436   0.586  15.513 -0.1785 -0.5294  0.4972
17737TIP3   OH274625   2.793   5.586  11.944 -1.0330  0.0710 -0.5377
17737TIP3    H174626   2.781   5.555  12.034  0.5996  0.0145 -0.3260
17737TIP3    H274627   2.732   5.533  11.893 -1.7777 -0.0935  0.4801
17738TIP3   OH274628   3.571   1.661  14.324 -0.3387 -0.0388  0.2658
17738TIP3    H174629   3.558   1.745  14.280 -0.4824 -1.2212 -2.0250
17738TIP3    H274630   3.595   1.600  14.254  0.7254 -1.7079  2.0218
17739TIP3   OH274631   1.967   1.637   5.012  0.3377  0.3953  0.1741
17739TIP3    H174632   1.874   1.650   4.996  0.5903  1.1742 -0.7348
17739TIP3    H274633   1.999   1.595   4.931  0.2742 -2.3725  1.5149
17740TIP3   OH274634   1.616   1.555  13.206 -0.2605  0.4782  0.4042
17740TIP3    H174635   1.707   1.571  13.230 -0.6304  0.5470  1.7779
17740TIP3    H274636   1.621   1.500  13.128  0.9604  1.1584 -0.0194
17741TIP3   OH274637   4.227   3.235   0.138  0.2040  0.2778  0.1394
17741TIP3    H174638   4.172   3.204   0.210  0.8426 -0.1666  0.4386
17741TIP3    H274639   4.246   3.156   0.087 -0.9161  0.7116 -0.9810
17742TIP3   OH274640   1.257   2.654   4.507  0.1739  0.8124 -0.0729
17742TIP3    H174641   1.323   2.714   4.543 -0.1091  1.7064 -1.0544
17742TIP3    H274642   1.182   2.710   4.486  0.0128  0.1653 -1.2471
17743TIP3   OH274643   5.819   6.492  12.117  0.2137  0.0089 -0.0253
17743TIP3    H174644   5.808   6.455  12.204  0.5807 -0.1126 -0.0309
17743TIP3    H274645   5.758   6.442  12.062  0.0753  0.0025  0.1345
17744TIP3   OH274646   6.617   6.575  10.657 -0.3208 -0.2449 -0.4251
17744TIP3    H174647   6.667   6.629  10.596  0.8011  0.0369  0.7346
17744TIP3    H274648   6.597   6.633  10.730  0.4062 -1.2383  0.5711
17745TIP3   OH274649   2.456   3.513  14.634 -0.1667  0.7119 -0.4657
17745TIP3    H174650   2.413   3.492  14.551 -1.5237  2.0159 -0.1160
17745TIP3    H274651   2.463   3.429  14.679 -0.2725  0.1386 -1.4920
17746TIP3   OH274652   3.044   3.003  13.248  0.0764  0.3294  0.1416
17746TIP3    H174653   3.037   2.992  13.342  2.2232  0.4336  0.3467
17746TIP3    H274654   2.959   3.038  13.221 -1.2056 -1.4406  1.7465
17747TIP3   OH274655   3.095   1.925   2.714  0.2934  0.2020  0.6254
17747TIP3    H174656   3.126   1.960   2.798 -1.4103  1.2100  0.8640
17747TIP3    H274657   3.042   1.995   2.677  2.2331  0.3403 -2.0378
17748TIP3   OH274658   3.011   4.781  12.182 -0.4256  0.1277  0.1068
17748TIP3    H174659   2.948   4.852  12.198  0.7764  1.4721 -1.0332
17748TIP3    H274660   2.957   4.706  12.156 -1.5491  1.3113 -1.0436
17749TIP3   OH274661   5.930   4.537  16.845 -0.0066  0.0855 -0.7027
17749TIP3    H174662   6.004   4.593  16.821 -1.4954  2.4942  0.0584
17749TIP3    H274663   5.865   4.598  16.881 -2.5592 -1.8769 -1.8003
17750TIP3   OH274664   2.744   5.889  12.667 -0.4889  0.2208 -0.1636
17750TIP3    H174665   2.700   5.855  12.744 -2.4479 -0.8620 -1.7102
17750TIP3    H274666   2.702   5.844  12.594  0.4953  2.1041 -1.9362
17751TIP3   OH274667   1.153   2.956   1.544  0.0939  0.6503  0.2800
17751TIP3    H174668   1.202   3.007   1.609  2.6279  0.4173 -1.3891
17751TIP3    H274669   1.131   3.019   1.476  0.0684  0.2786 -0.0563
17752TIP3   OH274670   1.488   2.205  15.894  0.5390  0.1880  0.0844
17752TIP3    H174671   1.501   2.241  15.982 -0.0650 -1.0111  0.6828
17752TIP3    H274672   1.569   2.157  15.877 -0.0669 -1.1039  0.7574
17753TIP3   OH274673   0.181   5.856  15.286  0.2568 -0.1392  0.3964
17753TIP3    H174674   0.210   5.937  15.329 -2.3155  0.6896  0.6785
17753TIP3    H274675   0.197   5.787  15.350  0.8403  0.3983  0.8347
17754TIP3   OH274676   5.308   1.993   4.354 -0.1615  0.0861 -0.1137
17754TIP3    H174677   5.355   1.910   4.350 -0.6493 -0.1848 -0.2717
17754TIP3    H274678   5.376   2.059   4.364  0.1341 -0.4646  1.7505
17755TIP3   OH274679   4.857   0.417   4.680 -0.2105 -0.4339  0.2900
17755TIP3    H174680   4.792   0.349   4.697 -0.9363 -0.0002 -0.7604
17755TIP3    H274681   4.940   0.369   4.673 -0.8042 -1.2837 -1.0807
17756TIP3   OH274682   3.285   0.792  15.778  0.1866 -0.1395  0.1760
17756TIP3    H174683   3.266   0.701  15.757 -0.8053  0.3783 -1.2416
17756TIP3    H274684   3.214   0.819  15.836  1.1802 -0.6292  1.6475
17757TIP3   OH274685   5.084   3.695  13.226  0.2805 -0.3917 -0.4089
17757TIP3    H174686   5.062   3.785  13.249 -0.3285 -0.2713 -1.4562
17757TIP3    H274687   5.177   3.688  13.247  0.1099  0.1929  0.5763
17758TIP3   OH274688   5.651   5.667  14.654 -1.1998 -0.4031 -0.2729
17758TIP3    H174689   5.629   5.754  14.621 -0.4976  0.5771  1.7529
17758TIP3    H274690   5.731   5.643  14.607 -1.2586  0.1519 -0.6550
17759TIP3   OH274691   5.429   6.056  12.719  0.2316 -0.3744  0.0915
17759TIP3    H174692   5.380   6.025  12.794  2.6477 -1.1146  1.4143
17759TIP3    H274693   5.380   6.025  12.643 -1.9356 -0.0683  1.3498
17760TIP3   OH274694   0.656   1.646   1.653  0.0133  0.6334  1.0398
17760TIP3    H174695   0.690   1.734   1.637  1.5352 -0.2384 -0.6232
17760TIP3    H274696   0.562   1.653   1.632  0.1930  1.7594  0.5376
17761TIP3   OH274697   3.889   5.199   2.168  0.4683 -0.4732 -0.0492
17761TIP3    H174698   3.829   5.127   2.145  0.8553 -0.4088 -1.3185
17761TIP3    H274699   3.849   5.277   2.130  0.7675 -0.2498  0.0923
17762TIP3   OH274700   5.118   3.831   2.332 -0.4235 -0.1686  0.5895
17762TIP3    H174701   5.160   3.762   2.281 -0.4452 -0.9787  1.6447
17762TIP3    H274702   5.167   3.833   2.415 -0.4386  1.0642  0.5711
17763TIP3   OH274703   0.935   0.556   2.306 -0.7520  0.2817  0.1603
17763TIP3    H174704   0.963   0.482   2.253 -0.0480  1.0719 -0.5757
17763TIP3    H274705   0.857   0.590   2.261  0.7371  1.9022 -1.2551
17764TIP3   OH274706   2.484   5.143   4.018  0.4415  0.3408  0.1367
17764TIP3    H174707   2.501   5.088   3.941 -0.4856 -0.7013  0.6565
17764TIP3    H274708   2.423   5.091   4.070  0.9286  1.1239  1.4849
17765TIP3   OH274709   2.597   1.215   1.189 -0.3213  0.3431  0.0198
17765TIP3    H174710   2.525   1.153   1.181  0.9417 -1.3410  1.5158
17765TIP3    H274711   2.611   1.223   1.283  1.8108  0.2451 -0.2796
17766TIP3   OH274712   3.824   0.808   3.749  0.1941  0.3279  0.9081
17766TIP3    H174713   3.811   0.816   3.843 -2.3920 -1.4012  0.7445
17766TIP3    H274714   3.836   0.714   3.735  1.1974  0.6356 -0.4435
17767TIP3   OH274715   2.132   4.807   3.180  0.0684 -0.5000  0.1204
17767TIP3    H174716   2.187   4.734   3.209 -0.5590 -0.5952  1.0854
17767TIP3    H274717   2.065   4.815   3.248  1.0411  1.9885  0.8254
17768TIP3   OH274718   0.254   5.107  14.919  0.1000  0.2350 -0.2122
17768TIP3    H174719   0.231   5.180  14.861  0.5155 -0.2948 -1.0507
17768TIP3    H274720   0.297   5.148  14.993 -2.2213  1.1205  0.6975
17769TIP3   OH274721   0.367   0.423   1.393 -0.1218 -0.1997  0.0349
17769TIP3    H174722   0.354   0.375   1.312 -0.5943  1.5613 -0.9718
17769TIP3    H274723   0.396   0.357   1.456  1.0112 -1.4732 -1.7592
17770TIP3   OH274724   6.485   1.483   3.123 -0.4918 -0.5298 -0.3879
17770TIP3    H174725   6.530   1.533   3.190 -0.4276  0.0735 -0.8734
17770TIP3    H274726   6.448   1.549   3.064  0.8941 -1.0531 -1.8920
17771TIP3   OH274727   2.346   5.261  16.248 -0.9143 -0.4708  0.0958
17771TIP3    H174728   2.353   5.321  16.323 -1.3790 -0.7431  0.3585
17771TIP3    H274729   2.436   5.232  16.232 -1.0277 -1.6782  1.5880
17772TIP3   OH274730   6.720   0.087   5.796 -0.1875 -0.1714 -0.3686
17772TIP3    H174731   6.724   0.111   5.889  0.2715  1.6852 -0.8512
17772TIP3    H274732   6.638   0.039   5.787  0.0076 -0.8206  1.0948
17773TIP3   OH274733   4.337   5.502  15.618 -0.5407  0.3332 -0.4479
17773TIP3    H174734   4.312   5.558  15.691 -1.6837 -0.5691 -0.1418
17773TIP3    H274735   4.254   5.476  15.578  0.0714  0.8093 -2.0686
17774TIP3   OH274736   1.189   3.604   3.682  0.1995  0.4061 -0.2590
17774TIP3    H174737   1.110   3.656   3.669  0.0930  0.3693  0.2029
17774TIP3    H274738   1.166   3.517   3.649 -0.1878  0.2141  0.4768
17775TIP3   OH274739   4.336   4.752  14.393 -0.4850 -0.1692  0.4572
17775TIP3    H174740   4.349   4.750  14.488 -1.7452 -0.5441  0.6256
17775TIP3    H274741   4.352   4.662  14.365 -1.1683 -0.2931  0.4597
17776TIP3   OH274742   0.677   1.678  11.368 -0.0650  0.0978  0.1215
17776TIP3    H174743   0.708   1.592  11.396 -1.0437 -0.2526  0.1332
17776TIP3    H274744   0.757   1.731  11.360  0.6503 -1.1377 -1.0228
17777TIP3   OH274745   2.623   0.830  11.424  0.1284  0.7096 -0.0826
17777TIP3    H174746   2.535   0.855  11.397 -1.2194 -1.6218  1.9698
17777TIP3    H274747   2.623   0.734  11.419  2.4493  0.6709  0.2698
17778TIP3   OH274748   0.065   1.925  15.070 -0.1498  0.0220 -0.2038
17778TIP3    H174749   0.086   1.982  15.144  0.0295  0.9040 -0.9262
17778TIP3    H274750   0.107   1.967  14.995  0.7896 -1.5615 -0.6023
17779TIP3   OH274751   6.622   2.373  16.808  0.6869  0.1689  0.3583
17779TIP3    H174752   6.614   2.382  16.713 -0.7738 -1.5854  0.2854
17779TIP3    H274753   6.641   2.281  16.822  2.6903  0.7501  1.7090
17780TIP3   OH274754   6.395   4.364  15.075 -0.3985 -0.8356  0.0262
17780TIP3    H174755   6.476   4.318  15.096 -0.8445 -2.0116 -0.8229
17780TIP3    H274756   6.355   4.313  15.005 -0.5913  1.1967 -1.3769
17781TIP3   OH274757   0.431   6.740  14.449 -0.0246 -0.8520 -0.4301
17781TIP3    H174758   0.405   6.817  14.501 -1.4756 -0.8276 -1.1794
17781TIP3    H274759   0.473   6.682  14.513 -0.7490 -0.3237  0.5553
17782TIP3   OH274760   3.576   1.300  11.140  0.1317 -0.0700 -0.1343
17782TIP3    H174761   3.482   1.293  11.158  0.5688 -3.4319  1.1043
17782TIP3    H274762   3.617   1.308  11.226  1.0585  0.5697 -0.6278
17783TIP3   OH274763   5.870   1.948  13.189 -0.0246 -0.1243 -0.0936
17783TIP3    H174764   5.891   1.855  13.192  1.0125  0.1073 -0.0023
17783TIP3    H274765   5.776   1.951  13.170  0.4020 -1.1503 -2.5607
17784TIP3   OH274766   2.031   2.968   5.060  0.0916  0.1001 -0.8065
17784TIP3    H174767   1.982   2.944   4.982 -0.1243  0.9172 -0.9271
17784TIP3    H274768   2.083   3.044   5.034  2.6017 -1.6523 -1.1344
17785TIP3   OH274769   6.731   1.924  13.584  0.0087  0.4959 -0.2798
17785TIP3    H174770   6.698   1.854  13.640  1.1093 -1.2377 -1.7275
17785TIP3    H274771   6.660   1.988  13.580 -0.8886 -0.3814  1.3465
17786TIP3   OH274772   5.497   0.057   3.790  0.0392  0.5468  0.1104
17786TIP3    H174773   5.574   0.096   3.749 -0.1196  0.4778 -0.2579
17786TIP3    H274774   5.427   0.121   3.774 -0.2365  0.0825 -0.5505
17787TIP3   OH274775   3.039   4.580   4.395 -0.2343 -0.0163 -0.7246
17787TIP3    H174776   2.963   4.558   4.450  1.2438  2.3398  2.4475
17787TIP3    H274777   3.003   4.639   4.329 -1.3561  0.4187  0.2348
17788TIP3   OH274778   1.066   5.732   0.804  0.3034  0.2244  0.4105
17788TIP3    H174779   1.100   5.676   0.734  0.1021 -0.0013  0.4880
17788TIP3    H274780   0.990   5.683   0.837 -0.2557  0.8488  0.0515
17789TIP3   OH274781   0.396   1.441  15.758 -0.1067  0.3952 -0.0343
17789TIP3    H174782   0.397   1.371  15.823 -1.2226  0.7384  0.3626
17789TIP3    H274783   0.332   1.504  15.792 -1.6209 -0.0147 -2.0836
17790TIP3   OH274784   3.901   2.642   1.610 -0.5101 -0.0853 -0.2321
17790TIP3    H174785   3.856   2.694   1.544 -0.2068  0.7445  0.1945
17790TIP3    H274786   3.840   2.640   1.684 -0.7254 -0.7570 -0.4273
17791TIP3   OH274787   2.003   3.217  16.592  0.2433  0.6578 -0.4340
17791TIP3    H174788   1.915   3.181  16.607 -0.6146  3.0191  0.5202
17791TIP3    H274789   2.001   3.247  16.501  1.1586 -2.1234 -1.4237
17792TIP3   OH274790   4.376   5.317   1.040  0.5134  0.1349  0.3448
17792TIP3    H174791   4.340   5.387   1.094 -3.6726 -0.3219 -1.6193
17792TIP3    H274792   4.388   5.244   1.101  1.0273  1.2867  1.6502
17793TIP3   OH274793   5.175   3.020  14.023 -0.3047 -0.2329 -0.0319
17793TIP3    H174794   5.160   3.058  14.110  1.3576 -0.4418  0.3660
17793TIP3    H274795   5.176   2.925  14.039 -4.1832 -0.4842 -0.9738
17794TIP3   OH274796   6.470   1.326   6.281  0.6062 -0.2025 -0.1951
17794TIP3    H174797   6.523   1.259   6.238  0.4017 -0.8475  0.5404
17794TIP3    H274798   6.380   1.306   6.253  0.4344 -0.8283  0.7844
17795TIP3   OH274799   4.917   0.020   5.989  0.0630 -0.2046 -0.0996
17795TIP3    H174800   4.965   0.094   5.954 -0.2258 -0.7119 -1.6126
17795TIP3    H274801   4.969  -0.056   5.966 -0.4962 -0.6108 -0.0540
17796TIP3   OH274802   3.319   4.662   3.903 -0.0319 -0.0174 -0.5892
17796TIP3    H174803   3.226   4.659   3.928  0.0235  0.8881 -0.2462
17796TIP3    H274804   3.326   4.737   3.845  0.7070  0.6600  0.3522
17797TIP3   OH274805   0.768   3.588  13.734 -0.1344 -0.7365  0.8988
17797TIP3    H174806   0.676   3.615  13.741  0.4052  1.4682  0.0354
17797TIP3    H274807   0.802   3.594  13.823 -0.4736 -0.2207  0.9933
17798TIP3   OH274808   0.867   1.879  15.443  0.0355 -0.5802 -0.0357
17798TIP3    H174809   0.959   1.870  15.416 -0.1679 -0.1558 -0.8690
17798TIP3    H274810   0.837   1.959  15.400 -0.5970 -0.4594  0.6161
17799TIP3   OH274811   2.410   1.119   1.564  0.9546  0.1736  0.2440
17799TIP3    H174812   2.406   1.026   1.540  0.9629 -0.2756  1.9086
17799TIP3    H274813   2.482   1.154   1.511  2.4463 -1.2902  1.2358
17800TIP3   OH274814   1.423   0.973  10.846 -0.3624 -0.3637 -0.0795
17800TIP3    H174815   1.361   0.903  10.870 -0.6845  0.0301  0.2392
17800TIP3    H274816   1.505   0.948  10.889 -0.7772  0.0274  0.9494
17801TIP3   OH274817   6.052   5.363   4.273  0.3291 -0.4499 -0.1110
17801TIP3    H174818   6.089   5.293   4.219 -0.9210 -0.9299 -0.3647
17801TIP3    H274819   6.029   5.432   4.210  0.0817 -0.4763 -0.0530
17802TIP3   OH274820   2.766   0.553   5.216  0.1469  0.1250  0.5354
17802TIP3    H174821   2.733   0.467   5.242  0.7538  0.0813  1.1728
17802TIP3    H274822   2.794   0.594   5.297  2.2208 -0.0891 -0.0198
17803TIP3   OH274823   6.460   5.627   6.714 -0.2019  0.2176  0.1296
17803TIP3    H174824   6.382   5.677   6.689 -0.2414 -0.3344 -0.8854
17803TIP3    H274825   6.530   5.662   6.660 -0.1218 -0.4760 -0.2266
17804TIP3   OH274826   0.431   4.087   4.420  0.2672  0.1459 -0.0565
17804TIP3    H174827   0.504   4.072   4.361  0.4856  1.0723 -0.0248
17804TIP3    H274828   0.454   4.040   4.500  1.6128  1.8480  0.5665
17805TIP3   OH274829   5.525   3.997   0.808 -0.3088  0.2690  0.3234
17805TIP3    H174830   5.569   3.983   0.724 -3.8093  1.3704 -1.7804
17805TIP3    H274831   5.448   3.941   0.805 -0.2959  0.0195  3.0169
17806TIP3   OH274832   0.528   4.514  12.434 -0.0183  0.0245  0.0726
17806TIP3    H174833   0.533   4.438  12.492 -1.0909 -0.8944 -1.0201
17806TIP3    H274834   0.446   4.557  12.457 -0.0076  0.1671 -0.1534
17807TIP3   OH274835   1.547   1.271  11.035  0.3695  0.5176 -0.1950
17807TIP3    H174836   1.561   1.325  11.112  0.2002  2.1688 -1.2964
17807TIP3    H274837   1.563   1.182  11.065 -2.2123  0.8478  2.3928
17808TIP3   OH274838   4.149   3.618   1.071 -0.3708 -0.3124 -0.1899
17808TIP3    H174839   4.234   3.631   1.112 -0.4829 -1.2727  0.3692
17808TIP3    H274840   4.168   3.608   0.977 -0.0210  0.9258 -0.2550
17809TIP3   OH274841   5.684   1.719   3.669  0.0430  0.2090  0.7144
17809TIP3    H174842   5.635   1.638   3.685  0.1260  0.1571  0.7024
17809TIP3    H274843   5.764   1.690   3.625 -0.0510  0.3249  0.4695
17810TIP3   OH274844   4.778   3.093  11.114  0.1118 -0.3312 -0.2689
17810TIP3    H174845   4.838   3.048  11.174  0.5812  2.0781  1.1229
17810TIP3    H274846   4.692   3.058  11.137  0.1801  1.1560  2.4401
17811TIP3   OH274847   5.464   6.660  13.305  0.1231 -0.3917  0.4898
17811TIP3    H174848   5.481   6.605  13.229  1.2626 -0.2267  0.6116
17811TIP3    H274849   5.493   6.608  13.379 -0.6159 -0.3949  0.7782
17812TIP3   OH274850   2.608   1.511  12.182 -0.5935  0.1576 -0.0563
17812TIP3    H174851   2.617   1.592  12.131 -0.4421  0.5153  0.5357
17812TIP3    H274852   2.696   1.493  12.214 -0.6479 -0.1926 -0.1055
17813TIP3   OH274853   4.416   0.260  12.081  0.0698 -0.1270  0.6694
17813TIP3    H174854   4.458   0.257  12.168  0.3304  0.5740  0.5676
17813TIP3    H274855   4.477   0.310  12.027  0.7574 -2.0488 -0.3824
17814TIP3   OH274856   1.921   0.147  11.445  0.5210 -0.4524  0.1585
17814TIP3    H174857   1.896   0.077  11.384 -1.3809  1.5070 -1.4159
17814TIP3    H274858   1.842   0.164  11.495  1.5283 -0.6936  1.8662
17815TIP3   OH274859   6.681   5.459  12.784  0.0814  0.2550  0.4620
17815TIP3    H174860   6.693   5.375  12.739  1.1535  0.7407 -0.1789
17815TIP3    H274861   6.766   5.477  12.823 -0.2834  0.8255  1.0015
17816TIP3   OH274862   5.912   0.297   3.431  0.0816 -0.4567  0.0105
17816TIP3    H174863   5.901   0.379   3.479 -0.2696  0.6747 -1.9867
17816TIP3    H274864   6.004   0.273   3.445 -0.0075 -0.1345  1.2081
17817TIP3   OH274865   0.735   2.342   2.539  0.3534 -0.1114 -0.4141
17817TIP3    H174866   0.684   2.402   2.593  1.4582  1.1753 -0.7564
17817TIP3    H274867   0.816   2.328   2.588  1.3601  1.0563 -1.6861
17818TIP3   OH274868   5.537   2.037   0.979 -0.1392  0.1383 -0.5509
17818TIP3    H174869   5.520   2.042   1.073 -0.0978 -2.9886 -0.3192
17818TIP3    H274870   5.620   2.084   0.967 -0.2811  0.7735  0.9331
17819TIP3   OH274871   3.604   2.081   4.467  0.5286 -0.1061  0.0001
17819TIP3    H174872   3.630   1.999   4.423 -0.6382 -0.3259 -0.2977
17819TIP3    H274873   3.562   2.133   4.398  1.3808  0.8046  0.1603
17820TIP3   OH274874   3.778   2.371   4.924  0.3689  0.0359  0.0334
17820TIP3    H174875   3.700   2.358   4.869  0.8987  1.2869 -1.0215
17820TIP3    H274876   3.842   2.309   4.890 -0.0660 -0.7897  0.7135
17821TIP3   OH274877   5.367   3.435  15.856  0.0577 -0.0615 -0.3431
17821TIP3    H174878   5.433   3.366  15.856 -0.5768 -0.6761 -0.1182
17821TIP3    H274879   5.389   3.489  15.932  2.9652  2.3485 -2.7873
17822TIP3   OH274880   3.490   0.883  13.078  0.4281 -0.9566 -0.6651
17822TIP3    H174881   3.484   0.978  13.074 -0.8158 -0.9580  0.7959
17822TIP3    H274882   3.540   0.865  13.158  1.2243 -1.5169 -1.2810
17823TIP3   OH274883   1.030   1.466   1.649 -0.8465 -0.0440 -0.2301
17823TIP3    H174884   1.052   1.550   1.609 -0.1107  0.8390  1.9476
17823TIP3    H274885   1.111   1.437   1.691 -1.4539 -1.1510  0.2143
17824TIP3   OH274886   0.999   2.863   4.394  0.0100  0.0917 -0.1213
17824TIP3    H174887   0.910   2.832   4.379 -0.2629  1.5483 -1.6632
17824TIP3    H274888   0.996   2.904   4.480 -0.3438 -1.4494  0.6246
17825TIP3   OH274889   2.265   5.404   5.977 -0.1524  0.2430 -0.0995
17825TIP3    H174890   2.256   5.356   6.060  0.8699  1.3216  0.6536
17825TIP3    H274891   2.178   5.400   5.937  0.0181 -2.6577 -0.2874
17826TIP3   OH274892   5.284   3.817  14.358  0.8488  0.5080  0.0017
17826TIP3    H174893   5.359   3.792  14.411  2.1385 -0.4493 -2.2270
17826TIP3    H274894   5.271   3.910  14.376  0.2117 -0.1388  3.2184
17827TIP3   OH274895   4.257   5.037  15.837 -0.5952  0.2822 -0.1888
17827TIP3    H174896   4.339   4.998  15.867 -0.2184  0.0274 -1.5035
17827TIP3    H274897   4.207   5.053  15.917 -1.2852 -3.9886  0.3344
17828TIP3   OH274898   3.770   0.420  13.343  0.3442 -0.0913 -0.2874
17828TIP3    H174899   3.808   0.486  13.403  1.4114 -1.4281  0.5375
17828TIP3    H274900   3.724   0.472  13.277  0.5844  1.4742  0.7371
17829TIP3   OH274901   5.980   2.399   3.371 -0.5813  0.6542  0.1757
17829TIP3    H174902   5.886   2.417   3.378 -1.2099 -1.6022 -1.7193
17829TIP3    H274903   5.986   2.304   3.368  1.8222  0.7606  0.7161
17830TIP3   OH274904   0.959   1.774   4.780 -0.1641  0.1871 -0.0406
17830TIP3    H174905   1.028   1.733   4.832 -0.0223 -0.0652 -0.4252
17830TIP3    H274906   0.883   1.774   4.838  0.3467  1.1239  0.6412
17831TIP3   OH274907   3.383   3.305  15.195 -0.2706 -0.6420 -0.1685
17831TIP3    H174908   3.420   3.333  15.112 -1.1235  1.3486  0.0939
17831TIP3    H274909   3.290   3.328  15.189 -0.2672 -0.1090  1.4729
17832TIP3   OH274910   2.578   3.981  16.993  0.0882  0.0791  0.0115
17832TIP3    H174911   2.507   3.936  16.947  1.0427  0.6171 -2.0271
17832TIP3    H274912   2.588   4.064  16.945  1.6474  0.2971  0.7089
17833TIP3   OH274913   1.324   2.798   3.480  0.7773 -0.9158  0.4244
17833TIP3    H174914   1.414   2.803   3.448  0.5112 -0.6880 -0.3007
17833TIP3    H274915   1.316   2.710   3.517  0.7781 -1.5798 -1.1125
17834TIP3   OH274916   4.417   1.230  11.414  0.2882  0.1327 -0.0306
17834TIP3    H174917   4.430   1.140  11.445 -0.6591 -0.3936 -1.1352
17834TIP3    H274918   4.347   1.264  11.469  0.5327  0.1407  0.2776
17835TIP3   OH274919   1.569   6.603  10.976  0.4351  0.0312 -0.0768
17835TIP3    H174920   1.528   6.589  11.061  0.9490  0.6339  0.2750
17835TIP3    H274921   1.639   6.537  10.972 -0.4525 -0.9051 -0.6179
17836TIP3   OH274922   3.137   0.268   0.009 -0.0513 -0.8005  0.2421
17836TIP3    H174923   3.102   0.179   0.015 -0.1753 -0.6714  1.5422
17836TIP3    H274924   3.108   0.299  -0.076  0.5846 -2.2604 -0.5350
17837TIP3   OH274925   5.979   4.114  13.032  0.0918  0.0383  0.1446
17837TIP3    H174926   6.055   4.139  13.084 -0.0228  0.0979  0.2883
17837TIP3    H274927   5.953   4.029  13.067 -0.2108  0.2484  0.4427
17838TIP3   OH274928   0.437   6.331  15.126  0.2830  0.3762 -0.1270
17838TIP3    H174929   0.401   6.277  15.056 -0.7202 -0.1373  0.7711
17838TIP3    H274930   0.531   6.315  15.122  0.5029  1.9315 -2.6785
17839TIP3   OH274931   5.904   0.020  15.091  0.0882  0.7449 -0.3098
17839TIP3    H174932   5.914  -0.037  15.015 -3.3871  1.5933 -1.4892
17839TIP3    H274933   5.959   0.096  15.072  1.3377 -0.2527 -0.7222
17840TIP3   OH274934   0.719   0.289   0.599 -0.6988  0.1944 -0.3519
17840TIP3    H174935   0.685   0.293   0.689 -0.7306 -0.1707 -0.3471
17840TIP3    H274936   0.753   0.200   0.590  1.6617  1.0136  0.1433
17841TIP3   OH274937   1.701   4.646   3.255  0.3020  0.2713 -0.3366
17841TIP3    H174938   1.716   4.577   3.321  1.0098  1.7256  1.0571
17841TIP3    H274939   1.774   4.637   3.194  0.2686 -0.3748 -0.2845
17842TIP3   OH274940   3.658   6.372  17.106  0.2965  0.0482  0.3681
17842TIP3    H174941   3.643   6.410  17.020 -1.1739 -0.0531  0.5791
17842TIP3    H274942   3.700   6.287  17.088 -1.0086 -0.4620 -0.2905
17843TIP3   OH274943   0.833   5.443   6.538 -0.1421 -0.1064 -0.2886
17843TIP3    H174944   0.741   5.459   6.517  0.4380 -0.6441 -3.6153
17843TIP3    H274945   0.874   5.529   6.533 -0.7926  0.4550  3.2815
17844TIP3   OH274946   5.017   4.267  12.207  0.2895 -0.3109 -0.0921
17844TIP3    H174947   5.068   4.307  12.277  0.2416  1.0379 -0.8084
17844TIP3    H274948   4.927   4.295  12.224  0.1864 -0.4872 -0.3440
17845TIP3   OH274949   6.499   5.575  15.670  0.4112  0.1310  0.6764
17845TIP3    H174950   6.570   5.597  15.730  2.0124  2.7408 -2.0155
17845TIP3    H274951   6.490   5.652  15.615 -2.3307 -1.4227 -1.1576
17846TIP3   OH274952   5.654   3.867  12.488 -0.1993 -0.0458  0.1426
17846TIP3    H174953   5.658   3.785  12.537 -1.7720  0.1581  0.6492
17846TIP3    H274954   5.567   3.865  12.446  0.4697  0.5309 -1.3038
17847TIP3   OH274955   1.699   6.778  10.715  0.2984 -0.0658 -0.3121
17847TIP3    H174956   1.609   6.808  10.704  0.6705  0.8456 -0.9338
17847TIP3    H274957   1.711   6.711  10.648  0.1286 -0.0806 -0.3282
17848TIP3   OH274958   1.350   4.143   4.444  0.8780 -0.1832  0.0572
17848TIP3    H174959   1.427   4.092   4.422  0.9924  0.4670 -1.1416
17848TIP3    H274960   1.286   4.079   4.474  0.3364 -1.3355 -3.2837
17849TIP3   OH274961   3.931   0.467   4.674 -0.6229  0.6140 -0.0551
17849TIP3    H174962   3.844   0.494   4.647 -1.2327 -1.1396  0.0778
17849TIP3    H274963   3.922   0.374   4.695  1.4533  0.1943 -0.8466
17850TIP3   OH274964   3.923   4.699  16.888 -0.0631 -0.2905 -0.0641
17850TIP3    H174965   3.946   4.790  16.907 -2.0293  0.0992  0.5304
17850TIP3    H274966   3.931   4.691  16.793  0.5265  0.3681 -0.0798
17851TIP3   OH274967   5.046   3.789  14.209  0.3959  0.1119  0.7244
17851TIP3    H174968   5.121   3.794  14.268  0.8809 -1.0536  0.2300
17851TIP3    H274969   4.972   3.770  14.266  0.7573 -0.3688  1.0425
17852TIP3   OH274970   1.035   0.547   3.474  0.5028  0.1468 -0.2141
17852TIP3    H174971   1.118   0.576   3.436 -0.6923  1.0014 -2.2409
17852TIP3    H274972   0.971   0.610   3.442 -0.8507 -0.2121  1.7522
17853TIP3   OH274973   0.691   3.429  16.326 -0.1197  0.2349 -0.1571
17853TIP3    H174974   0.717   3.384  16.406 -1.3165  1.6619  1.0818
17853TIP3    H274975   0.611   3.384  16.298  0.1788 -0.1245 -0.4407
17854TIP3   OH274976   4.832   5.851   0.444 -0.1571 -0.7002 -0.1599
17854TIP3    H174977   4.761   5.795   0.476  1.0299 -1.2745  1.5918
17854TIP3    H274978   4.794   5.938   0.440 -1.2688 -1.1849 -0.2569
17855TIP3   OH274979   5.645   2.840   3.825 -0.1399  0.3928 -0.1686
17855TIP3    H174980   5.572   2.779   3.811 -0.3790  1.1312 -2.2207
17855TIP3    H274981   5.722   2.792   3.797 -0.0637  0.2939  0.2051
17856TIP3   OH274982   2.169   4.585  13.844 -0.3638  0.2986 -0.1695
17856TIP3    H174983   2.192   4.659  13.789  1.5589 -0.9189 -1.0663
17856TIP3    H274984   2.122   4.525  13.786 -0.9024  0.3009  0.2596
17857TIP3   OH274985   0.532   2.037  16.997  0.0058 -0.0998 -0.4085
17857TIP3    H174986   0.473   1.962  17.000  0.5064 -0.5088 -0.5691
17857TIP3    H274987   0.562   2.047  17.087  1.1784 -1.1083 -0.6704
17858TIP3   OH274988   0.268   2.806  17.157 -0.1019 -0.0618 -0.1316
17858TIP3    H174989   0.315   2.864  17.217 -0.1723 -0.2359  0.0953
17858TIP3    H274990   0.265   2.854  17.074  0.4123 -0.0221 -0.1276
17859TIP3   OH274991   5.209   4.929  12.184  0.1404 -0.1556  0.4147
17859TIP3    H174992   5.182   4.857  12.127 -0.7519  0.0255  0.5936
17859TIP3    H274993   5.220   4.888  12.270  0.5093 -0.2478  0.3207
17860TIP3   OH274994   3.532   1.616  11.808  0.1516  0.0819 -0.0972
17860TIP3    H174995   3.615   1.663  11.818  0.7273 -0.9717  0.1820
17860TIP3    H274996   3.556   1.523  11.814 -0.9353 -0.2575 -0.8696
17861TIP3   OH274997   2.146   2.048  15.075  0.2244  0.0853  0.1417
17861TIP3    H174998   2.064   2.043  15.124  0.4325  0.1038  0.4886
17861TIP3    H274999   2.147   1.967  15.023 -0.3221  0.3886 -0.3475
17862TIP3   OH275000   5.506   1.012  14.636 -0.5824 -0.1665  0.0215
17862TIP3    H175001   5.526   0.920  14.656 -0.3994  0.1387  1.2883
17862TIP3    H275002   5.590   1.057  14.648 -0.8636  0.2930  0.2545
17863TIP3   OH275003   3.303   0.532   3.250 -0.3148 -0.0453  1.5547
17863TIP3    H175004   3.210   0.552   3.254 -0.1298  0.9699  0.8833
17863TIP3    H275005   3.318   0.503   3.160  0.0922  0.2060  1.5376
17864TIP3   OH275006   3.394   0.290  16.694 -0.6448 -0.4547 -0.0801
17864TIP3    H175007   3.398   0.225  16.624  0.3999  1.3629 -1.7532
17864TIP3    H275008   3.482   0.328  16.698 -1.9990  3.0710 -1.3379
17865TIP3   OH275009   0.914   3.319  15.228 -0.2561 -0.2248  0.1623
17865TIP3    H175010   0.910   3.301  15.322  2.8440  0.5971  0.4816
17865TIP3    H275011   0.886   3.410  15.219  1.3361  0.3049  0.5158
17866TIP3   OH275012   2.895   2.259   6.476  0.2948 -0.8846 -0.4735
17866TIP3    H175013   2.878   2.325   6.543  1.8589 -1.2537  0.2984
17866TIP3    H275014   2.822   2.197   6.485  1.4340 -1.9111  2.1255
17867TIP3   OH275015   5.776   6.215  15.367 -0.8202  0.3356 -0.2001
17867TIP3    H175016   5.680   6.210  15.370 -0.7126 -1.4819  0.8865
17867TIP3    H275017   5.794   6.296  15.319 -2.9049  1.3388  0.6214
17868TIP3   OH275018   3.705   5.571   5.905  0.3950  0.4692 -0.6482
17868TIP3    H175019   3.622   5.537   5.871  0.6482  2.1473 -3.1348
17868TIP3    H275020   3.707   5.544   5.997 -3.4472  1.4048 -0.2168
17869TIP3   OH275021   1.763   0.743  14.433  0.0761  0.0871 -0.6615
17869TIP3    H175022   1.736   0.796  14.508 -2.3524  0.9101 -2.0659
17869TIP3    H275023   1.858   0.756  14.428  0.4315 -0.7719  2.8192
17870TIP3   OH275024   3.045   2.019   5.435 -0.1674 -0.1879 -0.0808
17870TIP3    H175025   3.023   2.077   5.508 -0.9661  0.3664 -0.7478
17870TIP3    H275026   3.136   2.040   5.414  0.5079 -1.3208  1.6373
17871TIP3   OH275027   4.741   4.200  13.325  0.1620 -0.0931  0.0272
17871TIP3    H175028   4.700   4.155  13.251  2.5812 -0.2372 -1.2647
17871TIP3    H275029   4.724   4.293  13.308  0.2206 -0.1622 -0.4177
17872TIP3   OH275030   4.790   5.258  16.633 -0.4886  0.0875  0.1158
17872TIP3    H175031   4.876   5.219  16.651 -0.2127  1.7325  2.6384
17872TIP3    H275032   4.809   5.336  16.580 -0.4986  0.0990  0.1299
17873TIP3   OH275033   2.772   2.520   0.210  0.1160 -0.7131 -0.1728
17873TIP3    H175034   2.694   2.471   0.236  0.0922 -0.9508 -0.7032
17873TIP3    H275035   2.750   2.558   0.125 -0.0630  0.6539  0.4687
17874TIP3   OH275036   3.186   3.721   5.430 -0.4158 -0.2511  0.2342
17874TIP3    H175037   3.228   3.773   5.362 -1.6496 -0.8310 -1.0257
17874TIP3    H275038   3.258   3.682   5.479  0.5124  0.1002 -0.8214
17875TIP3   OH275039   6.598   4.522   1.821  0.2830  0.1060 -0.3364
17875TIP3    H175040   6.635   4.551   1.738  0.0935  1.6689  0.1068
17875TIP3    H275041   6.504   4.532   1.810  0.3126  1.3656  0.4230
17876TIP3   OH275042   2.057   3.833  13.255 -0.1534  0.2956  0.1239
17876TIP3    H175043   2.045   3.867  13.344  1.4681  1.9088 -0.2423
17876TIP3    H275044   1.968   3.817  13.223 -0.9234  2.8738  0.8519
17877TIP3   OH275045   4.834   0.028  11.083  0.0927  0.1566 -0.3317
17877TIP3    H175046   4.894   0.001  11.152  1.6056 -0.9908 -2.0577
17877TIP3    H275047   4.814  -0.053  11.036 -1.1120  0.8871 -1.1056
17878TIP3   OH275048   0.071   2.645   0.053  0.1442  0.3785  0.4559
17878TIP3    H175049  -0.005   2.688   0.013 -0.0037 -1.1227 -0.9357
17878TIP3    H275050   0.147   2.685   0.009  0.1272  1.1320  1.1013
17879TIP3   OH275051   3.314   2.150  11.546 -0.0764  0.1999  0.5359
17879TIP3    H175052   3.386   2.174  11.605  1.0100 -2.1522  0.2298
17879TIP3    H275053   3.353   2.154  11.458  0.2420 -2.7654  0.4829
17880TIP3   OH275054   5.707   5.444   1.593 -0.3784 -0.3671  0.5667
17880TIP3    H175055   5.612   5.455   1.591 -0.4777 -1.1693  0.7193
17880TIP3    H275056   5.741   5.514   1.537 -1.1609 -1.2165 -0.9836
17881TIP3   OH275057   1.370   3.473   4.155  0.4495  0.4461  0.2173
17881TIP3    H175058   1.302   3.528   4.117  0.3205 -1.1499 -1.9858
17881TIP3    H275059   1.426   3.533   4.203 -1.7342  1.9713  0.9255
17882TIP3   OH275060   0.174   1.551  14.145 -0.5224 -0.4219  0.2242
17882TIP3    H175061   0.188   1.600  14.226 -0.0915  0.4309 -0.3590
17882TIP3    H275062   0.082   1.564  14.124  0.0463  1.8854 -1.0334
17883TIP3   OH275063   2.801   1.710  14.466 -0.5354  0.0507  0.1867
17883TIP3    H175064   2.785   1.616  14.460 -1.4025  0.2825 -1.4546
17883TIP3    H275065   2.755   1.747  14.391  2.0729  1.4805 -0.7892
17884TIP3   OH275066   4.052   5.336  12.911 -0.3638 -0.0899 -0.8948
17884TIP3    H175067   4.105   5.258  12.893  1.5606  1.0832 -0.4714
17884TIP3    H275068   4.116   5.405  12.928 -2.0453  1.4606 -0.7069
17885TIP3   OH275069   0.078   3.025  15.098  0.6502 -0.6558  0.9504
17885TIP3    H175070   0.099   2.964  15.027  1.0360 -0.8948  1.2702
17885TIP3    H275071   0.034   2.971  15.164  0.7463 -0.5343  1.1138
17886TIP3   OH275072   5.432   0.630   5.244  0.1170 -0.4067  0.4098
17886TIP3    H175073   5.422   0.723   5.266 -1.1504 -0.7959  1.4913
17886TIP3    H275074   5.522   0.609   5.270  0.4566  0.5463  0.0312
17887TIP3   OH275075   0.269   3.304   5.387 -0.0089  0.2374 -0.0747
17887TIP3    H175076   0.353   3.276   5.424 -0.5043 -0.0607  0.8512
17887TIP3    H275077   0.204   3.265   5.445 -0.7646  1.3024 -0.2028
17888TIP3   OH275078   1.463   2.664  12.247  0.3529  0.5011 -0.5075
17888TIP3    H175079   1.466   2.664  12.343 -0.8314 -2.1977 -0.4311
17888TIP3    H275080   1.405   2.737  12.225 -2.0351 -0.8722  0.9988
17889TIP3   OH275081   2.576   2.638   3.764 -0.2333  0.2041 -0.5007
17889TIP3    H175082   2.635   2.640   3.839 -2.6119  0.2619  1.4465
17889TIP3    H275083   2.499   2.688   3.793 -1.8215 -1.0585 -2.4271
17890TIP3   OH275084   5.363   5.537  14.169 -0.1294 -0.4683  0.4555
17890TIP3    H175085   5.364   5.442  14.179  1.6866 -0.3363  1.6619
17890TIP3    H275086   5.281   5.564  14.212 -0.0065 -1.3722  1.2856
17891TIP3   OH275087   4.482   2.890   2.191  0.1987  0.3713 -0.2149
17891TIP3    H175088   4.408   2.951   2.197  0.4184  0.6804 -0.6224
17891TIP3    H275089   4.557   2.941   2.222  0.1241 -0.1478  0.8244
17892TIP3   OH275090   4.842   2.354   4.378 -0.0424 -0.5400  0.4655
17892TIP3    H175091   4.844   2.272   4.428  1.1984 -1.5783 -1.2319
17892TIP3    H275092   4.927   2.357   4.334 -1.4056 -0.1101 -2.2523
17893TIP3   OH275093   3.099   0.397  14.073 -0.2245  0.7357 -0.0774
17893TIP3    H175094   3.114   0.446  14.155  0.2199  0.7217 -0.1529
17893TIP3    H275095   3.079   0.308  14.102  1.1400  0.4389 -0.0372
17894TIP3   OH275096   0.823   1.080  12.714 -0.6749  0.0215  0.4476
17894TIP3    H175097   0.851   1.168  12.736  1.6131 -1.0239  1.8686
17894TIP3    H275098   0.832   1.074  12.619 -0.1035  1.0495  0.4367
17895TIP3   OH275099   3.482   5.237   4.200 -0.1736 -0.0516  0.1008
17895TIP3    H175100   3.566   5.225   4.155  0.8081 -1.4025  2.1869
17895TIP3    H275101   3.436   5.154   4.185 -1.1551  0.6844 -1.0242
17896TIP3   OH275102   3.924   3.820   4.611 -0.2842 -0.0199 -0.3401
17896TIP3    H175103   3.849   3.760   4.621 -0.0525 -0.0621  1.1637
17896TIP3    H275104   3.936   3.859   4.697 -0.0826  1.8141 -1.1656
17897TIP3   OH275105   1.238   4.211   1.199  0.2775  0.6070  0.0241
17897TIP3    H175106   1.296   4.228   1.125  0.3028  0.6818  0.0614
17897TIP3    H275107   1.214   4.119   1.190 -0.8282  0.9654 -0.8596
17898TIP3   OH275108   5.489   2.178   4.416 -0.5502  0.3606 -0.4619
17898TIP3    H175109   5.549   2.119   4.462 -0.7315  0.7598  0.2938
17898TIP3    H275110   5.502   2.263   4.458  1.3893  1.4009 -3.0752
17899TIP3   OH275111   4.763   0.508  13.075 -0.1031 -0.4236 -0.0489
17899TIP3    H175112   4.858   0.497  13.082 -0.2408 -2.0607 -0.5568
17899TIP3    H275113   4.740   0.459  12.996 -1.4483 -0.5056  0.3961
17900TIP3   OH275114   3.022   2.215   0.172 -0.4664  0.3366  0.0876
17900TIP3    H175115   3.061   2.202   0.086  1.2049 -0.5061  0.9242
17900TIP3    H275116   3.076   2.284   0.212  0.1979 -0.8442  1.2667
17901TIP3   OH275117   1.611   2.117   2.302  0.1694 -0.1629 -0.0190
17901TIP3    H175118   1.616   2.194   2.244  0.7659 -1.5041 -1.7803
17901TIP3    H275119   1.522   2.085   2.292 -0.3468  0.7619  1.3757
17902TIP3   OH275120   1.401   0.806  15.024 -0.6040 -0.0762 -0.1334
17902TIP3    H175121   1.408   0.864  15.100 -0.2999 -1.2424  0.7524
17902TIP3    H275122   1.394   0.865  14.949 -1.9629  1.0939  0.8877
17903TIP3   OH275123   0.357   1.983   3.559  0.2129 -0.2789 -0.4996
17903TIP3    H175124   0.315   1.918   3.615  1.0556  0.4590  1.0193
17903TIP3    H275125   0.448   1.987   3.589  1.3992 -1.7885 -3.7031
17904TIP3   OH275126   0.426   5.142  14.676  0.2259  0.7575 -0.0011
17904TIP3    H175127   0.399   5.134  14.768 -0.3473  1.7011 -0.0796
17904TIP3    H275128   0.394   5.062  14.635 -2.6785  1.9336 -0.1296
17905TIP3   OH275129   0.037   6.444   5.177 -0.7116  0.4354  0.3172
17905TIP3    H175130  -0.018   6.467   5.102  0.3365 -0.5532 -0.7761
17905TIP3    H275131   0.087   6.523   5.196  0.0115  0.2870 -0.9093
17906TIP3   OH275132   2.098   4.141   5.455  0.4518 -0.4307 -0.2737
17906TIP3    H175133   2.191   4.157   5.439  0.5483 -1.1319 -0.4582
17906TIP3    H275134   2.060   4.134   5.368  0.4263 -1.2094 -0.2090
17907TIP3   OH275135   6.119   2.441   5.218  0.6116  0.0301  0.9462
17907TIP3    H175136   6.140   2.519   5.269 -0.2816 -1.3567  3.5336
17907TIP3    H275137   6.065   2.388   5.276  1.1948 -2.5329 -0.7603
17908TIP3   OH275138   1.662   4.593   4.074  0.2209 -0.7751 -0.5157
17908TIP3    H175139   1.622   4.507   4.067 -2.3338  0.0976  2.3132
17908TIP3    H275140   1.590   4.654   4.060  1.3056  0.8951  0.9291
17909TIP3   OH275141   1.872   5.185  12.705  0.3251  0.4897 -0.3184
17909TIP3    H175142   1.796   5.218  12.658 -0.5746 -0.7584  0.2277
17909TIP3    H275143   1.852   5.198  12.797 -1.5234 -4.4237  0.1204
17910TIP3   OH275144   5.643   1.846  13.572 -0.4580 -0.5481 -0.2507
17910TIP3    H175145   5.606   1.861  13.485 -0.9519 -1.0148 -0.1236
17910TIP3    H275146   5.589   1.898  13.631 -0.0828 -0.1792 -0.2283
17911TIP3   OH275147   4.179   3.646   1.431 -0.5067  0.0947  0.0177
17911TIP3    H175148   4.161   3.725   1.482  0.3500  0.7384 -0.6501
17911TIP3    H275149   4.261   3.612   1.467  0.5110  0.9752 -1.3944
17912TIP3   OH275150   2.342   0.622  17.109  0.6115  0.2974  0.2030
17912TIP3    H175151   2.247   0.634  17.104  0.4763  0.0534  2.0898
17912TIP3    H275152   2.363   0.567  17.033 -1.0642 -1.4943  1.0111
17913TIP3   OH275153   4.857   3.581   4.051  0.1902 -0.4342  0.1924
17913TIP3    H175154   4.810   3.521   3.993  0.5156 -0.8485  0.3487
17913TIP3    H275155   4.828   3.556   4.139 -0.0421 -0.0372  0.2277
17914TIP3   OH275156   0.211   1.476  11.644  0.0779  0.0450 -0.6961
17914TIP3    H175157   0.207   1.548  11.582 -1.5391 -0.7503 -1.5367
17914TIP3    H275158   0.142   1.495  11.707  0.9024  0.2063  0.1705
17915TIP3   OH275159   5.405   5.472   2.839 -0.0342  0.1819  0.3099
17915TIP3    H175160   5.492   5.470   2.798 -0.2129  0.2640 -0.0768
17915TIP3    H275161   5.414   5.534   2.911  0.0123  0.8011 -0.2267
17916TIP3   OH275162   4.601   2.869   0.413  0.1227  0.0470  0.1546
17916TIP3    H175163   4.537   2.847   0.480  0.9639  0.1403  0.9946
17916TIP3    H275164   4.583   2.961   0.393 -0.5732 -0.1720 -0.2483
17917TIP3   OH275165   5.639   1.318  16.551  0.6285  0.6512  0.5811
17917TIP3    H175166   5.621   1.258  16.479 -0.7427  0.4566  1.0597
17917TIP3    H275167   5.563   1.377  16.552  0.8078  0.8740  1.6419
17918TIP3   OH275168   3.491   2.563  11.762 -0.4723  0.1589 -0.0302
17918TIP3    H175169   3.410   2.588  11.718 -1.1336 -1.5819  0.1705
17918TIP3    H275170   3.546   2.527  11.692 -1.1680 -1.7531  0.3881
17919TIP3   OH275171   2.149   5.176  11.047 -0.6891  0.1945  0.8138
17919TIP3    H175172   2.106   5.259  11.025  1.5188  1.0376 -0.4480
17919TIP3    H275173   2.241   5.189  11.024 -0.0616 -2.1725  1.8137
17920TIP3   OH275174   3.281   2.405  15.340  0.1273  0.0150 -0.1386
17920TIP3    H175175   3.334   2.443  15.271 -0.6285 -0.1942 -0.8450
17920TIP3    H275176   3.289   2.310  15.327 -1.4133 -0.0156 -1.0415
17921TIP3   OH275177   1.209   0.791  10.767 -0.2648  0.2309  0.5584
17921TIP3    H175178   1.124   0.787  10.723  1.2448  0.1312 -2.5013
17921TIP3    H275179   1.245   0.703  10.758  1.0242  0.8024 -0.0220
17922TIP3   OH275180   0.266   4.332  14.581  0.1476 -0.1166 -0.2500
17922TIP3    H175181   0.203   4.261  14.591  0.2128 -0.1293  0.0901
17922TIP3    H275182   0.351   4.290  14.597  0.2812 -0.1930 -1.1252
17923TIP3   OH275183   3.092   6.189  11.840 -0.0584  0.3375 -0.2926
17923TIP3    H175184   3.044   6.129  11.783  0.0126 -0.0880  0.0879
17923TIP3    H275185   3.027   6.251  11.872  0.2428  1.7616 -2.3476
17924TIP3   OH275186   4.989   5.490  12.204  0.1372 -0.0620 -0.1593
17924TIP3    H175187   5.041   5.427  12.255 -1.8129 -0.8396  0.9084
17924TIP3    H275188   4.899   5.476  12.232 -0.7305  1.0265 -2.2374
17925TIP3   OH275189   6.247   5.810  11.205 -0.3972  0.4722  0.2179
17925TIP3    H175190   6.298   5.810  11.286  0.4172 -0.1778 -0.2783
17925TIP3    H275191   6.308   5.845  11.139 -0.5953 -0.2739 -0.3735
17926TIP3   OH275192   5.737   1.994   2.185 -0.4689  0.4213 -0.3521
17926TIP3    H175193   5.647   2.016   2.160 -0.2451  0.7636 -0.8791
17926TIP3    H275194   5.791   2.056   2.136  0.0882 -0.2242 -0.5639
17927TIP3   OH275195   4.719   2.493  11.492  0.0642 -0.4635 -0.5247
17927TIP3    H175196   4.692   2.401  11.504 -1.0553 -0.0770  0.0999
17927TIP3    H275197   4.699   2.513  11.401  0.3150 -0.8438 -0.6620
17928TIP3   OH275198   2.466   2.650   0.983  0.0390  0.4291 -0.4023
17928TIP3    H175199   2.494   2.646   0.891 -1.2146  1.1953 -0.8300
17928TIP3    H275200   2.452   2.743   0.999 -2.4726  0.0651 -0.2778
17929TIP3   OH275201   3.762   4.635   3.700 -0.0910 -0.8714 -0.2060
17929TIP3    H175202   3.839   4.677   3.660  0.5397 -2.5354 -0.8015
17929TIP3    H275203   3.799   4.576   3.766 -0.8605 -1.5238 -0.3511
17930TIP3   OH275204   0.311   6.677   4.527 -0.3816 -0.0468 -0.1887
17930TIP3    H175205   0.219   6.686   4.505  0.3311  0.3741 -3.1963
17930TIP3    H275206   0.339   6.597   4.484  0.5193 -0.5421  1.2769
17931TIP3   OH275207   1.853   3.111  15.942  0.2576 -0.6461  0.4054
17931TIP3    H175208   1.790   3.184  15.947  0.9465  0.2244 -2.5719
17931TIP3    H275209   1.933   3.145  15.982  0.5641  0.2725 -0.9394
17932TIP3   OH275210   4.624   2.586  13.838  0.6904 -0.1432  0.6130
17932TIP3    H175211   4.572   2.591  13.919  1.0175  0.3105  0.8027
17932TIP3    H275212   4.579   2.522  13.784  0.2715 -0.1971  1.0211
17933TIP3   OH275213   6.054   0.860  14.392  0.3322  0.6254  0.0599
17933TIP3    H175214   6.148   0.878  14.391  0.7229 -1.2147  1.3299
17933TIP3    H275215   6.022   0.893  14.308  2.2353  0.5917 -0.6917
17934TIP3   OH275216   3.349   0.050  14.631 -0.3664 -0.0960  0.2033
17934TIP3    H175217   3.398   0.041  14.712 -0.6339 -0.3458  0.3396
17934TIP3    H275218   3.347   0.144  14.614 -0.8234  0.0056  0.8030
17935TIP3   OH275219   4.687   5.290   2.508 -0.1234 -0.1302 -0.4392
17935TIP3    H175220   4.703   5.195   2.509 -1.5402 -0.3751 -0.3039
17935TIP3    H275221   4.774   5.328   2.504  0.4983 -1.4367  0.1118
17936TIP3   OH275222   4.187   5.478   2.125 -0.2728  0.0972  0.1158
17936TIP3    H175223   4.170   5.489   2.219 -1.9499  0.2625 -0.1955
17936TIP3    H275224   4.134   5.402   2.100 -1.0793  1.0055 -1.0139
17937TIP3   OH275225   0.380   0.993  11.470 -0.1966 -0.1940 -0.4249
17937TIP3    H175226   0.467   0.956  11.486  0.8668  1.8434 -1.2417
17937TIP3    H275227   0.372   1.063  11.535  1.1476  3.3107 -3.8575
17938TIP3   OH275228   4.484   5.747   3.731 -0.0001 -0.4733  0.1889
17938TIP3    H175229   4.411   5.783   3.679 -0.1184 -2.2564 -0.9207
17938TIP3    H275230   4.554   5.812   3.723 -0.1567 -0.5346 -1.8956
17939TIP3   OH275231   0.101   1.621   4.790 -0.1032 -0.4638 -0.2883
17939TIP3    H175232   0.089   1.698   4.735  0.8259  1.2469  1.7852
17939TIP3    H275233   0.118   1.549   4.729 -0.3588  1.0960 -2.2398
17940TIP3   OH275234   6.751   1.266   4.183  0.4691 -0.2278 -0.1772
17940TIP3    H175235   6.781   1.324   4.113 -0.9629  0.5777 -0.1379
17940TIP3    H275236   6.703   1.196   4.139  0.0904 -0.0499 -0.0518
17941TIP3   OH275237   1.368   3.391   2.744  0.5985 -0.3088 -0.2984
17941TIP3    H175238   1.426   3.348   2.681  0.0899  1.4280 -1.9827
17941TIP3    H275239   1.421   3.461   2.782  0.0288  0.4549 -0.8944
17942TIP3   OH275240   1.856   0.874  12.960  0.0365  0.3195  0.1406
17942TIP3    H175241   1.914   0.875  12.884 -0.6327  0.7608 -0.3697
17942TIP3    H275242   1.860   0.963  12.996  2.3468 -0.5604  2.1670
17943TIP3   OH275243   6.158   1.064   3.887  0.8888  0.1750  0.3300
17943TIP3    H175244   6.086   1.006   3.863  2.7183 -2.8944  1.9322
17943TIP3    H275245   6.208   1.074   3.806  0.3073 -0.0656 -0.0659
17944TIP3   OH275246   0.471   0.011  14.833  0.0532  0.3814  0.1556
17944TIP3    H175247   0.505   0.081  14.778  1.0925  1.2744  1.8988
17944TIP3    H275248   0.427   0.056  14.905 -1.1302 -0.7728  0.1811
17945TIP3   OH275249   0.543   6.671   0.189  0.0885  0.2501 -0.2052
17945TIP3    H175250   0.597   6.705   0.118 -0.3891  0.1206 -0.6369
17945TIP3    H275251   0.563   6.726   0.264 -1.3314  2.0553 -1.1176
17946TIP3   OH275252   6.442   3.991   1.422 -0.1815  0.3204 -0.7217
17946TIP3    H175253   6.388   4.028   1.352 -0.5591 -0.9056 -1.0860
17946TIP3    H275254   6.477   4.068   1.468 -1.8549  1.1344 -0.7608
17947TIP3   OH275255   6.133   0.154  14.371 -0.0097 -0.0834 -0.0799
17947TIP3    H175256   6.226   0.133  14.382 -0.0516  0.0763  0.5715
17947TIP3    H275257   6.128   0.249  14.384 -0.6137 -0.4018  2.2899
17948TIP3   OH275258   5.887   3.844  13.966 -0.5294 -0.0510 -0.6062
17948TIP3    H175259   5.816   3.779  13.966 -0.3482 -0.2546 -1.2127
17948TIP3    H275260   5.965   3.794  13.943  0.3886 -0.4146  2.9943
17949TIP3   OH275261   2.738   6.369  10.453  0.2076  0.6139 -0.5958
17949TIP3    H175262   2.749   6.437  10.519  1.3533 -0.2441  0.1236
17949TIP3    H275263   2.726   6.288  10.502 -1.5551  0.3421 -1.4436
17950TIP3   OH275264   4.201   1.731   1.312  0.2509  0.0773  0.2274
17950TIP3    H175265   4.166   1.797   1.370  0.0758  0.2937 -0.1227
17950TIP3    H275266   4.177   1.760   1.224  0.5630 -0.2125  0.0403
17951TIP3   OH275267   1.976   3.338  16.006  0.1857 -0.4281 -0.1767
17951TIP3    H175268   2.038   3.410  16.023  0.7093 -0.4373 -1.9728
17951TIP3    H275269   1.894   3.381  15.986  0.1029 -0.3690  0.2870
17952TIP3   OH275270   2.271   6.254  10.183 -0.9275 -0.5045 -0.4067
17952TIP3    H175271   2.334   6.265  10.254 -2.8296 -1.0007  1.4080
17952TIP3    H275272   2.288   6.328  10.124  1.7421 -1.0034 -0.2768
17953TIP3   OH275273   4.166   3.644   4.722  0.3198  0.1009 -0.7342
17953TIP3    H175274   4.149   3.738   4.727  2.1035  0.4149 -0.0295
17953TIP3    H275275   4.251   3.637   4.679  0.8656 -1.1162  0.4955
17954TIP3   OH275276   2.307   2.182  11.822 -0.5590 -0.1367  0.2050
17954TIP3    H175277   2.378   2.171  11.758 -0.3948  0.4017  0.2954
17954TIP3    H275278   2.322   2.113  11.886  1.1157  1.2724  1.3674
17955TIP3   OH275279   4.919   1.973   1.040 -0.0812  0.1438 -0.2235
17955TIP3    H175280   4.856   2.028   0.994 -0.8750 -1.5564 -1.2110
17955TIP3    H275281   4.888   1.971   1.130 -1.0284 -0.0914 -0.5519
17956TIP3   OH275282   5.011   5.029   1.298  0.8953  0.2590 -0.1331
17956TIP3    H175283   5.071   5.100   1.272  0.2700  0.2066 -1.7881
17956TIP3    H275284   5.069   4.955   1.317  1.3804  0.3029 -1.4137
17957TIP3   OH275285   6.193   3.024   5.871  0.1871 -0.3950 -0.3793
17957TIP3    H175286   6.221   3.115   5.868  0.7794 -0.5865 -0.9844
17957TIP3    H275287   6.270   2.976   5.901 -0.3191 -0.6201  0.5621
17958TIP3   OH275288   0.602   3.344   5.086 -0.3848  0.9731 -0.0101
17958TIP3    H175289   0.566   3.274   5.030  0.8270  1.0432 -0.9047
17958TIP3    H275290   0.692   3.316   5.104 -0.2097  1.8193  0.4444
17959TIP3   OH275291   6.228   5.118   0.384  0.1499 -0.0595  0.5045
17959TIP3    H175292   6.173   5.078   0.451  0.3002  1.2467  1.4386
17959TIP3    H275293   6.165   5.161   0.325 -0.0640 -2.4790 -1.0684
17960TIP3   OH275294   1.488   6.586   4.770  0.2654 -0.0356  0.5790
17960TIP3    H175295   1.473   6.675   4.737  0.4767  0.6653  2.3127
17960TIP3    H275296   1.429   6.531   4.718 -1.1240  1.3593  0.6270
17961TIP3   OH275297   5.976   6.104   2.968 -0.2537 -0.0001 -0.0247
17961TIP3    H175298   6.048   6.109   2.905 -0.4946 -2.2751 -0.5093
17961TIP3    H275299   6.019   6.113   3.053  0.6409 -1.4022 -0.3111
17962TIP3   OH275300   1.374   1.002   3.536 -0.5625 -0.5536  0.4163
17962TIP3    H175301   1.304   0.954   3.491  0.1599 -0.9791 -0.2588
17962TIP3    H275302   1.350   1.094   3.525 -0.0092 -0.6241 -1.4843
17963TIP3   OH275303   2.616   1.785   3.541  0.1634  0.8471 -0.1269
17963TIP3    H175304   2.575   1.871   3.528  0.1144  1.0417  1.2308
17963TIP3    H275305   2.709   1.800   3.525  0.2642  1.3403  0.8399
17964TIP3   OH275306   0.955   6.034   4.770  0.5307 -0.1364 -0.1387
17964TIP3    H175307   1.039   6.002   4.738  1.7031  0.7690  1.9274
17964TIP3    H275308   0.963   6.130   4.766 -0.4191 -0.0461  0.0491
17965TIP3   OH275309   3.443   3.433   2.013  0.5520 -0.1344  0.2459
17965TIP3    H175310   3.403   3.520   2.019 -0.0066 -0.2851 -1.1197
17965TIP3    H275311   3.370   3.372   2.027  0.4170 -0.4021 -1.5439
17966TIP3   OH275312   2.663   1.110   4.277  0.0691 -0.4241  0.1853
17966TIP3    H175313   2.626   1.134   4.362 -2.0331 -0.8165 -0.5673
17966TIP3    H275314   2.628   1.022   4.260  1.2833 -0.7694 -0.6369
17967TIP3   OH275315   1.081   5.365  14.732 -0.3542  0.1196  0.1330
17967TIP3    H175316   1.138   5.418  14.788 -0.1909 -1.0760  1.1254
17967TIP3    H275317   1.022   5.428  14.690 -0.8071  1.0056  2.0469
17968TIP3   OH275318   6.626   1.246  14.313 -0.2946 -0.0131 -0.0047
17968TIP3    H175319   6.591   1.174  14.260  2.0134 -1.8809  0.9164
17968TIP3    H275320   6.594   1.325  14.269  1.9585 -1.4674 -4.5702
17969TIP3   OH275321   1.807   2.044   0.865 -0.0434 -0.1112 -0.3645
17969TIP3    H175322   1.840   2.132   0.881 -0.1345  0.1911 -1.7268
17969TIP3    H275323   1.864   2.010   0.796 -1.0992 -0.4558 -1.0759
17970TIP3   OH275324   5.945   2.860   2.626  0.2833  0.8253 -0.0110
17970TIP3    H175325   6.029   2.844   2.669  0.0497 -2.3025 -0.5678
17970TIP3    H275326   5.965   2.856   2.532 -0.5121 -0.3421 -0.1486
17971TIP3   OH275327   4.400   4.406  15.520  0.9551  0.1411  0.0285
17971TIP3    H175328   4.376   4.493  15.488  2.9329  0.3619 -0.9465
17971TIP3    H275329   4.433   4.421  15.609 -0.2137  0.1447  0.4766
17972TIP3   OH275330   1.892   0.646  11.255 -0.0187  0.3863 -0.4249
17972TIP3    H175331   1.833   0.648  11.330  2.0490 -0.6292  1.3050
17972TIP3    H275332   1.905   0.552  11.238  1.7116  0.5641 -0.2219
17973TIP3   OH275333   3.281   5.874   5.648  0.5498 -0.1271  0.2811
17973TIP3    H175334   3.206   5.844   5.700 -1.4798  2.5271 -1.0232
17973TIP3    H275335   3.357   5.840   5.695 -1.4036 -1.6141  2.4828
17974TIP3   OH275336   5.387   1.724   0.418 -0.0891 -0.8080  0.3604
17974TIP3    H175337   5.348   1.783   0.353 -3.3329 -1.0643  1.9848
17974TIP3    H275338   5.371   1.636   0.383 -0.7159 -0.9096  0.9093
17975TIP3   OH275339   5.598   4.190   1.469 -0.7457  0.3584 -0.3959
17975TIP3    H175340   5.589   4.213   1.561  0.1127 -0.6155 -0.0461
17975TIP3    H275341   5.566   4.266   1.421  0.0056  1.3920  0.7107
17976TIP3   OH275342   1.437   2.040   2.637 -0.5598  0.9181 -0.7153
17976TIP3    H175343   1.515   2.066   2.587 -0.0737  1.1635  0.1629
17976TIP3    H275344   1.382   2.119   2.638 -0.2998  1.0964 -0.3545
17977TIP3   OH275345   6.635   5.224  11.106 -0.5310  0.2736 -0.1880
17977TIP3    H175346   6.716   5.237  11.155 -0.3927  1.0957 -0.6227
17977TIP3    H275347   6.601   5.139  11.137  0.4044  0.0067  0.1119
17978TIP3   OH275348   5.353   5.337  13.993 -0.1848 -0.1947 -0.5457
17978TIP3    H175349   5.403   5.410  13.958 -1.7367  1.6813  1.0179
17978TIP3    H275350   5.263   5.370  14.000 -0.9490 -2.2797  0.0825
17979TIP3   OH275351   1.881   2.239  11.267 -0.2232 -0.5872 -0.5040
17979TIP3    H175352   1.970   2.236  11.232 -0.1203 -0.9013 -0.2215
17979TIP3    H275353   1.875   2.323  11.312 -0.6933  0.2835 -2.1577
17980TIP3   OH275354   5.098   4.532   1.863 -0.4604 -0.1367 -0.3513
17980TIP3    H175355   5.127   4.494   1.946 -3.4219  1.9634  1.7364
17980TIP3    H275356   5.016   4.485   1.844 -0.6760  0.5719 -1.1721
17981TIP3   OH275357   4.512   2.191   3.513 -0.1229 -0.1891  0.0532
17981TIP3    H175358   4.508   2.105   3.555  0.2361 -0.1987  0.0693
17981TIP3    H275359   4.449   2.245   3.562  0.4312 -0.1483  0.7170
17982TIP3   OH275360   5.239   6.081   0.661  0.3039  0.0028  0.0472
17982TIP3    H175361   5.187   6.002   0.645  0.5303 -0.1235 -0.0766
17982TIP3    H275362   5.324   6.047   0.691 -0.1512  0.2316  1.6404
17983TIP3   OH275363   2.885   2.821   5.603 -0.1740  0.4435  0.8986
17983TIP3    H175364   2.924   2.796   5.519 -0.7743 -0.4269  0.8651
17983TIP3    H275365   2.796   2.849   5.581 -0.2714  0.3893  1.2167
17984TIP3   OH275366   3.007   5.178  15.022  0.6358  0.6643  0.1451
17984TIP3    H175367   2.925   5.227  15.014  0.7831  1.1117  1.2933
17984TIP3    H275368   2.980   5.086  15.019  0.0082  0.8011  1.2083
17985TIP3   OH275369   1.554   5.161   5.244  0.3455 -0.4507 -0.5100
17985TIP3    H175370   1.562   5.190   5.153 -1.3782 -1.9804 -1.1933
17985TIP3    H275371   1.501   5.228   5.286  1.6449  0.5675 -0.4733
17986TIP3   OH275372   5.217   2.013   4.949 -0.0262 -0.2618 -0.2279
17986TIP3    H175373   5.279   2.087   4.947  0.1534 -0.4351 -1.4320
17986TIP3    H275374   5.137   2.047   4.910  1.0861 -1.5881 -3.8658
17987TIP3   OH275375   6.484   2.525   6.485 -0.2506  0.2257 -0.7831
17987TIP3    H175376   6.456   2.434   6.474 -0.0153  0.0376  0.0881
17987TIP3    H275377   6.413   2.566   6.535  0.1088  0.2484 -0.2817
17988TIP3   OH275378   3.382   3.756   2.284  0.2403 -0.6509  0.5056
17988TIP3    H175379   3.361   3.844   2.256 -1.2053 -0.7201  1.3432
17988TIP3    H275380   3.383   3.704   2.203  0.8336  0.0753  0.0487
17989TIP3   OH275381   0.253   4.403  10.932  0.4860 -0.0567 -0.1054
17989TIP3    H175382   0.181   4.452  10.891  2.3249  1.7200 -1.3240
17989TIP3    H275383   0.321   4.469  10.947  1.5671 -1.5621  1.7423
17990TIP3   OH275384   2.716   4.011   5.719  0.7755 -0.2026  0.2529
17990TIP3    H175385   2.761   4.061   5.651  0.4492 -0.8489 -0.4525
17990TIP3    H275386   2.645   4.069   5.748 -0.0132 -0.4977 -1.0301
17991TIP3   OH275387   1.318   6.051   0.270 -0.1729  0.2062 -0.2236
17991TIP3    H175388   1.307   5.959   0.247  2.8137 -0.5386  1.1145
17991TIP3    H275389   1.278   6.059   0.357  2.1766 -0.5371  0.9495
17992TIP3   OH275390   4.412   4.254   4.372 -0.6601 -0.2898 -0.1329
17992TIP3    H175391   4.365   4.173   4.352 -1.1333 -0.0500  0.0104
17992TIP3    H275392   4.351   4.305   4.426 -0.3434  0.1365 -0.1760
17993TIP3   OH275393   0.062   4.106  16.756 -0.0874  0.0104  0.0822
17993TIP3    H175394   0.142   4.061  16.784  0.2330  1.7339  2.0575
17993TIP3    H275395   0.064   4.101  16.661  1.2153 -1.9336  0.1687
17994TIP3   OH275396   4.911   6.734   4.367  0.2503  0.3521 -0.2226
17994TIP3    H175397   4.892   6.647   4.402  0.9054  0.2320 -0.1708
17994TIP3    H275398   5.006   6.743   4.373  0.1752  1.1280 -0.0875
17995TIP3   OH275399   0.754   0.341   2.506 -0.3101  0.2803  0.2366
17995TIP3    H175400   0.761   0.246   2.501  1.3952  0.3377  1.1899
17995TIP3    H275401   0.844   0.372   2.499 -0.4622  1.6390  3.3402
17996TIP3   OH275402   5.876   4.734   3.562  0.0229 -0.3115  0.8772
17996TIP3    H175403   5.913   4.820   3.544 -0.7918  0.2488  1.8766
17996TIP3    H275404   5.810   4.749   3.629 -0.5353 -1.6257  0.6432
17997TIP3   OH275405   1.562   0.095  12.308  0.4563  0.1719  0.0258
17997TIP3    H175406   1.549   0.071  12.400  1.6165 -1.2454 -0.1687
17997TIP3    H275407   1.589   0.187  12.311  1.3670 -0.1235  1.1569
17998TIP3   OH275408   1.629   0.208  16.406  0.3587 -0.1057  0.0230
17998TIP3    H175409   1.569   0.245  16.341 -1.0528 -1.1438  0.7003
17998TIP3    H275410   1.635   0.116  16.383  1.7229  0.0007 -0.0502
17999TIP3   OH275411   0.522   5.109   3.561  0.0295  0.4011 -0.2057
17999TIP3    H175412   0.443   5.152   3.529  0.5513  1.1249 -0.5425
17999TIP3    H275413   0.497   5.017   3.572 -1.0697  0.7591  0.4215
18000TIP3   OH275414   6.409   3.478  11.815 -0.1302 -0.4898  0.1279
18000TIP3    H175415   6.459   3.398  11.830  0.5938  0.1909  1.4198
18000TIP3    H275416   6.429   3.503  11.725 -1.4500 -2.5050 -0.7663
18001TIP3   OH275417   3.242   3.687   1.727 -0.4021 -0.0187  0.4265
18001TIP3    H175418   3.206   3.776   1.729  0.7976  0.4705  1.4550
18001TIP3    H275419   3.166   3.630   1.723 -1.2076  1.0547  0.2998
18002TIP3   OH275420   3.724   1.180  14.140 -0.0554  0.4117  0.3139
18002TIP3    H175421   3.710   1.252  14.201 -0.5361 -1.0329  1.9645
18002TIP3    H275422   3.637   1.145  14.123  0.3886 -1.2535  1.3822
18003TIP3   OH275423   4.631   0.699   3.071  0.4621  1.2509 -0.3666
18003TIP3    H175424   4.592   0.699   3.158  1.8700  2.1145  0.2688
18003TIP3    H275425   4.618   0.610   3.039 -0.7860  1.1561  0.3948
18004TIP3   OH275426   5.984   3.761  12.677  0.0204 -0.0324 -0.0686
18004TIP3    H175427   5.902   3.798  12.710  0.5127  0.4850  0.6174
18004TIP3    H275428   5.988   3.673  12.714 -0.8964 -0.5952 -1.2627
18005TIP3   OH275429   1.855   2.830  11.892 -0.0198  0.5528 -0.2349
18005TIP3    H175430   1.816   2.762  11.948 -1.2309  1.1081 -0.3786
18005TIP3    H275431   1.850   2.794  11.804 -0.4597  0.7266 -0.2840
18006TIP3   OH275432   1.698   3.838  13.001 -0.3247 -0.2323 -0.3828
18006TIP3    H175433   1.764   3.906  12.988 -0.1593 -0.6991 -2.0619
18006TIP3    H275434   1.748   3.761  13.027 -0.1271 -0.7601 -2.2744
18007TIP3   OH275435   2.256   4.145  14.239 -0.0127  0.0424 -0.1431
18007TIP3    H175436   2.179   4.089  14.243  0.5600 -0.7443  0.0251
18007TIP3    H275437   2.241   4.211  14.307 -0.6351  0.0290 -0.2623
18008TIP3   OH275438   4.253   5.196  15.087  0.0156  0.0799 -0.1678
18008TIP3    H175439   4.305   5.118  15.068 -1.9453 -0.6019 -3.1032
18008TIP3    H275440   4.253   5.246  15.005  1.3106  3.2702  1.6873
18009TIP3   OH275441   0.706   2.541   3.563 -0.0052 -0.0192  0.0509
18009TIP3    H175442   0.795   2.513   3.584  0.0676 -0.1188 -0.3795
18009TIP3    H275443   0.666   2.558   3.648 -0.1857 -1.8013  0.3458
18010TIP3   OH275444   4.343   0.059   3.812 -0.3730 -0.5311  0.4046
18010TIP3    H175445   4.266   0.005   3.828  0.0707 -1.2339  0.2282
18010TIP3    H275446   4.341   0.126   3.879  0.5057 -2.3577  2.3198
18011TIP3   OH275447   0.446   0.745   2.350 -0.2403  0.2711 -0.9212
18011TIP3    H175448   0.450   0.674   2.415  2.3943 -0.0388 -1.3583
18011TIP3    H275449   0.426   0.701   2.268 -1.4419  0.4081 -0.7159
18012TIP3   OH275450   4.153   3.541  11.091 -0.5917  0.1644 -0.3363
18012TIP3    H175451   4.132   3.607  11.024  0.6780  0.6377 -0.2896
18012TIP3    H275452   4.227   3.493  11.054  0.7008  1.0093  1.0854
18013TIP3   OH275453   6.776   6.589   0.047  0.1917  0.4483 -0.6028
18013TIP3    H175454   6.806   6.606   0.137  0.8137  0.6331 -0.8409
18013TIP3    H275455   6.854   6.603  -0.007  0.1513 -0.9766 -1.0406
18014TIP3   OH275456   5.077   1.844   2.476  0.5378 -0.1176  0.0487
18014TIP3    H175457   4.983   1.831   2.493  0.5704 -1.8774 -0.9545
18014TIP3    H275458   5.119   1.765   2.509  1.4971  0.0025 -0.8325
18015TIP3   OH275459   3.057   0.071  10.899 -0.3790 -0.1425 -0.2607
18015TIP3    H175460   2.979   0.048  10.849 -0.7642  0.1831  0.1780
18015TIP3    H275461   3.129   0.069  10.836 -1.0405  1.4146 -1.0601
18016TIP3   OH275462   2.770   3.689  11.745  0.2791 -0.2786 -0.1561
18016TIP3    H175463   2.862   3.687  11.769  0.0074 -0.0549  0.9003
18016TIP3    H275464   2.765   3.751  11.672  0.7889  0.5133  0.4865
18017TIP3   OH275465   2.323   1.280  12.413  0.3298 -0.2307 -0.5258
18017TIP3    H175466   2.345   1.277  12.506 -2.5245 -1.9543  0.1389
18017TIP3    H275467   2.300   1.372  12.397  2.2437  0.3786  0.0919
18018TIP3   OH275468   5.616   1.441   4.632  0.7210  0.3872 -0.0425
18018TIP3    H175469   5.707   1.415   4.621  1.0287  0.8938  1.2405
18018TIP3    H275470   5.574   1.366   4.674  0.1431 -0.5114 -2.1523
18019TIP3   OH275471   3.444   1.846   5.046  0.2125  0.3729  0.3713
18019TIP3    H175472   3.447   1.941   5.039  0.0674  0.3925  0.5737
18019TIP3    H275473   3.522   1.822   5.095 -0.1632  0.4534  1.0165
18020TIP3   OH275474   2.689   0.784   0.473  0.2958 -0.0120  0.3273
18020TIP3    H175475   2.730   0.697   0.474  0.3448  0.0163  2.3385
18020TIP3    H275476   2.602   0.770   0.510  0.8133  1.0044  2.0312
18021TIP3   OH275477   6.402   2.957  10.515 -0.1886  0.6057  0.1568
18021TIP3    H175478   6.308   2.957  10.498  0.0993  2.3685 -1.5462
18021TIP3    H275479   6.414   2.888  10.581 -2.4955 -0.4345 -0.4515
18022TIP3   OH275480   2.209   5.160  13.641 -0.4300  0.4993 -0.4371
18022TIP3    H175481   2.275   5.159  13.710 -1.7267 -1.8475  0.8274
18022TIP3    H275482   2.259   5.151  13.560  0.8987  0.0932  0.4108
18023TIP3   OH275483   5.820   1.738   4.529 -0.2496  0.2903 -0.1707
18023TIP3    H175484   5.753   1.723   4.462 -0.6710 -0.2133  0.3626
18023TIP3    H275485   5.773   1.731   4.612 -0.1533  2.9673  0.1519
18024TIP3   OH275486   4.083   5.798   4.214 -0.0397  0.3432  0.8955
18024TIP3    H175487   4.157   5.853   4.190 -0.7022  1.5688  1.6229
18024TIP3    H275488   4.048   5.838   4.294  1.5140 -3.0284  3.4137
18025TIP3   OH275489   3.976   0.847  15.393  0.0151  0.0763  0.3194
18025TIP3    H175490   3.995   0.836  15.300 -0.0527  1.5405  0.1222
18025TIP3    H275491   3.909   0.915  15.396 -1.5800 -1.4751  1.3192
18026TIP3   OH275492   0.925   2.940  15.463  0.0308  0.0358 -0.1629
18026TIP3    H175493   0.990   3.007  15.482 -0.0587 -0.0019  0.2643
18026TIP3    H275494   0.976   2.861  15.445  0.1174  0.1082 -0.2394
18027TIP3   OH275495   4.625   3.684  16.665 -0.1995 -0.2132  0.2913
18027TIP3    H175496   4.541   3.666  16.708 -1.0844  1.0221 -0.8848
18027TIP3    H275497   4.604   3.748  16.597  1.7123  0.1425  0.0147
18028TIP3   OH275498   2.471   2.941  16.948  0.0226  0.0648 -0.4576
18028TIP3    H175499   2.418   2.927  17.026 -2.1815  1.1712 -1.7194
18028TIP3    H275500   2.517   3.023  16.964  0.9219 -0.5881  0.3795
18029TIP3   OH275501   2.119   0.975  16.396 -0.1902 -0.5850 -0.0822
18029TIP3    H175502   2.197   1.029  16.384 -1.9276  2.1179  0.1626
18029TIP3    H275503   2.125   0.945  16.487 -0.6460  1.7652  0.7837
18030TIP3   OH275504   2.055   0.600   3.322 -0.4625  0.2989  0.6824
18030TIP3    H175505   2.136   0.646   3.299 -0.3337 -0.8254 -1.2414
18030TIP3    H275506   1.989   0.669   3.330  0.4829  1.1410  1.3713
18031TIP3   OH275507   5.205   1.644  14.127 -0.4605 -0.3301  0.1706
18031TIP3    H175508   5.176   1.553  14.121  0.5149 -0.6313 -0.1643
18031TIP3    H275509   5.185   1.682  14.041 -1.0145 -0.1834  0.3653
18032TIP3   OH275510   4.390   1.062  15.472  0.1923 -0.4684 -0.2643
18032TIP3    H175511   4.325   1.063  15.543  1.5575 -1.4910  1.0135
18032TIP3    H275512   4.427   1.150  15.473  1.6732 -1.0851  1.6841
18033TIP3   OH275513   5.049   1.058   4.786  0.5156  0.1318  0.1506
18033TIP3    H175514   4.988   1.006   4.839 -0.4863  0.2551 -0.8527
18033TIP3    H275515   5.123   1.075   4.844 -0.0211 -0.7557  1.1168
18034TIP3   OH275516   2.189   4.872  13.769 -0.2815  0.4445 -0.0767
18034TIP3    H175517   2.151   4.882  13.682 -0.8987 -1.0744  0.0086
18034TIP3    H275518   2.280   4.899  13.759 -0.4935  0.8177 -1.0583
18035TIP3   OH275519   5.964   1.463   5.068 -0.5985  0.3950 -0.3265
18035TIP3    H175520   5.924   1.386   5.110 -0.7754  1.3946  1.3848
18035TIP3    H275521   5.921   1.469   4.983 -1.8696 -0.3561  0.2472
18036TIP3   OH275522   4.810   5.091  12.568  0.0213  0.1682  0.3417
18036TIP3    H175523   4.811   5.181  12.537  2.3789  0.3043  0.7081
18036TIP3    H275524   4.780   5.098  12.659  0.6500  0.6631  0.5201
18037TIP3   OH275525   5.859   2.888  12.470 -0.4043  0.3189  0.5289
18037TIP3    H175526   5.774   2.899  12.511 -0.2562 -1.8456  1.5023
18037TIP3    H275527   5.855   2.802  12.428  1.7962 -0.5127  1.9207
18038TIP3   OH275528   5.280   2.041  16.397  0.1531  0.1099  0.0911
18038TIP3    H175529   5.333   2.097  16.340  1.8415 -3.5703 -2.1227
18038TIP3    H275530   5.244   1.974  16.339 -0.5884 -1.9701  2.8322
18039TIP3   OH275531   4.156   2.864   6.444  0.5877 -0.6746 -0.1523
18039TIP3    H175532   4.075   2.820   6.471  0.9104 -0.8036  0.6211
18039TIP3    H275533   4.218   2.793   6.432  0.2458 -0.6854 -1.9995
18040TIP3   OH275534   4.502   1.213  16.163  0.2341  0.6828  0.5728
18040TIP3    H175535   4.413   1.179  16.173 -0.3522  2.1620  0.4439
18040TIP3    H275536   4.531   1.179  16.078 -0.0669 -0.0747  0.7632
18041TIP3   OH275537   3.283   0.413  15.214 -0.2946  0.5182  0.8018
18041TIP3    H175538   3.342   0.337  15.215  0.0406  0.7603 -0.2789
18041TIP3    H275539   3.206   0.383  15.262  0.6072  0.1184  2.0353
18042TIP3   OH275540   1.292   5.066   5.463 -0.3479  0.3645  0.5425
18042TIP3    H175541   1.350   5.077   5.388 -0.7396  0.7946  0.2975
18042TIP3    H275542   1.342   5.100   5.537  0.1374 -0.2967  0.5188
18043TIP3   OH275543   3.067   2.337   5.928  0.3719  0.0564  0.1754
18043TIP3    H175544   3.127   2.263   5.941 -1.3542 -1.2021  1.3447
18043TIP3    H275545   2.995   2.319   5.989 -0.7201  2.0216 -0.5081
18044TIP3   OH275546   5.447   3.463  13.952 -0.3219  0.2984 -0.0121
18044TIP3    H175547   5.490   3.499  14.030 -1.7642  1.4186  0.2795
18044TIP3    H275548   5.356   3.452  13.977 -0.8965  1.0661 -1.6604
18045TIP3   OH275549   3.680   5.434  12.171 -0.0477 -0.5096  0.2665
18045TIP3    H175550   3.773   5.415  12.159 -0.1347 -1.1829  0.6642
18045TIP3    H275551   3.634   5.357  12.138 -0.5052  0.1653 -0.7176
18046TIP3   OH275552   3.710   0.834  12.648 -0.4590 -0.1997 -0.4463
18046TIP3    H175553   3.786   0.870  12.603  0.4705  0.2460  1.4132
18046TIP3    H275554   3.693   0.751  12.604  0.3492  0.2548 -1.6560
18047TIP3   OH275555   5.046   4.713   3.069  0.1082  0.1438  0.1471
18047TIP3    H175556   5.073   4.669   3.150  0.1144  0.1594  0.1535
18047TIP3    H275557   5.084   4.660   2.999 -0.1134 -0.0165  0.1474
18048TIP3   OH275558   3.740   3.415   2.488 -0.4647 -0.6371  0.3190
18048TIP3    H175559   3.676   3.475   2.449 -1.7725 -1.9067  0.4658
18048TIP3    H275560   3.814   3.417   2.427 -0.2910  1.4615  0.5652
18049TIP3   OH275561   3.731   1.557  10.530  0.7523  0.6579  0.0675
18049TIP3    H175562   3.781   1.615  10.472  0.8168  2.1832  1.5873
18049TIP3    H275563   3.767   1.470  10.514  2.2129  1.3728 -0.6453
18050TIP3   OH275564   3.461   2.570   0.146 -0.1378 -0.4107 -0.1289
18050TIP3    H175565   3.386   2.511   0.136 -0.7036  0.4821 -1.2476
18050TIP3    H275566   3.430   2.655   0.113  1.1524  0.1340  0.0164
18051TIP3   OH275567   4.881   5.338   0.277  1.0009 -0.2095  0.5182
18051TIP3    H175568   4.865   5.297   0.192 -0.8029 -0.0609  0.7532
18051TIP3    H275569   4.930   5.272   0.327  1.8168 -0.4017 -0.5307
18052TIP3   OH275570   1.349   5.052  14.595 -0.3285 -0.6566  0.8959
18052TIP3    H175571   1.435   5.094  14.599  0.4919 -1.9940 -1.4822
18052TIP3    H275572   1.345   5.015  14.507 -2.5263 -2.3565  1.6644
18053TIP3   OH275573   5.264   5.140   5.197  0.5266  0.3237  0.4817
18053TIP3    H175574   5.331   5.126   5.264  0.2793 -1.5646  0.3644
18053TIP3    H275575   5.199   5.197   5.239  0.9875  0.1659  1.4180
18054TIP3   OH275576   5.906   6.758  12.077  0.4285 -0.5396  0.1821
18054TIP3    H175577   5.908   6.669  12.112 -1.7131 -0.6826 -0.0503
18054TIP3    H275578   5.934   6.749  11.986 -0.0441 -1.0023  0.0845
18055TIP3   OH275579   5.354   1.872   6.689 -0.9305 -0.3144 -0.2518
18055TIP3    H175580   5.314   1.925   6.620  0.8811  0.6145 -0.6199
18055TIP3    H275581   5.448   1.881   6.674 -0.5192 -0.2240  2.2592
18056TIP3   OH275582   3.847   4.715  12.355  0.3872  0.0370 -0.1979
18056TIP3    H175583   3.888   4.662  12.423 -0.2603 -1.3946 -0.8976
18056TIP3    H275584   3.757   4.727  12.386  0.7184  1.3839  0.3117
18057TIP3   OH275585   4.576   0.783  14.831  0.2412  0.5110  0.0434
18057TIP3    H175586   4.661   0.742  14.813 -0.0952 -0.1746  0.0184
18057TIP3    H275587   4.559   0.764  14.923  0.7449  1.8086  0.4151
18058TIP3   OH275588   1.171   3.533   1.338  0.3771 -0.4519  0.2818
18058TIP3    H175589   1.083   3.546   1.373  0.1892 -1.5631  0.2311
18058TIP3    H275590   1.161   3.466   1.270  0.9912  0.5758 -0.8470
18059TIP3   OH275591   4.376   4.101  12.514 -0.2393  0.4240  0.7981
18059TIP3    H175592   4.387   4.082  12.607  1.1573  1.5666  0.8864
18059TIP3    H275593   4.302   4.162  12.510  0.4082  1.2478  1.2694
18060TIP3   OH275594   2.581   1.998   2.680  0.6259  0.0395  0.3664
18060TIP3    H175595   2.489   2.025   2.688  0.8112  0.6408  0.4766
18060TIP3    H275596   2.620   2.022   2.764  0.4382 -1.9800  1.0518
18061TIP3   OH275597   3.619   1.619   2.521  0.1562  0.2089  0.3251
18061TIP3    H175598   3.685   1.572   2.469  0.2300 -0.1639  0.7443
18061TIP3    H275599   3.625   1.709   2.491 -1.1410 -0.3405 -1.6881
18062TIP3   OH275600   0.646   0.088   1.359 -0.3081  0.2915 -0.3810
18062TIP3    H175601   0.653   0.157   1.292 -0.9392  0.5161 -0.2237
18062TIP3    H275602   0.716   0.108   1.421 -0.6406  0.9351 -0.2077
18063TIP3   OH275603   1.263   0.228  11.274  0.3473 -0.1735  0.0855
18063TIP3    H175604   1.219   0.159  11.224  0.1143 -0.1339  0.2359
18063TIP3    H275605   1.313   0.277  11.208  1.5080 -1.2389  0.1606
18064TIP3   OH275606   6.336   2.850  14.510  0.7026 -0.1136 -0.5524
18064TIP3    H175607   6.321   2.839  14.416  0.7684 -0.6205 -0.5089
18064TIP3    H275608   6.250   2.873  14.546  0.5185 -0.6388 -0.6384
18065TIP3   OH275609   3.337   1.125  14.864 -0.4303 -0.1968 -0.0101
18065TIP3    H175610   3.311   1.194  14.925  0.4537 -0.6389  0.8889
18065TIP3    H275611   3.342   1.046  14.918 -0.9422 -0.8664 -0.9286
18066TIP3   OH275612   3.843   3.597   2.724 -0.4108  0.4431 -0.2225
18066TIP3    H175613   3.906   3.528   2.746  0.0099  0.8715 -0.0765
18066TIP3    H275614   3.798   3.564   2.646  0.9705  0.7491 -1.1716
18067TIP3   OH275615   6.627   4.539   4.136 -0.1138 -0.1522 -0.0529
18067TIP3    H175616   6.565   4.467   4.154 -0.1970  0.0055  0.2902
18067TIP3    H275617   6.653   4.570   4.223  0.3990 -0.1758 -0.2022
18068TIP3   OH275618   2.110   0.376  16.099 -0.0609 -0.1650 -0.1787
18068TIP3    H175619   2.101   0.378  16.003  1.5270  1.4339 -0.3090
18068TIP3    H275620   2.144   0.288  16.117  1.3511  0.1272 -1.2700
18069TIP3   OH275621   3.407   0.857  15.515  0.2462 -0.2702  0.1303
18069TIP3    H175622   3.330   0.863  15.571  2.4934 -1.0707  3.4148
18069TIP3    H275623   3.405   0.767  15.481 -0.6203 -0.0651 -0.3744
18070TIP3   OH275624   0.960   2.744  13.884  0.0945 -0.3579  0.0678
18070TIP3    H175625   0.917   2.668  13.922  1.1564 -1.0863 -0.1675
18070TIP3    H275626   0.981   2.718  13.794 -1.1611  0.8583 -0.5977
18071TIP3   OH275627   3.282   2.955   5.443 -0.2922 -0.3282  0.5168
18071TIP3    H175628   3.210   2.918   5.392 -0.6608  0.2378  0.6178
18071TIP3    H275629   3.250   2.956   5.533 -0.0245 -0.4020  0.6124
18072TIP3   OH275630   4.416   4.098   5.296  0.6741  0.2494  0.5897
18072TIP3    H175631   4.397   4.185   5.330 -2.5550 -0.5847  1.0698
18072TIP3    H275632   4.454   4.051   5.370  0.9713  0.7819  0.7748
18073TIP3   OH275633   3.594   2.085  12.064 -0.4048 -0.4908  0.5424
18073TIP3    H175634   3.555   2.008  12.020  0.4798 -0.6019 -0.0589
18073TIP3    H275635   3.673   2.103  12.014  0.6370 -0.6219  2.1251
18074TIP3   OH275636   4.088   3.825  15.283 -0.5041  0.3857 -0.0160
18074TIP3    H175637   4.076   3.731  15.271 -0.7469  0.7052 -2.5981
18074TIP3    H275638   4.000   3.860  15.296 -0.2508  0.0562  2.9263
18075TIP3   OH275639   3.804   2.236  11.909  0.0220 -0.1174 -0.7128
18075TIP3    H175640   3.846   2.319  11.889  2.4176 -0.6812  1.7077
18075TIP3    H275641   3.827   2.179  11.835 -0.8944  1.0783 -1.9466
18076TIP3   OH275642   3.320   1.695  16.493  0.1527  0.2034 -0.4442
18076TIP3    H175643   3.235   1.651  16.485  0.4062 -0.0276 -1.8582
18076TIP3    H275644   3.380   1.626  16.519 -0.2049  0.4962  1.2314
18077TIP3   OH275645   0.400   1.859  10.540  0.2763 -0.0079 -0.0407
18077TIP3    H175646   0.428   1.903  10.459  0.3214 -1.3521 -0.7719
18077TIP3    H275647   0.397   1.766  10.517 -1.5889 -0.2226  0.9744
18078TIP3   OH275648   1.159   1.020   5.935  0.2101 -0.0965 -0.4928
18078TIP3    H175649   1.161   0.996   5.843 -0.3168  1.6577 -0.9815
18078TIP3    H275650   1.086   0.970   5.971 -0.8855  0.7299 -1.4987
18079TIP3   OH275651   0.075   0.479  14.833 -0.2559  0.3701 -0.2132
18079TIP3    H175652  -0.005   0.430  14.815 -0.0465  0.8489 -2.7597
18079TIP3    H275653   0.144   0.428  14.790  0.5398  0.8267  0.5205
18080TIP3   OH275654   0.069   2.988   0.245 -0.0716  0.6105  0.0419
18080TIP3    H175655   0.099   2.951   0.328  0.6946  1.8200  0.3078
18080TIP3    H275656  -0.005   2.933   0.220  0.5015 -0.5548  0.8799
18081TIP3   OH275657   4.243   3.370   2.642 -0.1372  0.3122 -0.1444
18081TIP3    H175658   4.262   3.357   2.549  1.1253 -0.1104  0.1759
18081TIP3    H275659   4.148   3.357   2.648 -0.4528  1.7799 -1.6158
18082TIP3   OH275660   5.133   3.157   5.276 -0.3178 -0.1724 -0.2560
18082TIP3    H175661   5.144   3.172   5.182  0.8631 -0.3891 -0.1543
18082TIP3    H275662   5.121   3.062   5.284  0.1283 -0.2197 -0.1370
18083TIP3   OH275663   2.384   5.033  14.868 -0.0039 -0.4331 -0.3464
18083TIP3    H175664   2.398   4.962  14.805  1.8685 -1.1285  0.8227
18083TIP3    H275665   2.472   5.058  14.896 -0.8355 -0.5780  2.4786
18084TIP3   OH275666   2.297   3.157  16.959 -0.3515  0.1878  0.3034
18084TIP3    H175667   2.375   3.196  16.998 -0.0754 -0.7618  0.7209
18084TIP3    H275668   2.264   3.097  17.026  0.7854 -2.3520 -1.2987
18085TIP3   OH275669   3.864   4.520   0.751  0.3609  0.2578  0.2239
18085TIP3    H175670   3.895   4.440   0.707 -0.6555 -0.5687  0.9784
18085TIP3    H275671   3.871   4.500   0.844  1.9190  1.7776  0.4710
18086TIP3   OH275672   3.050   5.078   5.583  0.2487  0.2776  0.0461
18086TIP3    H175673   3.040   5.106   5.492  0.9644 -0.3070 -0.2079
18086TIP3    H275674   3.138   5.107   5.608 -0.7156  2.3531  1.2268
18087TIP3   OH275675   6.681   4.647   4.403  0.1251 -0.2340 -0.5695
18087TIP3    H175676   6.624   4.625   4.477 -0.0131 -0.6567 -0.8026
18087TIP3    H275677   6.747   4.704   4.441 -0.2826  0.0225 -0.2372
18088TIP3   OH275678   1.687   4.506   4.991  0.5523  0.0851 -0.0685
18088TIP3    H175679   1.767   4.558   4.992 -0.8658  2.3285 -0.9512
18088TIP3    H275680   1.627   4.552   5.048 -0.2120 -1.4613  0.4029
18089TIP3   OH275681   5.549   6.482   2.319 -0.7692 -0.3669 -0.4229
18089TIP3    H175682   5.514   6.395   2.340 -1.5242 -0.5784 -2.4345
18089TIP3    H275683   5.619   6.464   2.256 -1.3106  0.5248 -1.2790
18090TIP3   OH275684   1.994   0.791  16.250 -0.2485  0.5333  0.0167
18090TIP3    H175685   2.031   0.848  16.317  0.6389 -1.3182  1.1380
18090TIP3    H275686   1.900   0.797  16.263 -0.0997  0.5109  1.1588
18091TIP3   OH275687   3.754   3.724   2.253  0.0861  0.2572 -0.3180
18091TIP3    H175688   3.689   3.698   2.318 -0.5213 -0.0453 -1.0486
18091TIP3    H275689   3.730   3.813   2.229 -0.3813 -0.0505 -0.9901
18092TIP3   OH275690   5.901   1.358   1.366 -0.0451  0.4174 -0.0326
18092TIP3    H175691   5.861   1.426   1.312  0.7724  0.3031 -0.7879
18092TIP3    H275692   5.981   1.400   1.399  0.3851 -0.1332 -0.3817
18093TIP3   OH275693   4.099   5.789  12.172  0.6761 -0.1473 -0.7366
18093TIP3    H175694   4.090   5.882  12.193  0.8051  0.6053 -3.8760
18093TIP3    H275695   4.016   5.765  12.132  0.7462 -1.3220 -0.2017
18094TIP3   OH275696   0.070   6.618  13.103  0.0345 -0.5597 -0.2227
18094TIP3    H175697   0.036   6.546  13.049  0.0249 -1.7686  1.3666
18094TIP3    H275698   0.161   6.627  13.075 -0.1402 -0.7530 -0.8761
18095TIP3   OH275699   6.708   0.105   0.957 -0.3280 -0.5397 -0.0558
18095TIP3    H175700   6.667   0.091   1.043  1.9748 -0.0635  1.1411
18095TIP3    H275701   6.692   0.197   0.938 -1.6116 -0.8506 -0.5869
18096TIP3   OH275702   2.129   3.244   0.831 -0.2568  0.0347  0.0037
18096TIP3    H175703   2.059   3.304   0.858 -1.9224 -1.4759 -0.8253
18096TIP3    H275704   2.161   3.279   0.749 -0.8562  0.1163 -0.2003
18097TIP3   OH275705   0.589   0.767  14.427 -0.2891 -1.0875 -0.1832
18097TIP3    H175706   0.676   0.806  14.433 -0.4091 -0.6955 -0.9089
18097TIP3    H275707   0.538   0.831  14.377 -0.8599 -1.5473 -0.1899
18098TIP3   OH275708   4.831   6.098  14.466  0.3500  0.0574  0.3437
18098TIP3    H175709   4.886   6.172  14.439  1.5123 -1.2859 -1.1140
18098TIP3    H275710   4.893   6.031  14.492 -0.6745 -0.7694  0.6669
18099TIP3   OH275711   0.424   0.338   4.001 -0.8687 -0.2921  0.0791
18099TIP3    H175712   0.386   0.335   3.913  0.7680 -1.0618 -0.6165
18099TIP3    H275713   0.446   0.431   4.014 -1.0005 -0.2003 -0.3491
18100TIP3   OH275714   6.112   6.169  16.409  0.2703 -0.1360 -0.1039
18100TIP3    H175715   6.207   6.157  16.417  0.1696 -1.3006 -0.4232
18100TIP3    H275716   6.079   6.163  16.498  0.4360 -0.4191 -0.0607
18101TIP3   OH275717   3.883   4.573  16.185 -0.0143 -0.0651 -0.1206
18101TIP3    H175718   3.812   4.636  16.186 -0.5176 -0.5512 -2.0782
18101TIP3    H275719   3.885   4.541  16.095  2.7292  0.0043 -0.1543
18102TIP3   OH275720   4.555   3.600   5.558 -0.4881 -0.5562  0.0118
18102TIP3    H175721   4.525   3.641   5.639  0.6069 -2.3011  1.3172
18102TIP3    H275722   4.490   3.533   5.539 -0.9183  0.0611 -0.7581
18103TIP3   OH275723   0.332   2.871   1.997 -0.2772 -0.1775  0.0786
18103TIP3    H175724   0.396   2.937   2.023  0.0848 -0.4950 -0.0060
18103TIP3    H275725   0.285   2.910   1.924 -0.4113  0.1951  0.3667
18104TIP3   OH275726   0.765   6.223   4.412 -0.1620 -0.2262  0.3706
18104TIP3    H175727   0.692   6.257   4.361 -1.2676 -1.8902  0.8178
18104TIP3    H275728   0.841   6.271   4.379 -0.7393 -1.6541 -3.2859
18105TIP3   OH275729   3.113   5.496  14.116 -0.2016  0.2004  0.3931
18105TIP3    H175730   3.065   5.503  14.199  1.6202  0.4880  1.4439
18105TIP3    H275731   3.200   5.466  14.141 -0.0874 -1.2202 -1.5854
18106TIP3   OH275732   5.118   1.560  14.974  0.6961  0.0059  0.5624
18106TIP3    H175733   5.151   1.472  14.993  1.0291 -0.0400 -0.2400
18106TIP3    H275734   5.152   1.581  14.888 -2.4545 -0.5858 -0.9059
18107TIP3   OH275735   3.160   6.440  15.627  0.0950  0.1483 -0.3969
18107TIP3    H175736   3.078   6.393  15.610 -0.1401  0.0786  0.9007
18107TIP3    H275737   3.222   6.371  15.650 -0.2072  0.4490  1.3437
18108TIP3   OH275738   4.400   5.068   5.155  0.4853  0.0163 -0.1532
18108TIP3    H175739   4.314   5.105   5.175  0.3426  0.0165 -0.7552
18108TIP3    H275740   4.387   5.020   5.073  1.2122  0.5488 -0.5806
18109TIP3   OH275741   1.588   5.556  11.720 -0.4075 -0.1097  0.1019
18109TIP3    H175742   1.645   5.631  11.735 -1.2886  0.7978 -1.0267
18109TIP3    H275743   1.525   5.585  11.654 -1.9387 -1.2124  1.0180
18110TIP3   OH275744   0.813   3.613  15.694 -0.2507  0.5260  0.1775
18110TIP3    H175745   0.811   3.517  15.702 -1.6206  0.4677 -0.6729
18110TIP3    H275746   0.749   3.643  15.758 -2.3237  0.6790 -1.9151
18111TIP3   OH275747   1.589   1.402  11.284 -0.0510 -0.1358 -0.2484
18111TIP3    H175748   1.675   1.438  11.261 -0.2622  1.6732  1.6081
18111TIP3    H275749   1.552   1.466  11.345 -2.7077 -0.9027 -0.9658
18112TIP3   OH275750   6.062   4.357   3.979  0.3863 -0.2834 -0.7791
18112TIP3    H175751   5.972   4.391   3.981  0.5352  0.1281 -1.1180
18112TIP3    H275752   6.115   4.429   4.012  0.5828 -0.5754 -0.4484
18113TIP3   OH275753   3.178   4.155   1.585  0.0083  0.2062 -0.3951
18113TIP3    H175754   3.106   4.128   1.527  0.0677 -0.6288 -0.0898
18113TIP3    H275755   3.257   4.145   1.531  0.0849 -0.7723 -0.1190
18114TIP3   OH275756   1.534   5.152   5.613  0.0522  0.1067  0.0644
18114TIP3    H175757   1.565   5.130   5.701 -1.8784 -1.2727  0.4422
18114TIP3    H275758   1.576   5.088   5.556 -0.8820 -0.7924  0.3718
18115TIP3   OH275759   1.546   0.420  16.651  0.7014  0.1570 -0.1708
18115TIP3    H175760   1.516   0.436  16.562  0.7519 -0.2773 -0.2671
18115TIP3    H275761   1.466   0.406  16.701  0.5352  2.5891  0.3090
18116TIP3   OH275762   6.748   6.477  13.499  0.2416 -0.1545  0.3942
18116TIP3    H175763   6.782   6.566  13.491 -0.5304  0.0230 -1.2646
18116TIP3    H275764   6.815   6.422  13.460  1.1429 -0.4148  2.2771
18117TIP3   OH275765   5.633   4.325   3.605  0.2652 -0.4390  0.3592
18117TIP3    H175766   5.604   4.234   3.592 -0.9288 -0.3821  2.5202
18117TIP3    H275767   5.723   4.317   3.637  1.0306 -0.7517 -1.7518
18118TIP3   OH275768   0.173   0.259   2.334  0.4728 -0.5229  0.0903
18118TIP3    H175769   0.247   0.292   2.283 -0.1593  1.3886  0.3642
18118TIP3    H275770   0.195   0.279   2.425  0.8704 -2.4722  0.4380
18119TIP3   OH275771   1.813   0.070  13.566 -0.7795  0.3844 -0.2390
18119TIP3    H175772   1.832  -0.020  13.539 -2.0920  0.3617 -1.1110
18119TIP3    H275773   1.805   0.119  13.484 -0.2385  1.2638  0.2281
18120TIP3   OH275774   2.146   1.168   5.623 -0.6522  0.9282 -0.7625
18120TIP3    H175775   2.231   1.212   5.625 -0.0425 -0.2390 -0.2334
18120TIP3    H275776   2.111   1.182   5.711 -1.8468  2.9622 -1.5184
18121TIP3   OH275777   3.326   1.154  13.145  0.0396  0.2049  0.4597
18121TIP3    H175778   3.329   1.249  13.150  1.1957  0.2015 -0.0518
18121TIP3    H275779   3.290   1.127  13.230 -2.5118  1.1764 -0.2764
18122TIP3   OH275780   2.498   1.726   6.291 -0.8918 -0.4305  0.3042
18122TIP3    H175781   2.570   1.790   6.298 -2.4526  1.3340  0.7625
18122TIP3    H275782   2.527   1.651   6.343  0.1471  0.7039  1.3977
18123TIP3   OH275783   4.374   5.854   3.224 -0.0586  0.3298 -0.0912
18123TIP3    H175784   4.355   5.766   3.190  0.9115  0.2126 -0.3404
18123TIP3    H275785   4.462   5.847   3.261  0.8348  1.7005 -1.8911
18124TIP3   OH275786   1.559   4.005  15.125 -0.1836 -0.0358 -0.5058
18124TIP3    H175787   1.513   4.073  15.173 -2.8801 -1.0811 -1.5479
18124TIP3    H275788   1.601   4.051  15.053  1.3178  1.0663  1.0089
18125TIP3   OH275789   2.758   2.671  16.062  0.1926  0.1275  0.6349
18125TIP3    H175790   2.695   2.743  16.064 -1.7701 -1.5536  0.8316
18125TIP3    H275791   2.783   2.664  15.970 -0.7631  0.1041  0.3705
18126TIP3   OH275792   6.563   2.938   5.628  0.4004 -0.1515 -0.2825
18126TIP3    H175793   6.639   2.995   5.617  1.6797 -1.5410  1.1330
18126TIP3    H275794   6.596   2.851   5.607 -0.9888 -0.6705 -0.3145
18127TIP3   OH275795   0.670   1.457  14.068 -0.1558 -0.1557 -0.0860
18127TIP3    H175796   0.707   1.481  14.153 -1.4044 -0.4332  0.5582
18127TIP3    H275797   0.576   1.451  14.085 -0.4400  0.0655 -1.5632
18128TIP3   OH275798   6.414   1.173  15.598  0.4473 -0.5669  0.3681
18128TIP3    H175799   6.413   1.259  15.642  1.7671 -0.1809 -0.3391
18128TIP3    H275800   6.506   1.158  15.578  0.3332 -2.6014  1.3247
18129TIP3   OH275801   0.194   6.307  14.065 -0.1106 -0.5072  0.3434
18129TIP3    H175802   0.232   6.394  14.049  0.8125 -1.4487 -2.7957
18129TIP3    H275803   0.266   6.256  14.102 -0.9946  0.3420  3.4297
18130TIP3   OH275804   5.145   2.942   4.466 -0.4496 -0.0505 -0.2764
18130TIP3    H175805   5.104   2.861   4.438 -0.2262 -0.2234 -0.1092
18130TIP3    H275806   5.180   2.981   4.386  0.6612 -0.8082 -0.1749
18131TIP3   OH275807   4.953   0.783  16.805  0.3216  0.1052 -0.7263
18131TIP3    H175808   4.902   0.764  16.884  0.3388  2.3169 -0.1482
18131TIP3    H275809   4.963   0.878  16.806  1.9054 -0.0313 -2.4278
18132TIP3   OH275810   1.439   4.228   0.877  0.3739  0.4691  0.3857
18132TIP3    H175811   1.376   4.161   0.852  0.3708 -0.7472  3.4213
18132TIP3    H275812   1.516   4.211   0.824 -0.7346 -0.0001 -1.0904
18133TIP3   OH275813   0.742   2.764   4.398  0.1919  0.0375 -0.2668
18133TIP3    H175814   0.662   2.712   4.387 -0.9296  1.4834  0.7705
18133TIP3    H275815   0.716   2.853   4.371  1.6109  0.4066 -0.4511
18134TIP3   OH275816   4.665   4.550  13.487  0.3670 -0.1634 -0.4384
18134TIP3    H175817   4.665   4.620  13.552  1.6370  0.4391 -1.0854
18134TIP3    H275818   4.597   4.489  13.518  0.2475  0.6280  0.8915
18135TIP3   OH275819   2.640   2.318  16.736  0.0920 -0.4409  0.4833
18135TIP3    H175820   2.580   2.389  16.712 -1.5171 -3.0007 -3.5371
18135TIP3    H275821   2.588   2.261  16.792 -0.6122 -1.4709 -1.1593
18136TIP3   OH275822   4.565   4.309   6.074 -0.2260  0.0202  0.1519
18136TIP3    H175823   4.579   4.224   6.031  0.1864  0.0326  0.2611
18136TIP3    H275824   4.652   4.350   6.075 -0.6025  0.8531 -0.7714
18137TIP3   OH275825   0.593   2.418  11.846 -0.6503 -0.2390  0.1364
18137TIP3    H175826   0.515   2.426  11.901 -0.5815  0.0523  0.1928
18137TIP3    H275827   0.561   2.384  11.763 -0.8192 -0.2575  0.2086
18138TIP3   OH275828   1.081   0.363   4.092  0.0386  0.0554 -0.4954
18138TIP3    H175829   0.990   0.341   4.111 -0.3021  0.5221 -1.5740
18138TIP3    H275830   1.081   0.457   4.076  0.8517  0.1950  0.2937
18139TIP3   OH275831   4.976   3.636  15.040 -0.0308 -0.6335  0.3194
18139TIP3    H175832   4.996   3.670  14.953  2.3522  0.8475  1.3956
18139TIP3    H275833   4.902   3.689  15.071  0.2708  0.0346 -0.1010
18140TIP3   OH275834   3.913   2.288  12.424  0.8429  0.1898  0.4737
18140TIP3    H175835   3.928   2.355  12.357  0.6949  1.1380  1.3726
18140TIP3    H275836   3.839   2.238  12.390  1.4056  0.0290 -0.5473
18141TIP3   OH275837   0.023   6.670   5.568 -0.1812 -0.2776 -0.0909
18141TIP3    H175838   0.041   6.763   5.560 -0.3922 -0.0661  1.5987
18141TIP3    H275839  -0.024   6.662   5.651 -0.2659 -1.8744 -0.2718
18142TIP3   OH275840   1.016   4.216  17.098  0.3179 -0.4615  0.0517
18142TIP3    H175841   1.090   4.155  17.096  0.0990 -0.7037 -0.5952
18142TIP3    H275842   0.969   4.193  17.178  1.5939  0.4691  1.0946
18143TIP3   OH275843   4.416   2.228   2.018  0.0059 -0.1426  0.2303
18143TIP3    H175844   4.468   2.300   1.982  0.9340 -0.5973  0.6523
18143TIP3    H275845   4.357   2.203   1.947  1.3052 -0.5366 -0.7150
18144TIP3   OH275846   2.001   4.943  13.970  0.0177 -0.6031 -0.5472
18144TIP3    H175847   1.930   4.881  13.952 -1.1016  0.8856 -1.3652
18144TIP3    H275848   2.067   4.924  13.903 -0.4268 -0.7538 -0.9470
18145TIP3   OH275849   5.193   0.370   2.012  0.1154  0.4127  0.2697
18145TIP3    H175850   5.283   0.386   2.039 -0.1647  1.2971  0.7061
18145TIP3    H275851   5.154   0.321   2.084  1.0466 -2.5738 -1.1792
18146TIP3   OH275852   3.284   1.502   4.593 -0.4129  0.5415 -0.4353
18146TIP3    H175853   3.303   1.513   4.500  0.3932 -0.6587 -0.4208
18146TIP3    H275854   3.216   1.435   4.596 -1.2373  1.3793 -0.2165
18147TIP3   OH275855   6.656   6.694   4.123 -0.2157 -0.1115 -0.0998
18147TIP3    H175856   6.706   6.631   4.071  0.5908  0.5746 -0.1612
18147TIP3    H275857   6.685   6.780   4.092 -1.2882  0.2939  0.0053
18148TIP3   OH275858   6.435   0.022   0.223  0.3195  0.4382  0.1194
18148TIP3    H175859   6.524   0.036   0.193 -0.7086  3.3052 -1.8279
18148TIP3    H275860   6.414   0.100   0.273 -0.3398 -1.2649  2.5752
18149TIP3   OH275861   3.124   6.783  13.166  0.5503 -0.1315 -0.0598
18149TIP3    H175862   3.056   6.823  13.112  0.2520 -1.9728 -1.1046
18149TIP3    H275863   3.190   6.852  13.177 -1.2031  1.4806  0.5010
18150TIP3   OH275864   3.216   4.128   5.478  0.2759  0.3615 -0.5208
18150TIP3    H175865   3.172   4.048   5.506  0.5099  0.2899 -0.3564
18150TIP3    H275866   3.163   4.199   5.514 -0.3195  0.2904 -1.2500
18151TIP3   OH275867   3.978   3.407   2.316  0.1743 -0.0574 -0.1960
18151TIP3    H175868   3.982   3.413   2.220 -0.7639 -0.5226 -0.2750
18151TIP3    H275869   4.031   3.329   2.337 -0.9980 -0.9549 -0.4880
18152TIP3   OH275870   3.221   3.584  15.195 -0.2367 -0.4978 -0.1847
18152TIP3    H175871   3.190   3.654  15.253 -3.4658 -0.6373 -1.6097
18152TIP3    H275872   3.316   3.588  15.200 -0.3591  3.5725  0.2915
18153TIP3   OH275873   1.928   6.011  14.205  0.3226  0.0722 -0.3915
18153TIP3    H175874   1.894   6.043  14.122 -0.9614 -1.7058 -0.5713
18153TIP3    H275875   1.897   5.921  14.211  0.5291  0.1234  1.9432
18154TIP3   OH275876   6.546   3.883   1.818 -0.2535 -0.4798 -0.7151
18154TIP3    H175877   6.533   3.800   1.771  1.1502 -0.6642 -0.7932
18154TIP3    H275878   6.639   3.902   1.808 -0.6759  1.4320 -1.2242
18155TIP3   OH275879   2.031   1.092   3.706  0.0699 -0.2326  1.0070
18155TIP3    H175880   1.959   1.155   3.704  0.5770  0.3361 -2.8529
18155TIP3    H275881   1.988   1.008   3.722 -1.6619 -0.0547 -2.3208
18156TIP3   OH275882   0.077   0.955  15.652 -0.9824  0.6698  0.0887
18156TIP3    H175883   0.165   0.985  15.674 -1.3610  0.9774  1.2010
18156TIP3    H275884   0.074   0.864  15.684 -0.8747  0.4586 -0.4897
18157TIP3   OH275885   4.854   1.155   3.793 -0.1262 -0.6288  0.3991
18157TIP3    H175886   4.760   1.171   3.788 -0.1309 -0.3083  1.4059
18157TIP3    H275887   4.869   1.079   3.736 -0.7531  0.2414 -0.9535
18158TIP3   OH275888   1.825   1.991   3.175 -0.2047  0.5287 -0.5012
18158TIP3    H175889   1.900   1.981   3.233  0.2965 -3.8771 -1.7325
18158TIP3    H275890   1.859   1.975   3.087 -1.7262  3.1025 -1.6195
18159TIP3   OH275891   5.921   0.050   5.512 -0.1263 -0.3679  0.2322
18159TIP3    H175892   5.908  -0.042   5.492  2.2963 -0.5474 -0.7199
18159TIP3    H275893   5.917   0.093   5.426  0.6181  0.1455  0.4496
18160TIP3   OH275894   2.918   5.708  11.449  0.4089 -0.1187 -0.1513
18160TIP3    H175895   2.900   5.802  11.450 -0.0926 -0.2181  0.5687
18160TIP3    H275896   2.897   5.680  11.360 -0.3978  0.2747 -0.0885
18161TIP3   OH275897   3.818   1.769   0.277  0.1497 -0.0734 -0.7564
18161TIP3    H175898   3.839   1.814   0.359 -1.0774  1.9381 -1.4999
18161TIP3    H275899   3.732   1.802   0.253  0.4185 -0.7585 -2.7739
18162TIP3   OH275900   1.121   0.391  14.825  0.0201  0.3627 -0.6882
18162TIP3    H175901   1.057   0.378  14.755 -0.1049 -0.9057 -0.3646
18162TIP3    H275902   1.156   0.478  14.810 -2.7805  1.6490 -0.0561
18163TIP3   OH275903   5.553   1.159  16.824 -0.3589  0.1004 -0.3721
18163TIP3    H175904   5.636   1.199  16.799  0.1526 -0.8389 -0.2289
18163TIP3    H275905   5.564   1.067  16.799 -0.8384 -0.3058  0.8922
18164TIP3   OH275906   3.157   2.540   2.322 -0.7718  0.5837  0.2241
18164TIP3    H175907   3.094   2.471   2.300 -0.0412 -0.4640  1.3233
18164TIP3    H275908   3.225   2.532   2.255 -0.1454 -0.5038  0.9634
18165TIP3   OH275909   2.260   1.894  14.479  0.3117 -0.1394 -0.5451
18165TIP3    H175910   2.266   1.900  14.384 -0.0750  1.2657 -0.5011
18165TIP3    H275911   2.171   1.924  14.499 -0.4295 -2.6793  0.1064
18166TIP3   OH275912   3.983   4.050  16.053 -0.1820 -0.1905 -0.0389
18166TIP3    H175913   3.942   4.130  16.085 -1.2513 -1.0221  0.7312
18166TIP3    H275914   3.952   4.040  15.963 -0.9479 -0.3304  0.2410
18167TIP3   OH275915   2.404   2.149   5.246  0.0371  0.5008  0.6815
18167TIP3    H175916   2.349   2.166   5.169 -0.1495  0.9695  0.9185
18167TIP3    H275917   2.460   2.226   5.253  0.8067 -0.0289  0.3786
18168TIP3   OH275918   2.956   5.176   0.787  0.4609 -0.3929 -0.4712
18168TIP3    H175919   2.883   5.113   0.793  0.0253  0.0438 -1.1337
18168TIP3    H275920   3.007   5.161   0.866  0.2168 -1.4136 -0.5011
18169TIP3   OH275921   0.695   1.226  13.031 -0.0948 -0.1575  0.4883
18169TIP3    H175922   0.785   1.213  13.060 -0.1882 -0.1715  0.7741
18169TIP3    H275923   0.682   1.159  12.964  0.7566  1.1621 -1.0210
18170TIP3   OH275924   2.493   1.346  16.913  0.4166  0.0659  0.7855
18170TIP3    H175925   2.426   1.281  16.893  1.8643 -1.2660  0.1655
18170TIP3    H275926   2.517   1.382  16.828  1.5398 -0.5201  0.8504
18171TIP3   OH275927   5.428   6.166  10.701 -0.3018  0.4088 -0.0006
18171TIP3    H175928   5.401   6.113  10.627 -0.4871  0.8124 -0.2244
18171TIP3    H275929   5.454   6.103  10.768 -1.3335  0.0149  0.0444
18172TIP3   OH275930   1.797   5.522   5.804  0.5137 -0.0590  0.1640
18172TIP3    H175931   1.714   5.525   5.757  1.9451  2.4405 -2.3195
18172TIP3    H275932   1.788   5.586   5.874 -0.2147 -0.9763  0.9234
18173TIP3   OH275933   5.186   3.997  14.051  0.2257  0.5173 -0.0469
18173TIP3    H175934   5.140   3.926  14.096  1.6880  0.0655  0.7674
18173TIP3    H275935   5.117   4.047  14.008 -1.0819  0.2149  1.6536
18174TIP3   OH275936   0.784   0.950  16.925 -0.1864  0.1057  0.5224
18174TIP3    H175937   0.725   1.013  16.967  1.6144  0.4047  2.6771
18174TIP3    H275938   0.751   0.864  16.953 -0.5268  0.2160  0.4613
18175TIP3   OH275939   2.649   5.135  14.870 -0.0570 -0.0766  0.5093
18175TIP3    H175940   2.669   5.109  14.960 -1.2028 -0.6450  0.6107
18175TIP3    H275941   2.709   5.084  14.816  0.5153  0.1373  0.9374
18176TIP3   OH275942   2.072   4.502   2.819 -0.0619  0.0684  0.5091
18176TIP3    H175943   2.118   4.423   2.847  0.2638  0.1052  0.0853
18176TIP3    H275944   2.131   4.573   2.844  1.0193  0.0071 -1.7999
18177TIP3   OH275945   3.950   4.273  10.636 -0.6128  0.6208 -0.0655
18177TIP3    H175946   4.029   4.289  10.687 -0.6715  0.4911  0.0649
18177TIP3    H275947   3.900   4.209  10.687  0.3057 -1.1352 -1.3082
18178TIP3   OH275948   2.229   6.186  14.696  0.1766  0.4877  0.2479
18178TIP3    H175949   2.167   6.256  14.714 -0.4530 -0.4336  1.7460
18178TIP3    H275950   2.197   6.146  14.615 -0.9551  0.2947  0.7749
18179TIP3   OH275951   2.417   3.372  13.839  0.2137 -0.3771  0.2258
18179TIP3    H175952   2.496   3.412  13.802  0.3298 -1.4418 -0.7165
18179TIP3    H275953   2.348   3.436  13.824  0.8277  0.4473  0.8119
18180TIP3   OH275954   2.793   3.907  15.452 -0.1250 -0.4434  0.5343
18180TIP3    H175955   2.806   3.979  15.513 -0.0842 -1.1010  1.3090
18180TIP3    H275956   2.878   3.862  15.450  0.1824  0.1826 -0.7931
18181TIP3   OH275957   4.565   3.323  11.159 -0.1821 -0.4939  0.7225
18181TIP3    H175958   4.508   3.358  11.092 -0.1694  0.4200  1.1786
18181TIP3    H275959   4.563   3.228  11.146 -0.8921 -0.3828  0.0202
18182TIP3   OH275960   4.020   2.624  15.247 -0.4177  0.0313  0.7726
18182TIP3    H175961   3.998   2.611  15.154 -0.8761 -1.0429  1.0183
18182TIP3    H275962   4.110   2.592  15.254  0.0558  1.2589  0.4592
18183TIP3   OH275963   4.419   2.538   1.842  0.0200  0.3568 -0.4226
18183TIP3    H175964   4.392   2.629   1.830  0.2874  0.4895 -0.0317
18183TIP3    H275965   4.514   2.539   1.829  0.0007  0.1030 -0.5893
18184TIP3   OH275966   5.776   2.390  12.345  0.1493  0.4085 -0.2977
18184TIP3    H175967   5.694   2.389  12.394 -0.2189  0.3956 -0.9186
18184TIP3    H275968   5.800   2.298  12.334 -1.7035  0.2397 -3.3900
18185TIP3   OH275969   4.183   5.008   2.929  0.6312  0.1546 -0.5093
18185TIP3    H175970   4.228   4.944   2.984 -0.8514 -0.5854 -0.1103
18185TIP3    H275971   4.199   4.979   2.840 -0.7564 -1.3084 -0.3042
18186TIP3   OH275972   4.996   5.214  13.986 -0.6484  0.2560  0.7701
18186TIP3    H175973   5.068   5.267  13.953 -0.3726  0.6124  1.9129
18186TIP3    H275974   4.938   5.203  13.911 -0.7381  2.2439  0.5171
18187TIP3   OH275975   2.747   0.879   5.024  0.6770  0.1865 -0.2777
18187TIP3    H175976   2.785   0.798   4.992 -0.1964 -0.6493  0.7383
18187TIP3    H275977   2.818   0.923   5.070  1.2296  0.1370 -1.0827
18188TIP3   OH275978   0.642   3.603   4.489 -0.1463  0.3473 -0.0681
18188TIP3    H175979   0.702   3.666   4.529 -0.9433  0.5742  0.7734
18188TIP3    H275980   0.590   3.655   4.428 -0.4128  0.4049  0.2060
18189TIP3   OH275981   2.795   1.377   4.722 -0.2814 -0.2671  0.1202
18189TIP3    H175982   2.789   1.436   4.797  0.1254 -0.4879  0.3294
18189TIP3    H275983   2.704   1.357   4.699 -0.4196  0.5557 -0.0440
18190TIP3   OH275984   3.824   2.431  14.890  0.0374  0.4701  0.3676
18190TIP3    H175985   3.767   2.498  14.853  0.2394 -0.3743 -1.5387
18190TIP3    H275986   3.767   2.354  14.900  0.7073 -0.2184 -1.0559
18191TIP3   OH275987   4.031   2.302   0.451  0.6792  0.2406  0.7104
18191TIP3    H175988   4.089   2.376   0.430  1.4488  0.0062  1.9954
18191TIP3    H275989   3.990   2.326   0.534 -0.0965 -0.1911  0.4642
18192TIP3   OH275990   1.694   0.431  12.825 -0.2164 -0.2580  0.0678
18192TIP3    H175991   1.685   0.412  12.918 -1.5800 -2.3621 -0.4662
18192TIP3    H275992   1.752   0.362  12.791 -0.2604  0.1085 -0.7751
18193TIP3   OH275993   4.860   0.412  13.710  0.3847 -0.6760  0.0594
18193TIP3    H175994   4.823   0.500  13.701 -1.4388 -1.1493  2.3131
18193TIP3    H275995   4.793   0.355  13.671  0.1753 -1.3000  1.3315
18194TIP3   OH275996   3.562   2.511  16.458 -0.6971  0.4814  0.7743
18194TIP3    H175997   3.574   2.416  16.465  0.0595  0.5425  0.3381
18194TIP3    H275998   3.488   2.530  16.516 -0.0264 -0.2012  1.8853
18195TIP3   OH275999   1.744   3.252   5.544  0.1404 -0.2592  0.3009
18195TIP3    H176000   1.689   3.199   5.602  0.1751 -0.3925  0.2128
18195TIP3    H276001   1.833   3.234   5.574  0.1830 -0.6248 -0.0411
18196TIP3   OH276002   0.898   5.076   2.319 -0.3066 -0.1122 -0.0395
18196TIP3    H176003   0.955   5.003   2.298 -0.2436 -0.5521  1.6111
18196TIP3    H276004   0.875   5.064   2.412  0.6643  2.5756  0.6160
18197TIP3   OH276005   6.446   1.930  16.901 -1.0208  0.1191 -0.0984
18197TIP3    H176006   6.429   1.880  16.821 -0.3922 -1.6485  0.8497
18197TIP3    H276007   6.397   1.884  16.969  0.6254 -0.0145  1.0419
18198TIP3   OH276008   0.931   0.894  17.229  0.2827 -0.6950 -0.2579
18198TIP3    H176009   0.942   0.799  17.223 -1.3518 -0.8908 -0.5674
18198TIP3    H276010   0.836   0.906  17.228  0.4862  0.9391 -0.1249
18199TIP3   OH276011   0.193   5.924   3.663  0.1389 -0.2177 -0.3186
18199TIP3    H176012   0.271   5.871   3.679  0.4689  0.0223 -1.1110
18199TIP3    H276013   0.198   5.947   3.570  0.0720  1.3073  0.0427
18200TIP3   OH276014   3.901   4.239  11.884 -1.1673 -0.5544  0.6372
18200TIP3    H176015   3.993   4.231  11.856 -1.1158 -1.1731  0.9844
18200TIP3    H276016   3.866   4.309  11.829 -0.8108 -1.1231 -0.3332
18201TIP3   OH276017   0.982   1.911   1.163  0.2629  0.6142  0.0759
18201TIP3    H176018   0.965   1.875   1.250  0.8071 -1.3257 -0.6083
18201TIP3    H276019   0.895   1.923   1.125  0.1150 -3.1131 -0.9265
18202TIP3   OH276020   4.948   6.457  14.680  0.0562 -0.1713  0.5423
18202TIP3    H176021   4.933   6.501  14.764  2.4951 -1.8900  1.9160
18202TIP3    H276022   5.040   6.472  14.661  0.5474 -3.2162  0.2277
18203TIP3   OH276023   0.984   2.958   6.282  0.0444 -0.1616 -0.4694
18203TIP3    H176024   0.960   3.015   6.355  1.6863 -0.7321  0.5505
18203TIP3    H276025   0.991   2.871   6.321  0.0990 -0.6229 -1.4865
18204TIP3   OH276026   5.826   3.995   0.185  0.6461  0.6109  0.0398
18204TIP3    H176027   5.733   3.983   0.164  0.6763  0.1618  0.1513
18204TIP3    H276028   5.863   4.040   0.109  0.5826 -0.2566 -0.5056
18205TIP3   OH276029   0.884   6.118  15.099 -0.1282  0.3119  0.4861
18205TIP3    H176030   0.932   6.200  15.103 -1.1468  0.8991  0.8485
18205TIP3    H276031   0.927   6.068  15.029 -0.4008  1.7073 -0.6908
18206TIP3   OH276032   1.940   1.153   2.799  0.0301  0.0701 -0.1769
18206TIP3    H176033   1.928   1.209   2.722 -1.7924  1.4329  1.0327
18206TIP3    H276034   2.018   1.189   2.842  0.5637 -0.1638 -0.9446
18207TIP3   OH276035   4.427   5.839  12.550 -0.1021 -0.7023 -0.3990
18207TIP3    H176036   4.408   5.892  12.472 -0.1461 -0.5795 -0.3061
18207TIP3    H276037   4.413   5.749  12.522 -0.9104 -0.6064 -0.2976
18208TIP3   OH276038   2.844   0.570  12.773  0.6311  0.4448  0.4222
18208TIP3    H176039   2.795   0.567  12.691  0.3092  0.0812  0.6251
18208TIP3    H276040   2.925   0.616  12.751 -0.9567  3.5139  0.7134
18209TIP3   OH276041   5.886   0.638  15.906  0.0344  0.2684 -0.5195
18209TIP3    H176042   5.923   0.722  15.931 -2.0991  1.0150  0.1405
18209TIP3    H276043   5.901   0.581  15.982 -0.4236  0.6414 -0.1519
18210TIP3   OH276044   1.443   0.648  13.303  0.6305 -0.1102  0.4440
18210TIP3    H176045   1.412   0.587  13.237  0.3557 -1.7927  2.0865
18210TIP3    H276046   1.531   0.671  13.275  1.2528 -2.3308  0.5058
18211TIP3   OH276047   1.550   1.522   0.954 -0.2885  0.4067 -0.0835
18211TIP3    H176048   1.559   1.527   0.859  0.1152 -0.0126 -0.0676
18211TIP3    H276049   1.456   1.527   0.969 -0.5836 -2.2700 -0.6826
18212TIP3   OH276050   0.345   6.152   0.949 -0.0171  0.1123  0.4611
18212TIP3    H176051   0.282   6.215   0.913  0.1828  0.6381  1.0252
18212TIP3    H276052   0.301   6.067   0.940 -0.4870  0.3846  0.1359
18213TIP3   OH276053   1.905   1.444   3.166 -0.1021 -0.9782 -0.6947
18213TIP3    H176054   1.902   1.532   3.130  0.6391 -0.5748  0.1934
18213TIP3    H276055   1.997   1.418   3.159 -0.1923 -1.4041 -0.3344
18214TIP3   OH276056   2.070   5.216  15.784 -0.8989  0.5165 -0.3970
18214TIP3    H176057   2.016   5.187  15.710 -1.0564  1.0793 -0.5058
18214TIP3    H276058   2.118   5.138  15.810  0.0362  0.5736 -1.8549
18215TIP3   OH276059   3.344   3.085  14.054 -0.4197  0.5038  0.2572
18215TIP3    H176060   3.328   3.100  13.961 -0.7738  1.1772  0.4282
18215TIP3    H276061   3.439   3.088  14.063 -0.1175 -3.1164 -0.6998
18216TIP3   OH276062   3.776   3.299  13.934 -0.6659  0.3474 -0.2159
18216TIP3    H176063   3.830   3.360  13.884  0.6134 -1.4393 -1.0318
18216TIP3    H276064   3.825   3.282  14.014 -1.1018  0.4967  0.0909
18217TIP3   OH276065   5.757   2.454  12.051  0.2938 -0.0387 -0.4429
18217TIP3    H176066   5.782   2.450  12.143  0.6786 -1.2384 -0.5883
18217TIP3    H276067   5.828   2.504  12.009  0.5023 -0.1512 -0.2221
18218TIP3   OH276068   5.573   6.683   3.996  0.6377 -0.1880  0.3129
18218TIP3    H176069   5.547   6.702   3.906  0.8216 -2.0494 -0.1550
18218TIP3    H276070   5.663   6.715   4.002  0.8669 -0.6875 -0.3838
18219TIP3   OH276071   1.601   0.836   2.056  0.7118 -0.0178  0.0268
18219TIP3    H176072   1.607   0.749   2.096  0.6696 -0.3291 -0.6405
18219TIP3    H276073   1.517   0.870   2.087 -0.2942 -1.1005 -1.4466
18220TIP3   OH276074   5.381   2.470  16.155 -0.4835  0.0033  0.1736
18220TIP3    H176075   5.470   2.485  16.187 -0.9979 -0.1271  1.7355
18220TIP3    H276076   5.358   2.552  16.111  0.6947 -0.2599 -0.9692
18221TIP3   OH276077   0.569   4.838   1.174  0.0141  0.2830  0.6411
18221TIP3    H176078   0.664   4.852   1.174  0.2313 -0.7716 -2.1658
18221TIP3    H276079   0.559   4.743   1.188 -0.6693  0.5138  1.7571
18222TIP3   OH276080   2.632   3.212   1.953  0.3752  0.0292 -0.0761
18222TIP3    H176081   2.718   3.234   1.988  1.0657 -2.3436 -0.1958
18222TIP3    H276082   2.572   3.229   2.026  1.1769 -0.0519  0.6059
18223TIP3   OH276083   0.105   2.004   5.615 -0.3989  0.0228  0.0858
18223TIP3    H176084   0.190   1.977   5.650  0.0377  1.4872  0.1967
18223TIP3    H276085   0.126   2.073   5.552 -1.5388  0.9260  0.6607
18224TIP3   OH276086   3.208   6.599  12.829 -0.9095 -0.2418  0.5378
18224TIP3    H176087   3.251   6.605  12.914 -0.1301 -1.8394  0.2699
18224TIP3    H276088   3.275   6.627  12.766 -1.2206  0.1475  0.3766
18225TIP3   OH276089   6.317   3.252   0.300 -0.9669 -0.4716  0.1721
18225TIP3    H176090   6.358   3.231   0.384 -0.6762  1.2509  0.4659
18225TIP3    H276091   6.286   3.342   0.310 -0.4973 -0.0821 -1.7360
18226TIP3   OH276092   2.438   6.723  12.645  0.3614 -0.1698 -0.1346
18226TIP3    H176093   2.481   6.791  12.594  0.0584  2.1537  2.5558
18226TIP3    H276094   2.380   6.679  12.583  0.5960  2.0053 -1.9613
18227TIP3   OH276095   6.601   3.730  10.799 -0.3782 -0.4468  0.7057
18227TIP3    H176096   6.511   3.702  10.817  0.0765 -3.1064 -0.7625
18227TIP3    H276097   6.592   3.815  10.756 -2.3045 -1.3147 -0.6882
18228TIP3   OH276098   4.216   3.948  16.436  0.0384 -0.6614 -0.6120
18228TIP3    H176099   4.199   4.023  16.492  1.8439 -0.6490 -0.0538
18228TIP3    H276100   4.296   3.970  16.389  0.6836 -2.2938 -0.3230
18229TIP3   OH276101   6.318   4.555   5.826 -0.9318 -0.6060  1.0829
18229TIP3    H176102   6.377   4.596   5.889 -1.5249  0.0783  1.1885
18229TIP3    H276103   6.255   4.623   5.804  0.0530 -0.3951 -1.2604
18230TIP3   OH276104   3.602   3.602   3.574 -0.2576 -0.7862  0.3335
18230TIP3    H176105   3.654   3.610   3.494 -2.0840 -0.2758 -0.8246
18230TIP3    H276106   3.606   3.508   3.595 -2.1874 -1.4871 -2.0705
18231TIP3   OH276107   2.940   2.681   4.365  0.0536 -0.0095 -0.7821
18231TIP3    H176108   2.857   2.679   4.411  0.8203  0.4507  0.6594
18231TIP3    H276109   2.920   2.726   4.282 -1.0656  0.3681 -0.3215
18232TIP3   OH276110   5.035   0.099   2.026  0.2729 -0.1735 -1.2036
18232TIP3    H176111   5.043   0.154   2.104  1.3084  0.5386 -1.8036
18232TIP3    H276112   4.957   0.132   1.981  0.9500  0.8941 -1.6152
18233TIP3   OH276113   3.843   2.253   4.522  0.1719  0.4082 -0.0693
18233TIP3    H176114   3.823   2.346   4.508 -0.1683  0.6747  2.0160
18233TIP3    H276115   3.759   2.209   4.513  0.0952  0.4802  0.2793
18234TIP3   OH276116   1.222   5.965   4.744 -0.4093 -0.5806 -0.5040
18234TIP3    H176117   1.257   6.015   4.817 -2.1809  0.2350 -0.1849
18234TIP3    H276118   1.286   5.895   4.729  0.4288 -0.1906  1.1993
18235TIP3   OH276119   1.174   1.063   0.067  0.2908 -0.4583  1.1678
18235TIP3    H176120   1.242   1.054   0.000  0.2831 -0.0288  1.0984
18235TIP3    H276121   1.106   1.001   0.040  0.0535  0.0885  0.4715
18236TIP3   OH276122   4.836   1.425  13.738  0.0764 -0.2650 -0.1863
18236TIP3    H176123   4.869   1.475  13.664  0.2065 -1.1966 -0.7694
18236TIP3    H276124   4.754   1.468  13.763  0.0789  0.1003 -0.8096
18237TIP3   OH276125   6.466   1.952  15.380  0.2860  0.2733  0.3630
18237TIP3    H176126   6.399   2.011  15.416 -0.5619 -1.0773  1.0304
18237TIP3    H276127   6.483   1.889  15.450 -0.3267 -1.5200 -1.0507
18238TIP3   OH276128   3.883   3.322  11.459 -0.2695 -0.3383  0.2566
18238TIP3    H176129   3.810   3.267  11.487 -0.5544  0.3518  0.8740
18238TIP3    H276130   3.906   3.289  11.372 -0.8477 -1.0188  0.3595
18239TIP3   OH276131   4.184   0.052  16.468 -0.1749  0.8127  0.0293
18239TIP3    H176132   4.127   0.098  16.529  1.2088  1.7095  0.6517
18239TIP3    H276133   4.231   0.121  16.422  2.7999  0.0503  1.8071
18240TIP3   OH276134   3.677   5.574   1.195  0.2182  0.8731  0.0446
18240TIP3    H176135   3.595   5.571   1.244  0.4770 -0.7699  0.4167
18240TIP3    H276136   3.725   5.496   1.224  1.2118  0.9456 -1.3660
18241TIP3   OH276137   3.706   2.119   1.652  0.4995 -0.7115  0.3366
18241TIP3    H176138   3.657   2.037   1.653  1.9755 -1.5904  0.4305
18241TIP3    H276139   3.736   2.130   1.742  3.1999 -1.8187 -0.4071
18242TIP3   OH276140   4.439   3.097  11.377 -0.0102 -0.3484 -0.2607
18242TIP3    H176141   4.481   3.071  11.295 -0.1278 -0.6711 -0.2173
18242TIP3    H276142   4.497   3.164  11.413 -0.5741  0.6783 -1.2041
18243TIP3   OH276143   5.697   6.023   6.875 -0.1279 -0.2717  0.1359
18243TIP3    H176144   5.696   6.109   6.833 -0.1601 -0.5819 -0.5029
18243TIP3    H276145   5.762   5.973   6.827 -1.7081 -1.3207 -0.9577
18244TIP3   OH276146   4.291   4.491  13.320 -0.6707  0.2276  0.2670
18244TIP3    H176147   4.349   4.453  13.254 -2.1510  1.5264 -1.8653
18244TIP3    H276148   4.340   4.565  13.356  0.3754 -0.8418  1.0425
18245TIP3   OH276149   3.709   1.639   3.520  0.0477  0.1015 -0.6589
18245TIP3    H176150   3.627   1.657   3.473  0.2880 -0.2280 -1.2081
18245TIP3    H276151   3.777   1.666   3.459  0.3425  1.6057  0.3013
18246TIP3   OH276152   4.301   4.226  15.876 -0.0393 -0.2970 -0.3927
18246TIP3    H176153   4.369   4.161  15.859 -0.0202 -0.9252  1.8770
18246TIP3    H276154   4.221   4.187  15.842 -0.1862 -1.9304  1.7143
18247TIP3   OH276155   2.502   2.165  16.915 -0.5426  0.1864  0.1541
18247TIP3    H176156   2.573   2.130  16.969 -0.2530  0.1515 -0.2472
18247TIP3    H276157   2.427   2.109  16.936 -0.6079  0.5806  1.0012
18248TIP3   OH276158   0.527   3.906  15.309 -0.5431 -0.3308 -0.2994
18248TIP3    H176159   0.446   3.888  15.262  0.6626 -0.8278 -2.2256
18248TIP3    H276160   0.535   3.833  15.371 -0.4935 -1.4154 -1.5666
18249TIP3   OH276161   4.651   3.710   4.956 -0.6664  0.0850  0.0615
18249TIP3    H176162   4.689   3.648   5.019 -0.4957  0.2488  0.1208
18249TIP3    H276163   4.597   3.769   5.010 -0.8647 -0.0408 -0.0004
18250TIP3   OH276164   5.436   3.251   0.329  0.6000  0.1924  0.1835
18250TIP3    H176165   5.437   3.158   0.308  1.1509 -0.5933  3.4249
18250TIP3    H276166   5.492   3.259   0.407  1.5241  3.4146 -0.7344
18251TIP3   OH276167   5.473   5.746  16.343 -0.1887  0.3590  0.6844
18251TIP3    H176168   5.506   5.721  16.257 -2.1674  2.8959 -0.8678
18251TIP3    H276169   5.547   5.791  16.385  0.5027 -0.0951 -0.0280
18252TIP3   OH276170   3.906   3.620   5.082  0.4266 -0.2821  0.2233
18252TIP3    H176171   3.858   3.598   5.162 -1.2212 -0.1703 -0.7159
18252TIP3    H276172   3.934   3.535   5.048 -1.1475 -0.5603 -0.4528
18253TIP3   OH276173   3.287   2.004  14.397 -0.6332 -0.0229  0.5313
18253TIP3    H176174   3.283   1.941  14.325  0.3178  1.3595 -0.7350
18253TIP3    H276175   3.301   1.949  14.475  2.0354 -1.2632 -0.7704
18254TIP3   OH276176   3.704   4.831  10.487 -0.1715  0.1936 -0.2564
18254TIP3    H176177   3.779   4.885  10.510  0.6375 -1.4592  1.0573
18254TIP3    H276178   3.730   4.786  10.407  0.0589 -0.0394 -0.0498
18255TIP3   OH276179   4.554   1.787   6.323  0.1392 -0.2447  0.3567
18255TIP3    H176180   4.611   1.711   6.310 -0.4645 -0.6498  0.0856
18255TIP3    H276181   4.477   1.769   6.270  0.5319  1.1380 -0.7014
18256TIP3   OH276182   3.737   4.221   4.734 -0.8892 -0.7923 -0.5537
18256TIP3    H176183   3.708   4.192   4.820  0.4787  1.5571  0.7682
18256TIP3    H276184   3.677   4.292   4.710 -0.2067 -0.2664 -0.7331
18257TIP3   OH276185   5.523   0.791  14.295  0.2243 -0.0786  0.1951
18257TIP3    H176186   5.467   0.737  14.239  0.1424 -0.3938  0.5816
18257TIP3    H276187   5.463   0.845  14.345  0.2432 -0.7092  0.9102
18258TIP3   OH276188   4.278   2.769  12.956  0.2262 -0.0790 -0.1629
18258TIP3    H176189   4.225   2.705  12.909  0.1096  0.5433 -0.9063
18258TIP3    H276190   4.319   2.720  13.026  1.1724 -1.2511 -1.5077
18259TIP3   OH276191   1.300   2.030   0.236  0.6038 -0.1913  0.7895
18259TIP3    H176192   1.293   1.972   0.160 -0.1449 -0.0859  0.7784
18259TIP3    H276193   1.349   2.105   0.203 -1.6309  0.8811 -0.2154
18260TIP3   OH276194   2.689   3.655   4.376  0.3904 -0.1126 -0.0842
18260TIP3    H176195   2.695   3.744   4.411  0.0064  0.1667 -0.7295
18260TIP3    H276196   2.605   3.652   4.331  0.4362 -0.7783 -0.1319
18261TIP3   OH276197   5.698   2.118   3.226 -0.1437 -0.9189 -0.5300
18261TIP3    H176198   5.676   2.028   3.199 -0.3939 -0.2649 -2.5723
18261TIP3    H276199   5.694   2.169   3.145  2.4405  0.4835  0.1876
18262TIP3   OH276200   1.101   3.357  12.082 -0.0533  0.4046  0.6097
18262TIP3    H176201   1.015   3.315  12.080  0.2660 -0.3674  2.3526
18262TIP3    H276202   1.085   3.445  12.047 -1.6584  0.4359  1.3726
18263TIP3   OH276203   1.950   0.974  13.792 -0.4413  0.0446  0.6669
18263TIP3    H176204   1.963   1.005  13.882  0.1321  2.0237 -0.0783
18263TIP3    H276205   2.033   0.992  13.748 -0.4330 -1.6945 -0.0535
18264TIP3   OH276206   5.168   1.433  13.601 -0.5009  0.2681  0.0922
18264TIP3    H176207   5.249   1.439  13.549 -0.2980  0.4572  0.4227
18264TIP3    H276208   5.185   1.362  13.662 -0.2474  0.8622  0.7292
18265TIP3   OH276209   3.139   4.197  16.646 -0.6385  0.2321  0.1153
18265TIP3    H176210   3.225   4.154  16.642 -0.5720  0.4300 -0.6740
18265TIP3    H276211   3.118   4.200  16.739 -0.4167 -1.0729  0.2162
18266TIP3   OH276212   0.767   3.056  15.765  0.4120 -0.0051 -0.4448
18266TIP3    H176213   0.686   3.102  15.786 -0.2228  0.9025 -4.4415
18266TIP3    H276214   0.739   2.972  15.728  1.4422 -1.3408  1.7081
18267TIP3   OH276215   1.749   4.393   2.870  0.1157 -0.3407 -0.6879
18267TIP3    H176216   1.793   4.452   2.809  0.6286 -1.1493 -1.1177
18267TIP3    H276217   1.664   4.433   2.885  1.1819  1.5054  0.5345
18268TIP3   OH276218   5.504   1.930   1.749  0.3809  0.0598 -0.2680
18268TIP3    H176219   5.497   2.024   1.736  0.3766  0.2654  1.0857
18268TIP3    H276220   5.498   1.919   1.844  1.5394 -1.2003 -0.3256
18269TIP3   OH276221   6.702   2.713   3.231  0.0326  0.3486  0.2077
18269TIP3    H176222   6.755   2.719   3.311 -0.2621 -1.2779  0.5546
18269TIP3    H276223   6.633   2.651   3.254 -0.0191 -0.1776 -1.3356
18270TIP3   OH276224   0.419   4.880   3.680  0.1065  0.1288  0.0277
18270TIP3    H176225   0.394   4.802   3.731 -1.8541 -0.2517 -1.4649
18270TIP3    H276226   0.409   4.853   3.589  0.2704  1.8673 -0.5210
18271TIP3   OH276227   4.407   4.668  15.467  0.1344  0.1382 -0.1820
18271TIP3    H176228   4.502   4.670  15.484  0.0286 -1.7682  0.6846
18271TIP3    H276229   4.380   4.760  15.474  1.5300  0.4327  1.7572
18272TIP3   OH276230   3.049   0.946   1.221 -0.6802  0.2079  0.2608
18272TIP3    H176231   3.144   0.936   1.217 -0.5693  1.6991 -2.4079
18272TIP3    H276232   3.014   0.857   1.218  0.6485 -0.4716  3.6378
18273TIP3   OH276233   3.378   4.519  14.051  1.1218 -0.7830  0.1859
18273TIP3    H176234   3.462   4.563  14.065  1.4668 -1.8345  1.6709
18273TIP3    H276235   3.400   4.441  14.000  0.6979  0.1341 -1.4025
18274TIP3   OH276236   2.071   0.709   4.609  0.4819  0.2090 -0.3784
18274TIP3    H176237   2.152   0.675   4.570  0.6783 -0.0705  0.2750
18274TIP3    H276238   2.088   0.708   4.703 -0.0597  0.7251 -0.2775
18275TIP3   OH276239   6.417   6.705  16.013 -0.0102  0.3463  0.3596
18275TIP3    H176240   6.336   6.680  16.057 -0.2455 -0.1888 -0.3799
18275TIP3    H276241   6.389   6.759  15.939  0.2745 -0.3647 -0.2682
18276TIP3   OH276242   3.345   5.253  16.725  0.0283  0.0561  0.2190
18276TIP3    H176243   3.251   5.259  16.738 -0.1166  0.6032 -1.0032
18276TIP3    H276244   3.379   5.219  16.808 -1.2686 -0.4166  0.5633
18277TIP3   OH276245   2.481   6.541  14.884  0.5388 -0.2663  0.0247
18277TIP3    H176246   2.553   6.493  14.843  0.8164  0.3685 -0.2334
18277TIP3    H276247   2.402   6.512  14.837  0.3076 -2.6555  1.7665
18278TIP3   OH276248   0.668   1.109  15.386 -0.4547  0.4047  0.7068
18278TIP3    H176249   0.612   1.127  15.462 -0.8235  0.6988  0.3702
18278TIP3    H276250   0.737   1.176  15.391 -0.5573  0.5106  0.7050
18279TIP3   OH276251   0.905   0.193  11.264 -0.1176 -0.5325  0.9298
18279TIP3    H176252   0.923   0.241  11.183 -0.1907 -0.7579  0.7793
18279TIP3    H276253   0.961   0.115  11.258  0.4076 -0.1981  1.4219
18280TIP3   OH276254   3.581   3.453   4.228  0.2238 -0.6618 -0.3998
18280TIP3    H176255   3.675   3.458   4.210  0.0087  4.4651 -0.8295
18280TIP3    H276256   3.541   3.431   4.144  0.8393  0.5064 -1.0075
18281TIP3   OH276257   4.116   5.724   3.390  0.2475  0.5485 -0.1459
18281TIP3    H176258   4.041   5.707   3.333  0.2915  0.9838 -0.3302
18281TIP3    H276259   4.080   5.776   3.462  0.4839  1.2239 -0.5167
18282TIP3   OH276260   3.226   5.651   0.360  0.2017  0.7711 -0.6682
18282TIP3    H176261   3.143   5.697   0.371 -0.0078  0.1705  0.3769
18282TIP3    H276262   3.205   5.558   0.372  1.0900  0.6507  0.1268
18283TIP3   OH276263   5.943   0.062  14.193 -0.1880 -0.2347  0.4644
18283TIP3    H176264   6.017   0.084  14.249  0.7567 -1.9630 -0.0697
18283TIP3    H276265   5.946  -0.033  14.186 -1.5847 -0.2001 -0.7709
18284TIP3   OH276266   4.201   5.939   0.484  0.1318 -0.4832 -0.6277
18284TIP3    H176267   4.238   6.027   0.496 -0.6687 -0.3212  0.7815
18284TIP3    H276268   4.162   5.941   0.396  0.1707  0.5604 -0.6258
18285TIP3   OH276269   3.818   2.640   2.410  0.3397  0.4503 -0.5148
18285TIP3    H176270   3.754   2.711   2.407  1.0196  1.0274 -2.0494
18285TIP3    H276271   3.853   2.636   2.321  1.0912 -1.0933 -0.1606
18286TIP3   OH276272   0.271   2.658   3.778 -0.4617 -0.1695  0.1415
18286TIP3    H176273   0.198   2.622   3.828  0.7281 -1.3490  1.0707
18286TIP3    H276274   0.339   2.591   3.784  0.0927  0.1299 -2.1847
18287TIP3   OH276275   0.475   3.450  13.588  0.4689  0.4428  0.3832
18287TIP3    H176276   0.445   3.518  13.527  0.7714  0.1971 -0.0423
18287TIP3    H276277   0.479   3.494  13.673 -0.8861  0.5469  0.4151
18288TIP3   OH276278   1.676   6.124   5.504 -0.9570 -0.0607  0.1056
18288TIP3    H176279   1.748   6.156   5.559 -0.1780  0.0407 -0.9495
18288TIP3    H276280   1.657   6.037   5.538  0.1276 -0.3613 -0.0259
18289TIP3   OH276281   4.160   3.610  14.459 -0.3253 -0.2013  0.0339
18289TIP3    H176282   4.229   3.597  14.524 -0.6041  0.5984  0.4867
18289TIP3    H276283   4.107   3.530  14.465  0.0481 -0.4332  0.2899
18290TIP3   OH276284   5.683   5.218   5.542 -0.1086  0.2169  1.2257
18290TIP3    H176285   5.734   5.210   5.623 -0.1528 -0.4446  1.1924
18290TIP3    H276286   5.731   5.282   5.490 -0.0906  0.6602  1.7840
18291TIP3   OH276287   1.865   6.177   3.023  0.2456 -0.1604  0.2519
18291TIP3    H176288   1.960   6.178   3.009  0.4671 -1.4298  1.5424
18291TIP3    H276289   1.847   6.260   3.066  0.7966  0.0080  0.1683
18292TIP3   OH276290   6.327   1.581  11.617 -0.3288 -0.2533 -0.0202
18292TIP3    H176291   6.337   1.614  11.528 -4.4262 -1.3099 -0.9618
18292TIP3    H276292   6.292   1.656  11.666 -0.1326 -0.3159  0.2170
18293TIP3   OH276293   4.148   4.481   5.535 -0.0641 -0.9448 -0.2167
18293TIP3    H176294   4.088   4.435   5.593 -0.0123  0.7587  1.2612
18293TIP3    H276295   4.161   4.566   5.577  0.3668  0.1656 -2.4990
18294TIP3   OH276296   5.470   4.200   4.449 -0.1394  0.1212 -0.1628
18294TIP3    H176297   5.494   4.117   4.407  2.0188 -0.4117  1.9930
18294TIP3    H276298   5.447   4.258   4.377  1.6549 -1.3286 -1.9539
18295TIP3   OH276299   1.202   1.286  11.269  0.7220 -0.4345 -0.1253
18295TIP3    H176300   1.112   1.315  11.256  0.3438 -1.2358  0.6172
18295TIP3    H276301   1.226   1.245  11.186 -0.4602 -2.3977  0.4637
18296TIP3   OH276302   1.603   1.138  12.130 -0.5027  0.6674 -0.2532
18296TIP3    H176303   1.670   1.150  12.064  0.7940 -1.7725  0.5555
18296TIP3    H276304   1.522   1.168  12.088  0.1623 -1.4494 -3.2141
18297TIP3   OH276305   2.795   0.091  15.613 -0.1088 -0.2641 -0.1504
18297TIP3    H176306   2.753   0.005  15.615  1.6059 -1.1153  0.8724
18297TIP3    H276307   2.796   0.120  15.704  0.0656  0.4522 -0.3794
18298TIP3   OH276308   3.236   3.221   4.200  0.1786  0.6022 -0.0935
18298TIP3    H176309   3.189   3.269   4.131 -1.2279 -0.3327  0.2007
18298TIP3    H276310   3.220   3.272   4.280 -0.2482  0.3558 -0.0178
18299TIP3   OH276311   3.024   6.722  15.580 -0.1340  0.6486 -0.0289
18299TIP3    H176312   2.992   6.639  15.615 -1.8696 -0.1015 -3.1528
18299TIP3    H276313   2.950   6.783  15.590  1.1316  1.8699  2.2627
18300TIP3   OH276314   3.064   5.704   3.479 -0.1354  0.0691 -0.7659
18300TIP3    H176315   3.142   5.663   3.516 -1.6548 -1.8609  0.3519
18300TIP3    H276316   3.042   5.774   3.541 -0.2196 -0.4127 -0.2529
18301TIP3   OH276317   1.744   6.035   0.535  0.4016  0.0248  0.0660
18301TIP3    H176318   1.726   5.971   0.603  1.2671  0.1198  0.3976
18301TIP3    H276319   1.672   6.097   0.540  1.0377  0.6592  1.6693
18302TIP3   OH276320   4.845   4.475   1.238 -0.7861  0.2373 -0.1663
18302TIP3    H176321   4.851   4.382   1.216 -2.0504  0.1288 -0.0943
18302TIP3    H276322   4.752   4.496   1.229 -0.6034  1.3456  0.4330
18303TIP3   OH276323   3.606   5.179  12.065 -0.1563  0.1336 -0.1838
18303TIP3    H176324   3.543   5.121  12.108  0.0019  0.2111  0.1590
18303TIP3    H276325   3.688   5.128  12.064 -0.4504 -0.3351 -1.4700
18304TIP3   OH276326   4.726   5.656  16.714  0.2650 -0.1549 -0.2117
18304TIP3    H176327   4.728   5.652  16.618  0.9286 -1.0650 -0.1589
18304TIP3    H276328   4.813   5.688  16.738  0.6931 -1.5896  0.1656
18305TIP3   OH276329   3.899   2.166   5.508  0.5354  0.6798 -0.0411
18305TIP3    H176330   3.847   2.200   5.581  0.0545  0.6269 -0.3556
18305TIP3    H276331   3.918   2.244   5.455  1.0944  0.7562  0.2687
18306TIP3   OH276332   2.315   1.116   0.285 -0.1500  0.1254  0.5015
18306TIP3    H176333   2.241   1.056   0.271 -0.0123 -0.0498  0.5306
18306TIP3    H276334   2.367   1.074   0.353  0.2613 -0.0112  0.1050
18307TIP3   OH276335   5.423   5.722   0.899  0.5980  0.0311  0.1444
18307TIP3    H176336   5.362   5.696   0.968  0.5009  0.9434  0.4160
18307TIP3    H276337   5.507   5.731   0.944  0.3571  1.4754  0.3276
18308TIP3   OH276338   4.854   5.580   0.735  0.4297 -0.1912 -0.0083
18308TIP3    H176339   4.922   5.599   0.670  1.1692  1.3622  1.1790
18308TIP3    H276340   4.894   5.515   0.793  1.4152  1.6458  1.4291
18309TIP3   OH276341   1.717   2.934   3.145  0.4879 -0.9402  0.1103
18309TIP3    H176342   1.746   2.848   3.176 -0.7585 -0.4525  2.7491
18309TIP3    H276343   1.798   2.986   3.141  0.7987 -1.2616  1.8086
18310TIP3   OH276344   5.030   3.099   1.000 -0.3478 -0.2373 -0.0004
18310TIP3    H176345   5.034   3.056   0.915  0.6562 -2.4254  1.1313
18310TIP3    H276346   4.978   3.040   1.054 -0.7420  1.0051  1.0056
18311TIP3   OH276347   0.503   3.514  12.022 -0.1923 -0.1934 -0.3438
18311TIP3    H176348   0.465   3.493  12.107  0.8459  0.5811  0.3241
18311TIP3    H276349   0.588   3.553  12.043 -0.4416  1.1099 -1.6884
18312TIP3   OH276350   2.366   3.526  12.760  0.6832  0.6050  0.0543
18312TIP3    H176351   2.313   3.446  12.758  1.1075  0.3401 -2.0267
18312TIP3    H276352   2.364   3.554  12.851  0.3730 -1.6802  0.7855
18313TIP3   OH276353   4.263   5.819   6.597  0.0803  0.0246 -0.0761
18313TIP3    H176354   4.268   5.908   6.634  2.5944 -0.3390  0.5483
18313TIP3    H276355   4.285   5.831   6.504  1.1221 -0.0285  0.1596
18314TIP3   OH276356   1.908   4.378   6.897  0.1098  0.0157 -0.2570
18314TIP3    H176357   1.891   4.393   6.804  1.3675  1.7142 -0.2227
18314TIP3    H276358   1.827   4.338   6.930 -0.1811 -1.0371 -2.1662
18315TIP3   OH276359   4.728   6.480  17.133  0.3817  0.1062 -0.3864
18315TIP3    H176360   4.663   6.489  17.063 -1.2248  3.7491  1.4990
18315TIP3    H276361   4.703   6.400  17.178 -2.0334  0.7750 -0.4869
18316TIP3   OH276362   4.885   3.250   0.731  0.5064  0.1253 -0.4593
18316TIP3    H176363   4.864   3.160   0.709 -0.0868  0.2888 -0.5837
18316TIP3    H276364   4.970   3.266   0.690  0.6881 -0.4185 -0.3062
18317TIP3   OH276365   4.633   1.932  12.391 -0.3551 -0.5090  0.6978
18317TIP3    H176366   4.702   1.890  12.442 -0.6423  0.0225  1.5418
18317TIP3    H276367   4.552   1.896  12.426 -0.5459 -0.2803  0.4944
18318TIP3   OH276368   2.272   5.540   6.405 -0.2319 -0.4448 -0.0360
18318TIP3    H176369   2.245   5.460   6.360 -1.3780  0.5540 -1.1730
18318TIP3    H276370   2.355   5.517   6.447  0.2277 -1.7834 -1.6120
18319TIP3   OH276371   2.635   4.175   0.331 -0.2403 -0.1564 -0.2661
18319TIP3    H176372   2.623   4.266   0.303 -1.4979 -0.5228 -0.9649
18319TIP3    H276373   2.546   4.142   0.344  0.1762 -1.4988 -0.7220
18320TIP3   OH276374   4.274   4.895   0.144 -0.6157 -0.5952 -0.5919
18320TIP3    H176375   4.349   4.953   0.134 -0.6326 -0.4250  0.2484
18320TIP3    H276376   4.198   4.951   0.128 -0.5867 -0.6423 -0.8943
18321TIP3   OH276377   1.712   5.094  11.264 -0.6309  0.4510  0.1425
18321TIP3    H176378   1.706   5.154  11.189  0.2288  0.0773 -0.2314
18321TIP3    H276379   1.788   5.039  11.245 -1.2535 -0.5893  0.6131
18322TIP3   OH276380   6.543   3.941   0.791 -0.0515 -0.1605 -0.3213
18322TIP3    H176381   6.513   3.983   0.710 -0.4041 -2.7410 -1.5739
18322TIP3    H276382   6.530   3.848   0.776 -1.2401 -0.6333  3.1925
18323TIP3   OH276383   0.667   3.543  11.197  0.1541  0.1827  0.1509
18323TIP3    H176384   0.584   3.576  11.232  0.8433  2.2481 -0.0409
18323TIP3    H276385   0.642   3.476  11.134 -1.3955  1.0390 -0.1796
18324TIP3   OH276386   2.447   1.173  15.059 -0.2946  0.0084  0.6615
18324TIP3    H176387   2.530   1.201  15.021 -0.2324  0.6847  1.2729
18324TIP3    H276388   2.462   1.176  15.154 -0.7291 -0.7595  0.7584
18325TIP3   OH276389   0.072   6.272   2.389 -0.6125 -0.2274 -0.7795
18325TIP3    H176390   0.130   6.301   2.319 -0.2059 -0.1715 -0.4189
18325TIP3    H276391   0.130   6.244   2.459 -0.9802 -1.8035 -1.0641
18326TIP3   OH276392   2.767   1.443   3.393 -0.1462 -0.0176  0.1035
18326TIP3    H176393   2.848   1.464   3.347 -0.9667  1.1816 -0.8087
18326TIP3    H276394   2.745   1.522   3.442 -0.4034 -0.5777  0.9097
18327TIP3   OH276395   6.708   0.569  14.295 -0.4872 -0.3834 -0.2603
18327TIP3    H176396   6.698   0.660  14.269  1.5619 -0.8636 -2.9377
18327TIP3    H276397   6.780   0.570  14.359  1.3031 -0.3700 -2.2035
18328TIP3   OH276398   6.282   3.007   5.598  0.2572  0.1153 -0.3438
18328TIP3    H176399   6.351   2.941   5.604 -0.5907 -0.6062  2.0685
18328TIP3    H276400   6.313   3.079   5.653 -0.5870  0.0717  0.2023
18329TIP3   OH276401   4.584   2.868  15.934  0.1609  0.0862 -0.6249
18329TIP3    H176402   4.668   2.913  15.937  1.4601 -2.2111 -1.5480
18329TIP3    H276403   4.578   2.823  16.019 -0.7021  1.1659 -0.0897
18330TIP3   OH276404   1.389   1.214   5.573  0.1911  0.2170 -0.4142
18330TIP3    H176405   1.468   1.268   5.565  0.4490  0.1126  1.2501
18330TIP3    H276406   1.341   1.252   5.646 -1.0804 -0.0086 -1.1243
18331TIP3   OH276407   4.641   3.889  11.950 -0.1533  0.6026  0.2322
18331TIP3    H176408   4.563   3.942  11.932  0.4824  0.8938 -1.8076
18331TIP3    H276409   4.622   3.805  11.909  0.0500  0.2260  0.9123
18332TIP3   OH276410   5.179   0.376  14.587 -0.5825 -0.3809  0.1698
18332TIP3    H176411   5.231   0.438  14.535  0.1374  0.1677  1.5179
18332TIP3    H276412   5.232   0.360  14.665 -1.2826 -1.8399  0.3642
18333TIP3   OH276413   1.541   0.047  11.186  0.0585  0.2987  0.3394
18333TIP3    H176414   1.620   0.009  11.146 -0.5865  0.4553 -1.1470
18333TIP3    H276415   1.526  -0.005  11.264  0.5435 -0.9981 -0.4049
18334TIP3   OH276416   1.667   1.184   1.483  0.3326  0.1974 -0.1980
18334TIP3    H176417   1.645   1.272   1.451  1.0459  0.1870 -0.7333
18334TIP3    H276418   1.758   1.191   1.512  0.0387 -0.0792  0.8284
18335TIP3   OH276419   0.932   5.773  16.246 -0.1012 -0.0656  0.6119
18335TIP3    H176420   0.890   5.732  16.171 -1.0375  0.2813  0.9430
18335TIP3    H276421   0.902   5.864  16.244  2.2866  0.7469 -0.3733
18336TIP3   OH276422   4.738   4.495   4.612 -0.2344  0.6736 -0.3034
18336TIP3    H176423   4.748   4.405   4.582 -0.7544  0.1864  0.9495
18336TIP3    H276424   4.650   4.520   4.583 -0.0293  0.8379 -0.7909
18337TIP3   OH276425   2.645   2.519   2.148 -0.4799  0.2101  0.2094
18337TIP3    H176426   2.712   2.564   2.200 -0.5895  0.8225 -0.1760
18337TIP3    H276427   2.619   2.583   2.082 -0.1024 -0.6821 -0.8182
18338TIP3   OH276428   6.291   6.125   1.343 -0.9462 -0.0708 -0.2587
18338TIP3    H176429   6.347   6.201   1.326  0.1130 -0.9719 -0.8578
18338TIP3    H276430   6.236   6.151   1.416 -0.6400  1.3037 -0.5126
18339TIP3   OH276431   4.679   4.938   5.423 -0.3258 -0.0495  0.2362
18339TIP3    H176432   4.702   4.931   5.515 -1.6435 -2.4538  0.4310
18339TIP3    H276433   4.633   5.021   5.415  3.7825  2.4036  0.8089
18340TIP3   OH276434   0.150   0.154   4.860 -0.7700 -0.3159 -0.5616
18340TIP3    H176435   0.176   0.218   4.795 -2.5564  1.2318  0.1977
18340TIP3    H276436   0.194   0.073   4.834  0.7019  0.9654 -2.0998
18341TIP3   OH276437   1.753   2.143   0.327  1.1290  0.7055  0.2336
18341TIP3    H176438   1.759   2.143   0.232 -1.9121  2.1072 -0.0151
18341TIP3    H276439   1.837   2.178   0.357  2.1663  0.0887 -1.8893
18342TIP3   OH276440   6.657   3.484  12.101 -0.0233 -0.2908 -0.3515
18342TIP3    H176441   6.712   3.556  12.072  0.1246  1.2875  3.5949
18342TIP3    H276442   6.580   3.526  12.140 -0.6472 -2.3042  0.6543
18343TIP3   OH276443   4.445   6.280  16.174  0.0665  0.0168 -0.0797
18343TIP3    H176444   4.519   6.313  16.225 -0.3183  0.3251  0.2873
18343TIP3    H276445   4.464   6.307  16.084  0.8820 -0.7723 -0.1474
18344TIP3   OH276446   4.992   3.101   0.435 -0.8956  0.5537 -0.0622
18344TIP3    H176447   4.934   3.072   0.506  1.0685 -2.6183  0.3550
18344TIP3    H276448   5.063   3.147   0.479 -1.3040  1.4016 -0.2779
18345TIP3   OH276449   5.633   5.766  14.307 -0.1096  0.5311 -0.4906
18345TIP3    H176450   5.567   5.712  14.263  1.5128 -0.2094 -2.0673
18345TIP3    H276451   5.699   5.703  14.338  0.3300  1.3440  0.2578
18346TIP3   OH276452   4.519   3.622  15.350  0.1283  0.9100 -0.6327
18346TIP3    H176453   4.594   3.651  15.403  0.2584 -0.4034 -0.0640
18346TIP3    H276454   4.458   3.695  15.353  0.1268  0.8768  1.3681
18347TIP3   OH276455   0.573   6.005  11.491  0.0355  0.0524 -0.0852
18347TIP3    H176456   0.550   6.083  11.440 -0.0489  1.1045  1.5287
18347TIP3    H276457   0.661   5.983  11.462  0.7888  1.8513  0.7633
18348TIP3   OH276458   3.977   4.067   5.491 -0.5100 -0.0971 -0.5975
18348TIP3    H176459   3.919   4.016   5.548  1.1908 -1.3239  0.0962
18348TIP3    H276460   4.028   4.000   5.443  0.3962  0.9404 -1.1066
18349TIP3   OH276461   1.800   2.083   6.208 -0.1337 -0.4541  0.0586
18349TIP3    H176462   1.787   2.100   6.115  0.4937  0.1137  0.0642
18349TIP3    H276463   1.782   1.990   6.219 -3.9102  0.2200  0.0726
18350TIP3   OH276464   3.340   0.046   0.845  0.3328  0.4046 -0.2642
18350TIP3    H176465   3.420   0.007   0.810 -1.3668 -2.2351 -1.3642
18350TIP3    H276466   3.365   0.078   0.932  2.1102 -2.1285  0.2117
18351TIP3   OH276467   4.179   4.352   1.935 -0.2019  0.3173  0.6965
18351TIP3    H176468   4.169   4.257   1.936 -0.0510  0.2710 -0.4984
18351TIP3    H276469   4.111   4.384   1.993 -0.6674 -0.4965  0.6078
18352TIP3   OH276470   5.718   6.613   1.152  0.5371 -0.0661  0.3066
18352TIP3    H176471   5.737   6.595   1.244 -1.2125  1.1272  0.9119
18352TIP3    H276472   5.674   6.534   1.121 -0.2635  0.1352  0.9155
18353TIP3   OH276473   3.070   0.100   2.018  0.1786  0.4608 -0.1796
18353TIP3    H176474   3.065   0.173   1.957 -0.1939  1.2579  0.8009
18353TIP3    H276475   3.048   0.023   1.965 -0.7787  1.2308 -0.9014
18354TIP3   OH276476   5.601   6.029  15.909  0.6100 -0.3406 -0.5039
18354TIP3    H176477   5.642   5.969  15.971 -0.8828 -1.2324 -0.3587
18354TIP3    H276478   5.561   6.097  15.965  1.2028  0.0913 -0.6027
18355TIP3   OH276479   5.367   3.530  12.303 -0.3453  0.1609  0.6051
18355TIP3    H176480   5.442   3.510  12.358 -1.3202 -1.0577  1.5301
18355TIP3    H276481   5.348   3.448  12.258 -0.9394  0.5389  0.1591
18356TIP3   OH276482   4.173   6.096   2.025  0.2751  0.1203 -0.4409
18356TIP3    H176483   4.198   6.143   1.945  0.7773 -0.6914 -0.7629
18356TIP3    H276484   4.249   6.043   2.046 -0.1751 -0.3069  0.1122
18357TIP3   OH276485   2.733   6.010  14.119 -0.3773  0.0392 -0.0867
18357TIP3    H176486   2.755   6.073  14.187 -0.3663  0.1112 -0.1579
18357TIP3    H276487   2.724   5.926  14.165  1.6563 -0.3174 -0.2763
18358TIP3   OH276488   1.326   0.802   5.481  0.1121 -0.1225 -0.1747
18358TIP3    H176489   1.276   0.761   5.551 -0.6238  1.9807  0.5908
18358TIP3    H276490   1.394   0.852   5.526  0.8455 -0.3118 -1.0569
18359TIP3   OH276491   2.320   5.041  14.543  0.3949  0.6991  0.3966
18359TIP3    H176492   2.385   5.105  14.512 -0.4759  1.8754  0.9723
18359TIP3    H276493   2.351   4.957  14.509  0.5774  1.6803 -1.9291
18360TIP3   OH276494   4.180   4.017  15.690 -0.2252 -0.3820 -0.1524
18360TIP3    H176495   4.255   4.011  15.749  0.7085  1.1815 -1.1612
18360TIP3    H276496   4.218   4.020  15.602 -1.4045  1.3141 -0.6377
18361TIP3   OH276497   2.631   5.807   4.583 -0.4602 -0.7685  0.5931
18361TIP3    H176498   2.568   5.799   4.654  0.0020 -0.6451  1.0187
18361TIP3    H276499   2.596   5.877   4.528  0.7811  1.3283  2.3879
18362TIP3   OH276500   2.008   2.210  16.776  0.5942  0.8856  0.2397
18362TIP3    H176501   2.070   2.255  16.833  2.7141 -0.1178 -1.2238
18362TIP3    H276502   2.018   2.251  16.691 -1.0455  0.9512  0.0483
18363TIP3   OH276503   6.006   0.406  14.842 -0.0888  0.0101  0.1992
18363TIP3    H176504   6.005   0.479  14.903 -1.0788  0.8380 -0.7996
18363TIP3    H276505   5.923   0.360  14.857  0.5819 -1.0158  0.9173
18364TIP3   OH276506   0.709   5.526   4.038  0.4856 -0.1221  0.5300
18364TIP3    H176507   0.799   5.528   4.070  0.2131 -1.3301  1.3520
18364TIP3    H276508   0.708   5.454   3.975 -0.4784 -1.6105  2.2246
18365TIP3   OH276509   1.163   1.324  13.248  0.6443 -0.0840  0.3780
18365TIP3    H176510   1.234   1.329  13.312  2.3145 -0.6360 -1.3758
18365TIP3    H276511   1.179   1.242  13.201 -0.0954  0.6859 -1.2560
18366TIP3   OH276512   4.991   4.335  13.638  0.3052 -0.3240  0.5478
18366TIP3    H176513   4.979   4.402  13.570  0.1054 -0.5550  0.3545
18366TIP3    H276514   4.931   4.359  13.707 -0.3854 -0.7870  0.1124
18367TIP3   OH276515   0.073   6.519   2.582  0.4806  0.1477 -0.1251
18367TIP3    H176516   0.045   6.452   2.519  0.5564  0.2054 -0.2207
18367TIP3    H276517   0.105   6.469   2.657  2.7209  0.0346 -1.1146
18368TIP3   OH276518   3.165   6.639   5.375 -0.0548  0.0153  0.3396
18368TIP3    H176519   3.232   6.704   5.398 -0.1434  0.4904 -0.7201
18368TIP3    H276520   3.206   6.555   5.394  0.6848  0.3249  0.1409
18369TIP3   OH276521   6.636   2.703   1.127 -0.0970 -0.0073  0.4044
18369TIP3    H176522   6.692   2.773   1.093 -1.0308  0.3461 -0.4260
18369TIP3    H276523   6.680   2.673   1.206 -0.2905  2.3388  1.4365
18370TIP3   OH276524   5.577   2.628  15.126 -0.0291 -0.3953 -0.6387
18370TIP3    H176525   5.651   2.674  15.084  0.5488 -1.5213 -0.8692
18370TIP3    H276526   5.512   2.619  15.057 -0.0590 -0.1084 -0.6485
18371TIP3   OH276527   2.176   1.069   6.183  0.5883  0.0221 -0.4689
18371TIP3    H176528   2.098   1.083   6.128 -0.0441 -1.3149  0.0469
18371TIP3    H276529   2.146   1.086   6.272  1.1270  0.3719 -0.3545
18372TIP3   OH276530   6.064   2.939  15.348 -0.1312 -0.3971  0.1627
18372TIP3    H176531   6.041   2.984  15.429  0.3865  1.3181 -0.6248
18372TIP3    H276532   5.990   2.880  15.332 -1.7101  1.4658  0.2807
18373TIP3   OH276533   0.259   4.553   2.067  0.4010 -0.1043  0.0542
18373TIP3    H176534   0.280   4.589   2.154  0.2266 -1.0167  0.4773
18373TIP3    H276535   0.178   4.597   2.042  0.9423  0.8532 -0.0575
18374TIP3   OH276536   5.059   3.759  11.892 -0.4500 -0.8647  0.1815
18374TIP3    H176537   5.003   3.792  11.962  0.2404  0.8822 -0.0605
18374TIP3    H276538   5.092   3.675  11.925  0.7263  0.4209  2.4524
18375TIP3   OH276539   3.110   5.982   2.790 -0.1482  0.0305 -0.1826
18375TIP3    H176540   3.083   6.074   2.798 -0.2398 -0.0271  0.1594
18375TIP3    H276541   3.054   5.947   2.720 -0.9645 -0.0881  0.5232
18376TIP3   OH276542   0.555   1.414  15.538 -0.0998 -0.7124  0.1753
18376TIP3    H176543   0.518   1.432  15.624 -0.2231  0.9107 -0.1953
18376TIP3    H276544   0.499   1.462  15.477  1.2275 -0.0831 -0.5875
18377TIP3   OH276545   3.019   3.600  14.731  0.4629 -0.0363  0.0441
18377TIP3    H176546   3.040   3.576  14.821  1.1747  0.7901  0.1109
18377TIP3    H276547   2.946   3.662  14.739  0.6082  0.1330  0.0632
18378TIP3   OH276548   6.442   0.463   1.155 -0.1376  0.1846  0.4811
18378TIP3    H176549   6.352   0.432   1.158  0.3147 -1.2752 -0.3845
18378TIP3    H276550   6.466   0.475   1.247 -0.9962 -0.0489  0.7446
18379TIP3   OH276551   4.369   2.498  12.734 -0.3042 -0.2143 -0.2198
18379TIP3    H176552   4.337   2.431  12.793  1.7037 -0.3100  0.7924
18379TIP3    H276553   4.291   2.550  12.712 -1.6210 -2.0601  0.0139
18380TIP3   OH276554   2.005   3.947  14.160 -0.2396  0.1376  0.2974
18380TIP3    H176555   1.942   3.880  14.134 -0.0897  0.8804 -2.1564
18380TIP3    H276556   1.973   4.027  14.119  0.9198  1.0584  1.1460
18381TIP3   OH276557   4.799   2.400   2.893 -0.0417 -0.3139 -0.2048
18381TIP3    H176558   4.738   2.331   2.921  1.2914 -2.9350 -3.4872
18381TIP3    H276559   4.756   2.441   2.818  0.5017  0.4907 -0.0807
18382TIP3   OH276560   0.712   0.861   5.177 -0.5207 -0.2073  0.0665
18382TIP3    H176561   0.780   0.853   5.245 -1.5843  0.6305  1.2485
18382TIP3    H276562   0.707   0.954   5.158 -0.8360 -0.3455 -0.5546
18383TIP3   OH276563   5.129   4.599  11.302 -0.2397 -0.1337  0.3513
18383TIP3    H176564   5.209   4.548  11.293  0.0782  0.2287  1.0656
18383TIP3    H276565   5.134   4.665  11.233  0.5826  0.5412  1.0380
18384TIP3   OH276566   2.399   5.446  15.539 -0.6118 -0.1901  0.6902
18384TIP3    H176567   2.451   5.524  15.560 -1.2213  0.2595  0.5647
18384TIP3    H276568   2.324   5.481  15.490 -1.4069 -0.7492  1.4988
18385TIP3   OH276569   1.206   3.388   1.071  0.1839 -0.5496  0.5721
18385TIP3    H176570   1.170   3.399   0.982 -0.6907 -1.4895  0.7916
18385TIP3    H276571   1.279   3.449   1.075  0.5781 -0.8715 -0.9947
18386TIP3   OH276572   1.123   5.543   0.037  0.1172 -0.1533 -0.0810
18386TIP3    H176573   1.167   5.608  -0.018  1.5269 -1.9281 -1.1578
18386TIP3    H276574   1.044   5.519  -0.013 -1.1295  1.6999  0.9723
18387TIP3   OH276575   6.308   0.926   2.792  0.0898  0.2046 -0.1350
18387TIP3    H176576   6.377   0.880   2.744 -0.8150 -0.7746 -0.5215
18387TIP3    H276577   6.237   0.862   2.799  0.6821 -0.1413  3.6913
18388TIP3   OH276578   4.236   6.075  14.128 -0.0131  0.1378 -0.0919
18388TIP3    H176579   4.306   6.059  14.191 -0.3713 -0.1000  0.2514
18388TIP3    H276580   4.156   6.075  14.180 -0.4109 -1.0536 -0.6733
18389TIP3   OH276581   1.763   6.317   1.068  0.4060 -0.2707  0.1615
18389TIP3    H176582   1.716   6.233   1.062 -1.0741  0.6261 -1.1186
18389TIP3    H276583   1.705   6.372   1.121  0.4001  0.5888 -0.7401
18390TIP3   OH276584   6.454   6.710  12.189 -0.3514 -0.6693 -0.6001
18390TIP3    H176585   6.509   6.663  12.251 -1.1273  0.3725  0.9283
18390TIP3    H276586   6.454   6.800  12.221 -1.5036 -0.2985 -1.6045
18391TIP3   OH276587   0.024   5.810  14.704  0.7691  0.4508 -0.4214
18391TIP3    H176588  -0.063   5.798  14.666 -0.1009 -2.1356  2.1474
18391TIP3    H276589   0.034   5.904  14.714 -1.5570  0.7960 -1.1717
18392TIP3   OH276590   6.729   0.761  14.010 -0.2442 -0.2647  0.1126
18392TIP3    H176591   6.748   0.815  13.934  1.5554  1.4950  1.7871
18392TIP3    H276592   6.814   0.735  14.044 -1.0406 -1.6571  1.1232
18393TIP3   OH276593   2.441   6.102   0.731  0.0075  0.2554  0.5300
18393TIP3    H176594   2.360   6.105   0.680 -0.1570 -1.1883  0.6760
18393TIP3    H276595   2.483   6.186   0.715 -0.4862  0.1710 -1.2703
18394TIP3   OH276596   6.361   6.175   4.882 -0.6190 -0.2745 -0.2730
18394TIP3    H176597   6.303   6.248   4.860  1.2935  1.4148  0.1865
18394TIP3    H276598   6.386   6.191   4.973  2.1101  0.1119 -1.0570
18395TIP3   OH276599   2.631   3.882  13.621 -0.3770  0.4203 -0.8268
18395TIP3    H176600   2.585   3.960  13.590 -0.6784  0.2294 -0.8712
18395TIP3    H276601   2.571   3.810  13.599 -1.1405  0.3893  1.2503
18396TIP3   OH276602   0.797   4.344  12.372 -0.1331  0.2804 -0.2605
18396TIP3    H176603   0.741   4.360  12.448 -0.6755 -1.5743 -0.2332
18396TIP3    H276604   0.883   4.325  12.409  0.4218  2.5459 -0.2773
18397TIP3   OH276605   3.367   4.923   4.438  0.5235  0.1541 -0.1807
18397TIP3    H176606   3.368   4.963   4.351  1.4490  2.1261  0.7028
18397TIP3    H276607   3.354   4.829   4.421 -0.7904  0.6838 -2.3438
18398TIP3   OH276608   3.321   1.030   5.896  0.2373  0.7718  0.2841
18398TIP3    H176609   3.240   1.035   5.946  1.1455  1.1706  1.7505
18398TIP3    H276610   3.328   0.938   5.870 -1.0244  0.8768 -0.4469
18399TIP3   OH276611   1.819   1.164  11.956 -0.2700 -0.2117 -0.4828
18399TIP3    H176612   1.847   1.079  11.989  3.2569  0.6810 -1.0248
18399TIP3    H276613   1.818   1.153  11.861 -0.5150  0.1488 -0.5199
18400TIP3   OH276614   1.374   0.430   5.933 -0.0501  0.1169  0.2077
18400TIP3    H176615   1.304   0.473   5.982  0.7313 -0.4020  1.7959
18400TIP3    H276616   1.412   0.367   5.994  0.5740 -0.9607 -1.2414
18401TIP3   OH276617   0.627   6.166  15.936  0.0154 -0.6760  0.0988
18401TIP3    H176618   0.593   6.081  15.908 -1.1533 -0.1461 -0.0797
18401TIP3    H276619   0.552   6.212  15.974  0.3912  0.6779 -0.7424
18402TIP3   OH276620   2.736   5.929   3.110  0.2219 -0.4614 -0.1133
18402TIP3    H176621   2.674   5.974   3.052  0.3417 -1.5889 -1.1568
18402TIP3    H276622   2.782   5.868   3.052  1.6217 -0.3395  0.8367
18403TIP3   OH276623   2.828   4.963  15.348  0.7643 -0.1891 -0.1008
18403TIP3    H176624   2.882   4.885  15.362  2.1538  0.8270  0.2690
18403TIP3    H276625   2.873   5.011  15.278  0.4821  0.8053  0.3996
18404TIP3   OH276626   0.200   1.389  13.536 -0.6115  0.6047 -0.5268
18404TIP3    H176627   0.255   1.449  13.586 -0.4101  0.8464 -1.0343
18404TIP3    H276628   0.258   1.356  13.468 -1.0663  0.7751 -0.9957
18405TIP3   OH276629   0.852   4.831   4.709  0.2367  0.4613 -0.2884
18405TIP3    H176630   0.847   4.925   4.726 -1.1542  0.4390 -0.5707
18405TIP3    H276631   0.838   4.822   4.615  1.3712  0.0421 -0.4268
18406TIP3   OH276632   2.384   5.921   5.879  0.2682 -0.2121  0.4381
18406TIP3    H176633   2.393   5.841   5.930  0.1791 -0.3394  0.2516
18406TIP3    H276634   2.473   5.958   5.876  0.4171 -0.6001  0.0327
18407TIP3   OH276635   6.447   5.094  14.423  0.5308  0.3265 -0.5914
18407TIP3    H176636   6.536   5.101  14.389  0.4320 -0.4490 -1.0218
18407TIP3    H276637   6.393   5.079  14.345  0.4312 -2.5480  0.0059
18408TIP3   OH276638   2.042   2.698   1.778 -0.6254  0.1674 -0.5023
18408TIP3    H176639   1.994   2.768   1.821  1.7499  2.1051 -0.9286
18408TIP3    H276640   2.093   2.657   1.848  3.6831  3.6885 -1.3954
18409TIP3   OH276641   3.892   6.413   1.390  0.2448 -0.1215  0.1866
18409TIP3    H176642   3.985   6.435   1.399  0.8052 -1.5615 -1.7180
18409TIP3    H276643   3.865   6.385   1.478  1.8640 -0.6153  0.5410
18410TIP3   OH276644   2.435   4.937   0.003 -0.1634  0.0735 -0.3227
18410TIP3    H176645   2.388   5.020   0.015  0.8914  0.8759 -1.4418
18410TIP3    H276646   2.376   4.884  -0.051 -1.2606 -0.2864  1.2176
18411TIP3   OH276647   1.111   1.206   2.258  0.2492 -0.7867  0.1930
18411TIP3    H176648   1.194   1.180   2.299 -0.2680 -1.0800  1.0556
18411TIP3    H276649   1.050   1.217   2.331  0.1429  1.7839 -0.2449
18412TIP3   OH276650   4.262   2.617  14.442  0.2546  0.3713 -0.8082
18412TIP3    H176651   4.255   2.694  14.385 -1.3644  0.1973 -0.8644
18412TIP3    H276652   4.201   2.635  14.513  2.7670  0.9148  1.3086
18413TIP3   OH276653   2.162   6.421  15.284  0.0990 -0.1418 -0.8888
18413TIP3    H176654   2.082   6.411  15.337  0.0021  2.0982 -0.5400
18413TIP3    H276655   2.151   6.360  15.211 -1.9345  0.1218 -0.8308
18414TIP3   OH276656   0.524   1.770   3.159  0.2408  0.2724  0.6269
18414TIP3    H176657   0.619   1.771   3.159  0.2449  2.2025  2.3512
18414TIP3    H276658   0.501   1.680   3.184  1.6249  0.3525  2.2441
18415TIP3   OH276659   0.967   5.486   4.107  0.1786 -0.1554  0.0124
18415TIP3    H176660   1.010   5.458   4.188  0.4323  0.5074  0.1094
18415TIP3    H276661   1.030   5.466   4.038  0.3323  0.1283  0.0734
18416TIP3   OH276662   5.117   5.463  15.609 -0.3829 -0.4714  0.5251
18416TIP3    H176663   5.147   5.373  15.597 -2.5948 -1.0884 -0.5518
18416TIP3    H276664   5.099   5.471  15.703 -2.5837 -1.9516  0.2547
18417TIP3   OH276665   6.370   6.418   1.238  0.1207 -0.3747  0.1024
18417TIP3    H176666   6.451   6.454   1.275 -0.2318  1.6014 -0.9458
18417TIP3    H276667   6.394   6.389   1.150  0.1197 -1.6274  0.5020
18418TIP3   OH276668   0.818   1.700  13.733 -0.4626  0.2546  0.1239
18418TIP3    H176669   0.835   1.639  13.806  0.0168  0.1540 -0.0693
18418TIP3    H276670   0.895   1.691  13.677 -0.6780  0.5872 -0.2223
18419TIP3   OH276671   3.073   4.088  11.363  0.2367 -0.6375  0.8452
18419TIP3    H176672   3.133   4.014  11.368 -0.4121 -1.2831 -0.6822
18419TIP3    H276673   3.006   4.070  11.429 -1.1330 -2.5435 -0.9872
18420TIP3   OH276674   3.700   3.673   6.612  0.2053  0.0976 -0.1761
18420TIP3    H176675   3.663   3.761   6.612 -0.0084  0.0085 -0.2473
18420TIP3    H276676   3.625   3.616   6.591  0.3576 -0.0921 -0.2005
18421TIP3   OH276677   0.355   2.213  16.517  0.3636  0.2031 -0.1008
18421TIP3    H176678   0.286   2.271  16.547  0.9260  0.0858  1.4566
18421TIP3    H276679   0.383   2.166  16.595  1.2515 -0.7589 -0.9771
18422TIP3   OH276680   5.749   4.972  15.216  0.6137 -0.2428  0.0521
18422TIP3    H176681   5.814   5.037  15.189  0.3853 -0.5807 -1.3519
18422TIP3    H276682   5.721   4.931  15.134 -2.8684  1.3014  0.4129
18423TIP3   OH276683   2.782   0.719  12.998 -0.4313  0.0940  0.0289
18423TIP3    H176684   2.731   0.679  12.927 -0.7927 -0.5542  0.6492
18423TIP3    H276685   2.872   0.691  12.981 -0.6680 -0.9287  0.4122
18424TIP3   OH276686   4.369   5.980  16.230 -0.0005  0.3493 -0.3465
18424TIP3    H176687   4.413   6.057  16.192  1.4465 -0.1423  0.3079
18424TIP3    H276688   4.415   5.965  16.312 -3.7278  1.9648  2.1287
18425TIP3   OH276689   2.996   6.594   1.998 -0.1401  0.4044  0.4458
18425TIP3    H176690   2.947   6.580   1.917  0.8665  0.9108 -0.2715
18425TIP3    H276691   3.067   6.530   1.994  1.3280  2.0280 -0.2620
18426TIP3   OH276692   4.070   2.285   6.009  0.0860 -0.2803  0.4086
18426TIP3    H176693   4.003   2.274   5.941  1.2279 -1.3811 -0.5631
18426TIP3    H276694   4.032   2.348   6.070 -1.8125 -0.8351 -0.1579
18427TIP3   OH276695   5.355   5.093  12.449  0.2537 -0.0770 -0.3784
18427TIP3    H176696   5.407   5.144  12.387  1.1510 -1.8917 -1.1535
18427TIP3    H276697   5.305   5.159  12.498  0.3790  1.4412 -2.2422
18428TIP3   OH276698   1.114   1.965  12.631 -0.4055  0.0081  0.6159
18428TIP3    H176699   1.191   1.912  12.650  0.2249  0.2337 -1.2116
18428TIP3    H276700   1.075   1.924  12.554 -1.8725  0.1680  1.2486
18429TIP3   OH276701   4.787   6.733  15.016  0.7394  0.0674  0.5762
18429TIP3    H176702   4.795   6.750  14.922 -1.3313 -1.0519  0.1818
18429TIP3    H276703   4.704   6.772  15.041 -0.7189 -3.1906  1.0645
18430TIP3   OH276704   2.979   3.837   2.414 -0.6392  0.3578 -0.3072
18430TIP3    H176705   2.961   3.783   2.337 -0.2233  0.5927 -0.5690
18430TIP3    H276706   2.924   3.800   2.482 -0.3074 -0.4419 -0.4686
18431TIP3   OH276707   0.508   6.590  14.656 -0.6237 -0.2897 -0.1399
18431TIP3    H176708   0.478   6.645  14.728 -0.7415  0.8421 -1.0455
18431TIP3    H276709   0.525   6.505  14.696 -1.4559  0.1082  1.0719
18432TIP3   OH276710   3.395   5.144   2.838 -0.6735 -0.3991  0.3130
18432TIP3    H176711   3.440   5.216   2.883 -1.3161  0.5864 -0.5926
18432TIP3    H276712   3.436   5.065   2.872 -0.6404  0.3524  2.0886
18433TIP3   OH276713   4.860   4.052   1.661 -0.4734  0.1463  0.4149
18433TIP3    H176714   4.778   4.029   1.617 -0.1022  0.4842 -0.4447
18433TIP3    H276715   4.920   3.980   1.639 -0.7204 -0.4409  1.5804
18434TIP3   OH276716   1.881   6.340  13.412  0.1414 -0.3743  0.8266
18434TIP3    H176717   1.947   6.336  13.343  0.4033  0.5964  1.0129
18434TIP3    H276718   1.890   6.257  13.459 -0.8103 -1.5467 -0.9942
18435TIP3   OH276719   4.814   5.415  14.115 -0.4932 -0.1556  0.1324
18435TIP3    H176720   4.844   5.459  14.194  1.1061  3.1110 -2.2170
18435TIP3    H276721   4.886   5.355  14.092 -0.6179 -0.5155  0.6612
18436TIP3   OH276722   2.478   1.359  13.293  0.3510  0.1341  0.2693
18436TIP3    H176723   2.474   1.344  13.199  1.4194  2.0314 -0.0902
18436TIP3    H276724   2.497   1.272  13.330  0.9664 -0.4230 -1.3232
18437TIP3   OH276725   1.150   3.694   1.883  0.6502  0.5613 -0.5153
18437TIP3    H176726   1.141   3.659   1.794 -2.7167  2.3430 -0.9763
18437TIP3    H276727   1.158   3.617   1.939 -1.2368 -0.7731 -2.0075
18438TIP3   OH276728   6.188   4.465   3.327  0.3355 -0.3895  0.4597
18438TIP3    H176729   6.226   4.515   3.399  0.0215  0.1193  0.2745
18438TIP3    H276730   6.240   4.385   3.323  2.2265  0.8523 -0.6237
18439TIP3   OH276731   4.637   5.525  10.771  0.3069 -0.7178  0.1161
18439TIP3    H176732   4.618   5.569  10.853 -0.1181 -2.3654  0.9188
18439TIP3    H276733   4.588   5.574  10.705  0.3176  0.3500  0.8987
18440TIP3   OH276734   5.784   1.385   5.279 -0.0613  0.5642  0.6646
18440TIP3    H176735   5.757   1.298   5.308  3.2522 -0.9924 -0.6994
18440TIP3    H276736   5.704   1.426   5.246 -1.1921 -2.9855 -1.1739
18441TIP3   OH276737   0.456   4.760  14.776  0.4645  0.3172 -0.9410
18441TIP3    H176738   0.397   4.757  14.852  0.6911  0.4054 -0.7604
18441TIP3    H276739   0.496   4.674  14.774  0.5899  0.3732 -0.8553
18442TIP3   OH276740   1.358   2.422   3.884 -0.0455 -0.5475  0.5834
18442TIP3    H176741   1.266   2.424   3.910 -0.2734  0.7336 -0.3222
18442TIP3    H276742   1.361   2.358   3.813 -0.1540 -0.8431  0.8371
18443TIP3   OH276743   2.759   5.363   5.981 -0.2520  0.8716 -0.3216
18443TIP3    H176744   2.839   5.335   6.024 -0.2112  0.0847 -0.9004
18443TIP3    H276745   2.691   5.353   6.048  0.2236  2.1585  0.3714
18444TIP3   OH276746   0.772   2.994   2.979 -0.6566  0.4275 -0.3883
18444TIP3    H176747   0.720   2.925   3.020 -1.7003  1.4295 -0.0009
18444TIP3    H276748   0.770   2.972   2.886  0.8681 -1.2815 -0.0389
18445TIP3   OH276749   0.499   6.265  16.555 -0.1554  0.0115 -0.6296
18445TIP3    H176750   0.510   6.183  16.507 -1.1282 -1.7564  2.0363
18445TIP3    H276751   0.551   6.253  16.635 -1.0822  1.5854  0.2370
18446TIP3   OH276752   3.922   0.477   1.392 -0.4208  0.3896 -0.0559
18446TIP3    H176753   3.840   0.456   1.348  0.1501  1.0926 -1.4924
18446TIP3    H276754   3.904   0.559   1.438 -0.9546 -0.2359  0.8733
18447TIP3   OH276755   6.701   0.791  10.663  0.0030  0.3390 -0.5321
18447TIP3    H176756   6.629   0.801  10.601  0.7678  0.0891 -1.4762
18447TIP3    H276757   6.779   0.814  10.613  0.3123  3.6117  1.3140
18448TIP3   OH276758   5.852   4.363   2.109  0.5566  0.2341 -0.1312
18448TIP3    H176759   5.760   4.356   2.137 -0.3515  2.3657 -2.4048
18448TIP3    H276760   5.893   4.416   2.177 -0.0217 -0.2783  0.6295
18449TIP3   OH276761   5.767   1.208   0.181 -0.2298  0.2518 -0.0936
18449TIP3    H176762   5.747   1.301   0.190 -2.6054 -0.4370  2.2921
18449TIP3    H276763   5.770   1.175   0.270 -0.6017 -2.1893 -0.9477
18450TIP3   OH276764   6.592   0.086  16.175 -0.2411  0.1894  0.0003
18450TIP3    H176765   6.683   0.073  16.152  0.1783  0.0419  1.6511
18450TIP3    H276766   6.545   0.017  16.128  0.9012 -1.7926  1.6996
18451TIP3   OH276767   5.469   1.574   5.794 -0.3890 -0.0354 -0.0559
18451TIP3    H176768   5.413   1.517   5.848 -0.2431  0.7191  0.9047
18451TIP3    H276769   5.532   1.610   5.856 -1.2272  2.1316 -0.4153
18452TIP3   OH276770   4.872   6.321   3.426  0.4738  0.0700  0.0323
18452TIP3    H176771   4.864   6.254   3.359 -1.4969 -0.6301  0.9331
18452TIP3    H276772   4.896   6.400   3.378 -0.1184 -0.6030 -1.3899
18453TIP3   OH276773   1.284   5.257  15.534  0.0283 -0.0656  0.3385
18453TIP3    H176774   1.284   5.305  15.452 -2.1394 -0.7251 -0.0757
18453TIP3    H276775   1.254   5.321  15.599  0.1990  0.0211  0.3315
18454TIP3   OH276776   2.864   4.702   3.631  0.2167  0.3059  0.0520
18454TIP3    H176777   2.857   4.608   3.648  0.4353  0.5171  1.3479
18454TIP3    H276778   2.789   4.722   3.575 -0.8888 -0.3029  1.2774
18455TIP3   OH276779   2.394   1.101   2.754  0.0314  0.1325  0.1219
18455TIP3    H176780   2.445   1.133   2.828 -0.0454 -0.2951  0.3615
18455TIP3    H276781   2.314   1.065   2.794  0.1818 -0.4912 -0.1311
18456TIP3   OH276782   5.277   2.308  13.876  0.5868 -0.6097 -0.3163
18456TIP3    H176783   5.231   2.390  13.858  2.6489  1.1269  1.9609
18456TIP3    H276784   5.334   2.296  13.800  0.4595  0.2093 -0.5515
18457TIP3   OH276785   1.315   0.244   5.740 -0.0841  0.0211 -0.2511
18457TIP3    H176786   1.305   0.312   5.807 -0.8257  1.4086 -1.7380
18457TIP3    H276787   1.395   0.268   5.693  0.5305 -1.0478  0.2269
18458TIP3   OH276788   1.889   4.641  14.196 -0.0188  0.8123  0.0555
18458TIP3    H176789   1.848   4.724  14.222 -0.2223  1.2506 -1.6360
18458TIP3    H276790   1.972   4.668  14.155  1.1826  0.0253  1.8844
18459TIP3   OH276791   4.592   3.816   4.690 -0.4263 -0.1178 -0.0212
18459TIP3    H176792   4.624   3.741   4.739  1.9930  1.0649  0.2633
18459TIP3    H276793   4.504   3.790   4.661  0.2515 -2.9144  0.3066
18460TIP3   OH276794   0.949   6.030   0.988  0.0540 -0.3045  0.3505
18460TIP3    H176795   0.901   6.095   1.041  0.5406  0.3093  0.0393
18460TIP3    H276796   0.885   6.002   0.922 -1.0308 -2.1384  2.1151
18461TIP3   OH276797   4.520   2.275  16.146  0.0716  0.5142  0.1898
18461TIP3    H176798   4.588   2.243  16.086  0.2244 -1.2820  1.2824
18461TIP3    H276799   4.455   2.316  16.089  0.7751 -0.1483 -1.1140
18462TIP3   OH276800   5.284   4.386  13.327 -0.1428  0.2642 -0.3399
18462TIP3    H176801   5.216   4.328  13.361  0.0600 -0.1071 -0.5703
18462TIP3    H276802   5.237   4.466  13.303 -0.8709 -0.8341 -2.6765
18463TIP3   OH276803   0.767   4.040  12.872 -0.0262  0.0909  0.0559
18463TIP3    H176804   0.696   4.063  12.813 -0.4252  1.0994  0.9227
18463TIP3    H276805   0.727   4.034  12.958  0.5095 -1.6218  0.2012
18464TIP3   OH276806   1.180   6.003  13.998  0.0922 -0.5317 -0.4218
18464TIP3    H176807   1.124   6.076  13.974 -0.2128 -0.8769 -0.7611
18464TIP3    H276808   1.119   5.931  14.016  0.3264 -0.3765  1.0342
18465TIP3   OH276809   2.151   5.146   0.696 -0.2362  0.1794  0.8498
18465TIP3    H176810   2.187   5.108   0.616 -0.2144  2.3357 -0.1769
18465TIP3    H276811   2.059   5.162   0.677 -0.7952 -1.4253  2.0592
18466TIP3   OH276812   3.211   6.172   4.314  0.1794 -0.4123 -0.2423
18466TIP3    H176813   3.286   6.185   4.372 -0.1266 -0.3719  0.1481
18466TIP3    H276814   3.188   6.260   4.286 -0.7403 -0.2589  0.9380
18467TIP3   OH276815   4.389   4.478  11.337  0.0775 -0.6900 -0.1611
18467TIP3    H176816   4.403   4.567  11.370  0.2307 -1.0261  0.6779
18467TIP3    H276817   4.300   4.455  11.366  0.6201 -1.3969  0.9640
18468TIP3   OH276818   0.817   5.525  13.399 -0.3233 -0.2126  0.1061
18468TIP3    H176819   0.737   5.496  13.355 -0.2973  0.5463 -0.4419
18468TIP3    H276820   0.787   5.589  13.464 -0.0216  1.1049 -1.0435
18469TIP3   OH276821   3.031   1.864  14.834 -0.5294  0.3530 -0.0953
18469TIP3    H176822   2.965   1.896  14.896  0.2331  0.0613  0.8868
18469TIP3    H276823   3.075   1.943  14.803 -0.0955  0.4171  0.6731
18470TIP3   OH276824   1.943   6.248  16.945  0.0515  0.0345  0.7448
18470TIP3    H176825   1.854   6.234  16.977 -0.6162  1.5904 -0.3690
18470TIP3    H276826   1.990   6.284  17.020 -0.8613  1.3514  0.6977
18471TIP3   OH276827   5.118   6.040   2.590  0.2031 -0.1762 -0.1322
18471TIP3    H176828   5.035   6.027   2.545  0.2428  0.5300 -0.4055
18471TIP3    H276829   5.140   5.953   2.625 -1.6057  0.0370  1.6232
18472TIP3   OH276830   1.170   1.132   4.635  0.4212  0.5957 -0.2114
18472TIP3    H176831   1.210   1.061   4.685  0.6076 -0.5642 -1.9690
18472TIP3    H276832   1.079   1.132   4.663  0.1850 -1.0017 -0.9012
18473TIP3   OH276833   4.317   4.812   0.835 -0.6299 -0.3296  0.3198
18473TIP3    H176834   4.344   4.808   0.927  0.1729  0.4130  0.1247
18473TIP3    H276835   4.307   4.906   0.818 -4.0714 -0.6115  0.5843
18474TIP3   OH276836   0.113   2.569   4.588  0.4801 -0.0166  0.0790
18474TIP3    H176837   0.096   2.543   4.497  0.1307 -0.4881  0.2701
18474TIP3    H276838   0.073   2.498   4.639  1.9764 -0.5067  0.5751
18475TIP3   OH276839   3.542   0.407  14.916 -0.2213  0.7019  0.0952
18475TIP3    H176840   3.552   0.441  15.005 -1.0584 -1.6615  1.1282
18475TIP3    H276841   3.587   0.322  14.917 -0.0757  0.7247 -1.7973
18476TIP3   OH276842   5.830   3.482   5.852  0.3633 -0.0318  0.2088
18476TIP3    H176843   5.792   3.468   5.765 -1.9368  0.9214  1.0070
18476TIP3    H276844   5.852   3.394   5.883  0.4391 -0.4487 -1.0116
18477TIP3   OH276845   3.537   4.994   3.444 -0.3369 -0.0487  0.1544
18477TIP3    H176846   3.554   4.984   3.537  0.4696 -1.9583 -0.1768
18477TIP3    H276847   3.542   4.905   3.409 -0.5095  0.6629 -1.7331
18478TIP3   OH276848   2.790   3.051   3.102  0.3788  0.3593 -0.0675
18478TIP3    H176849   2.867   3.054   3.159 -0.4981 -0.9767  1.2353
18478TIP3    H276850   2.801   2.971   3.050 -0.7456 -0.5655  1.0729
18479TIP3   OH276851   1.140   6.433  15.671  0.4339  0.1640  0.5145
18479TIP3    H176852   1.114   6.507  15.617  1.0895  1.5222  2.0327
18479TIP3    H276853   1.203   6.385  15.617 -0.1575  0.5879 -0.5610
18480TIP3   OH276854   3.493   5.491  13.862 -0.2091  0.1862 -0.7838
18480TIP3    H176855   3.424   5.435  13.898 -0.1717  0.8522  0.3303
18480TIP3    H276856   3.518   5.447  13.780 -1.0416 -0.7563 -0.5524
18481TIP3   OH276857   6.027   3.303  10.974 -0.1596 -0.4839  0.1051
18481TIP3    H176858   5.931   3.293  10.978 -0.2944  0.1724 -1.1166
18481TIP3    H276859   6.041   3.397  10.965  0.5576 -0.6532 -0.6544
18482TIP3   OH276860   4.362   2.255   5.555 -0.2113 -0.0432 -0.1971
18482TIP3    H176861   4.453   2.258   5.584 -0.4485 -0.6701  0.6252
18482TIP3    H276862   4.311   2.251   5.636 -0.8676 -1.9986 -0.6661
18483TIP3   OH276863   4.518   4.088  12.271  0.2091 -0.4503  0.1329
18483TIP3    H176864   4.506   4.115  12.362  0.8429 -1.4611  0.5306
18483TIP3    H276865   4.577   4.153  12.235 -1.3786  0.9335 -0.0536
18484TIP3   OH276866   5.118   2.819  12.195 -0.1656 -0.2870 -0.0262
18484TIP3    H176867   5.213   2.805  12.190 -0.1350 -0.2058  0.2945
18484TIP3    H276868   5.108   2.914  12.200 -0.2272 -0.3251  0.6062
18485TIP3   OH276869   5.555   2.338   1.013  0.1568 -0.4593  0.6406
18485TIP3    H176870   5.632   2.395   1.010 -1.8212  2.2765 -0.2204
18485TIP3    H276871   5.488   2.391   1.056 -1.1490 -2.9497  1.7885
18486TIP3   OH276872   0.429   0.625   5.436  0.0146  0.3281 -0.1764
18486TIP3    H176873   0.486   0.644   5.361  0.1932 -0.6386 -0.2854
18486TIP3    H276874   0.470   0.671   5.509  0.9869 -0.4417 -0.2349
18487TIP3   OH276875   4.302   4.293  16.141 -0.2745  1.1304 -0.1437
18487TIP3    H176876   4.290   4.290  16.046 -0.0999  1.9801 -0.1914
18487TIP3    H276877   4.219   4.328  16.175 -1.1111 -1.0567  0.1852
18488TIP3   OH276878   4.211   0.140   0.119  0.2144  0.1718 -0.9006
18488TIP3    H176879   4.259   0.134   0.201  0.6542  0.5537 -1.1260
18488TIP3    H276880   4.177   0.229   0.118 -1.6134 -0.4951 -0.1319
18489TIP3   OH276881   0.566   0.387  15.723 -0.9585  0.5903 -0.6604
18489TIP3    H176882   0.543   0.311  15.670  0.5476 -0.1766 -0.2329
18489TIP3    H276883   0.527   0.370  15.808 -0.3997  0.1738 -0.4878
18490TIP3   OH276884   1.404   2.851  15.640 -0.2791  0.2451 -0.2447
18490TIP3    H176885   1.408   2.933  15.591 -2.4696  0.2955 -0.3906
18490TIP3    H276886   1.403   2.877  15.732 -1.7150  0.4590 -0.2991
18491TIP3   OH276887   0.371   1.692  13.391 -0.0114  0.1890 -0.5277
18491TIP3    H176888   0.463   1.704  13.417  0.1122  1.0316 -1.3259
18491TIP3    H276889   0.321   1.707  13.471  0.6486 -2.3946  0.4345
18492TIP3   OH276890   3.779   6.608  13.616 -0.3103 -0.4872 -0.3461
18492TIP3    H176891   3.859   6.576  13.656 -0.2859 -1.2124 -0.9699
18492TIP3    H276892   3.778   6.702  13.635  0.6182 -0.5001 -0.2377
18493TIP3   OH276893   0.734   2.512   3.876  0.4755 -0.1090 -0.1911
18493TIP3    H176894   0.700   2.424   3.860  0.0938  0.1900 -1.0410
18493TIP3    H276895   0.708   2.531   3.967  0.0895 -0.6582 -0.1796
18494TIP3   OH276896   4.805   3.862  13.160 -0.3200  0.5663  0.0654
18494TIP3    H176897   4.881   3.916  13.138  0.6603 -0.6803  0.3465
18494TIP3    H276898   4.822   3.778  13.118 -2.0674  0.6175 -0.7822
18495TIP3   OH276899   5.649   1.388   2.543  0.2549 -0.1021 -1.1648
18495TIP3    H176900   5.579   1.341   2.498 -0.3152  0.6676 -1.1104
18495TIP3    H276901   5.722   1.387   2.482 -0.9754  2.1612 -2.7371
18496TIP3   OH276902   5.676   1.829   5.025 -0.0877 -0.1301 -0.1319
18496TIP3    H176903   5.680   1.817   4.930 -0.2984 -1.3015  0.0008
18496TIP3    H276904   5.765   1.851   5.050  0.7242 -3.0713 -0.2026
18497TIP3   OH276905   4.004   1.561  15.823 -0.6576  0.5421  0.8356
18497TIP3    H176906   4.010   1.532  15.731 -2.3709  0.7852  0.6424
18497TIP3    H276907   4.092   1.593  15.843 -0.6070  1.7496 -1.1535
18498TIP3   OH276908   0.762   2.080   4.846  0.1054 -0.4209 -0.0190
18498TIP3    H176909   0.739   1.989   4.828 -0.8785 -0.0493 -0.7669
18498TIP3    H276910   0.794   2.080   4.936  0.8187 -1.6233 -0.2650
18499TIP3   OH276911   4.382   6.514   4.825  0.3497  0.2823 -0.4561
18499TIP3    H176912   4.349   6.582   4.766 -0.5857  1.2184  1.1299
18499TIP3    H276913   4.471   6.541   4.845  0.1866  0.7126 -0.3143
18500TIP3   OH276914   0.571   3.379   3.492  0.3125 -0.2194  0.1856
18500TIP3    H176915   0.560   3.325   3.571  0.3643 -1.9360 -0.9519
18500TIP3    H276916   0.490   3.369   3.444 -0.0414  1.4976  0.3918
18501TIP3   OH276917   3.613   3.657  16.085  0.1380 -0.0172 -0.5281
18501TIP3    H176918   3.635   3.597  16.013  0.4719  0.6720 -1.0026
18501TIP3    H276919   3.682   3.723  16.083  0.0832  0.0651  0.3570
18502TIP3   OH276920   1.398   0.983  14.791 -0.4491  0.0138  0.1415
18502TIP3    H176921   1.353   1.068  14.794 -1.5449 -0.5614  0.2431
18502TIP3    H276922   1.370   0.943  14.709  2.0450  0.7970 -1.1375
18503TIP3   OH276923   1.983   6.516  17.221 -0.2953  0.1027 -0.2194
18503TIP3    H176924   2.037   6.438  17.210  0.4841  0.4310  1.2318
18503TIP3    H276925   2.000   6.546  17.310 -1.3922  1.3328 -0.3967
18504TIP3   OH276926   4.920   2.356   3.767  0.2024  0.0735  0.1955
18504TIP3    H176927   4.863   2.427   3.738  0.4906  0.4885  0.6331
18504TIP3    H276928   4.991   2.354   3.702  1.2043  1.4414  1.2120
18505TIP3   OH276929   0.889   3.690   4.704 -0.0397  0.1927 -0.0750
18505TIP3    H176930   0.975   3.718   4.673 -0.2506 -0.3221 -1.1666
18505TIP3    H276931   0.901   3.598   4.728 -0.5510 -0.2275 -1.3656
18506TIP3   OH276932   2.973   1.869   1.956 -0.2588  0.3223 -0.0167
18506TIP3    H176933   2.881   1.848   1.970 -0.4230  2.2159  2.0171
18506TIP3    H276934   2.991   1.840   1.867 -3.4156  1.9024 -1.2377
18507TIP3   OH276935   5.567   0.575   0.304  0.2321  0.0997 -0.1431
18507TIP3    H176936   5.481   0.601   0.270  0.0873 -0.1412  0.0402
18507TIP3    H276937   5.626   0.645   0.277  0.5983 -1.2380 -3.0616
18508TIP3   OH276938   0.006   4.042   4.934  0.5205 -0.3335 -0.0338
18508TIP3    H176939  -0.032   4.126   4.909  0.9640  0.5023  1.9517
18508TIP3    H276940   0.015   3.994   4.852  0.5160  1.6650 -1.2414
18509TIP3   OH276941   2.012   5.618  16.126  0.4929 -0.2470  0.1751
18509TIP3    H176942   2.006   5.591  16.034  1.5060 -1.8832  0.5714
18509TIP3    H276943   2.065   5.551  16.168 -1.7522 -0.7141  2.4311
18510TIP3   OH276944   6.551   6.112  15.218  0.1539 -0.4041  0.5290
18510TIP3    H176945   6.572   6.059  15.141  1.4308 -2.3629  2.1777
18510TIP3    H276946   6.624   6.173  15.226 -0.2229  0.1285 -0.0954
18511TIP3   OH276947   2.386   6.223   3.091  0.2332 -0.5777 -0.0870
18511TIP3    H176948   2.349   6.247   3.176  0.7881 -2.2941  0.6605
18511TIP3    H276949   2.437   6.300   3.065 -1.1484  0.5364  0.4135
18512TIP3   OH276950   1.840   2.414   5.631 -0.1368 -0.0848  0.1955
18512TIP3    H176951   1.747   2.405   5.652 -0.1384 -1.4762 -0.3577
18512TIP3    H276952   1.874   2.473   5.698 -1.7392  1.7508 -0.5356
18513TIP3   OH276953   5.851   0.139   0.863 -0.7546  0.2788 -0.1651
18513TIP3    H176954   5.859   0.059   0.812 -1.1474 -0.4233  0.8529
18513TIP3    H276955   5.790   0.193   0.814  0.3588  0.4084 -1.4185
18514TIP3   OH276956   6.455   5.360  17.214 -0.1854  0.0093  0.4442
18514TIP3    H176957   6.466   5.455  17.206 -2.1895  0.4439  2.1415
18514TIP3    H276958   6.500   5.337  17.296  1.1935 -0.6902 -0.4993
18515TIP3   OH276959   3.035   4.766   2.057 -0.0441  0.4411  0.5397
18515TIP3    H176960   3.124   4.795   2.078 -0.1314  0.2717  1.1485
18515TIP3    H276961   3.037   4.671   2.064  0.0818  0.3262 -0.8517
18516TIP3   OH276962   4.237   0.633   0.501  0.3123  0.0395  0.2318
18516TIP3    H176963   4.201   0.571   0.438 -0.5455  0.7965 -0.0403
18516TIP3    H276964   4.246   0.583   0.582  2.1958 -1.1619 -0.6838
18517TIP3   OH276965   4.088   3.098   5.795  0.1044  0.2238  0.2832
18517TIP3    H176966   4.014   3.158   5.802 -0.7789 -0.8324  0.0832
18517TIP3    H276967   4.145   3.139   5.730 -0.2313  1.1175  0.5443
18518TIP3   OH276968   1.442   1.268  12.839 -0.5591  0.2345 -0.3532
18518TIP3    H176969   1.378   1.274  12.910 -1.5425  1.1772 -1.3012
18518TIP3    H276970   1.521   1.310  12.875 -1.0455  0.6959  0.1911
18519TIP3   OH276971   4.024   2.597  14.977  0.6969  0.0258  0.3128
18519TIP3    H176972   4.111   2.568  14.950 -0.0588 -0.9335 -1.1719
18519TIP3    H276973   3.965   2.533  14.938 -0.7141  0.9330  0.9300
18520TIP3   OH276974   5.117   5.726   4.862  0.5980 -0.0147  0.6443
18520TIP3    H176975   5.130   5.806   4.811  1.2720  0.2165  1.1692
18520TIP3    H276976   5.140   5.751   4.951  1.0945 -0.8762  0.7600
18521TIP3   OH276977   1.631   4.362  13.518 -0.1561 -0.9166  1.0924
18521TIP3    H176978   1.622   4.443  13.468 -2.0481 -2.3646 -1.0314
18521TIP3    H276979   1.548   4.353  13.564 -0.6319 -2.4844 -0.0309
18522TIP3   OH276980   0.006   4.465  11.502 -0.2791  0.7996 -0.3570
18522TIP3    H176981  -0.068   4.470  11.442  0.1033 -0.2763 -0.9206
18522TIP3    H276982   0.023   4.372  11.511 -0.0664  0.9711  1.0998
18523TIP3   OH276983   1.045   4.290  15.739 -0.4281  0.0781  0.0488
18523TIP3    H176984   0.967   4.312  15.688  0.5260  2.3121 -0.5037
18523TIP3    H276985   1.018   4.300  15.830 -0.5494  1.8921 -0.1543
18524TIP3   OH276986   1.615   0.501   1.541 -0.5899 -0.1279 -0.5503
18524TIP3    H176987   1.528   0.529   1.511 -0.9621 -2.3099 -1.5770
18524TIP3    H276988   1.673   0.573   1.515 -1.6148  0.0029 -2.5908
18525TIP3   OH276989   0.551   4.044  15.717  0.2974 -0.0612  0.4699
18525TIP3    H176990   0.642   4.017  15.702  0.6512  1.0956  0.4288
18525TIP3    H276991   0.554   4.089  15.801 -0.4259 -0.8707  0.9193
18526TIP3   OH276992   5.765   5.898   5.568 -0.0726 -0.1089  0.1385
18526TIP3    H176993   5.813   5.981   5.565  1.1945 -0.8801 -2.0730
18526TIP3    H276994   5.700   5.910   5.636 -0.2669  2.9033 -0.5424
18527TIP3   OH276995   6.269   2.002   3.011 -0.0595  0.3398  0.2899
18527TIP3    H176996   6.313   1.921   2.986 -1.7715 -0.0377 -1.6473
18527TIP3    H276997   6.188   1.973   3.053  0.0633  1.0359  1.0126
18528TIP3   OH276998   6.253   4.478  12.086  0.6351  0.7140 -0.4239
18528TIP3    H176999   6.163   4.446  12.089 -0.9084  4.5941 -1.8837
18528TIP3    H277000   6.278   4.488  12.177  0.3782 -2.3042  0.0350
18529TIP3   OH277001   4.744   0.008  13.605  0.2913 -0.6968  0.5770
18529TIP3    H177002   4.767   0.068  13.535 -0.2695 -2.1022 -0.8242
18529TIP3    H277003   4.674  -0.046  13.569  1.4136 -2.8277  1.4598
18530TIP3   OH277004   0.227   2.853   0.401 -0.4289 -0.0207 -0.5295
18530TIP3    H177005   0.311   2.859   0.447 -0.3391  0.0769 -0.7084
18530TIP3    H277006   0.224   2.764   0.368 -1.6919 -0.9863  1.9918
18531TIP3   OH277007   6.130   6.567  13.613  0.7027  0.4254  0.4595
18531TIP3    H177008   6.208   6.616  13.587  0.9894  0.7897  1.9166
18531TIP3    H277009   6.059   6.607  13.564  1.3227  0.5746 -0.3361
18532TIP3   OH277010   0.757   4.937   0.673  0.2196  0.2647  0.5906
18532TIP3    H177011   0.685   4.896   0.721 -0.2109 -0.7349 -0.8730
18532TIP3    H277012   0.832   4.931   0.732 -0.8386  1.1443  2.0606
18533TIP3   OH277013   3.820   2.387   6.005  0.3578 -0.4156 -0.5081
18533TIP3    H177014   3.781   2.302   6.025 -0.0181 -0.5591 -1.7607
18533TIP3    H277015   3.750   2.450   6.022 -0.2632 -0.6189 -2.1712
18534TIP3   OH277016   5.108   2.276   1.364  0.8918  0.4358  0.3376
18534TIP3    H177017   5.148   2.224   1.294 -1.5900 -1.5602  0.3538
18534TIP3    H277018   5.057   2.342   1.317  2.2292  1.4964  0.3223
18535TIP3   OH277019   1.501   1.390  11.890  0.2874  0.2563  0.6053
18535TIP3    H177020   1.481   1.426  11.804 -0.0866  0.4664  0.7773
18535TIP3    H277021   1.596   1.388  11.894  0.3406 -1.6272 -0.5910
18536TIP3   OH277022   6.265   6.245   3.311 -0.3830 -0.7241 -0.0213
18536TIP3    H177023   6.185   6.223   3.358  0.1828 -2.1791  0.2819
18536TIP3    H277024   6.260   6.340   3.296 -1.8279 -0.7077  0.5914
18537TIP3   OH277025   6.292   5.730   5.412 -0.1443 -0.3273 -0.2307
18537TIP3    H177026   6.220   5.792   5.405 -0.5172 -0.8273 -0.8506
18537TIP3    H277027   6.258   5.660   5.467  0.4991  0.3292  1.0152
18538TIP3   OH277028   3.880   3.842  12.374  0.0038 -0.0022 -0.3333
18538TIP3    H177029   3.881   3.817  12.467  0.2762 -0.2990 -0.4150
18538TIP3    H277030   3.865   3.759  12.328 -0.5994  0.2141 -0.5318
18539TIP3   OH277031   6.604   5.445   2.792  0.4865  0.0732 -0.4486
18539TIP3    H177032   6.620   5.395   2.712  0.3381 -0.6129 -0.0512
18539TIP3    H277033   6.687   5.441   2.839  0.7857  1.0640 -0.8910
18540TIP3   OH277034   2.072   5.910  12.240 -0.1467  0.2516  0.1065
18540TIP3    H177035   2.041   5.997  12.214  2.8197  1.3625  0.1805
18540TIP3    H277036   2.128   5.926  12.316  0.5465 -1.7220  0.0477
18541TIP3   OH277037   2.612   6.168  15.063 -0.2950 -0.1679  0.5905
18541TIP3    H177038   2.561   6.146  14.985  0.0388  0.4978  0.1733
18541TIP3    H277039   2.619   6.264  15.060  1.2725 -0.2765  0.4474
18542TIP3   OH277040   1.659   6.617  12.207 -0.0437 -0.2239 -0.2598
18542TIP3    H177041   1.641   6.696  12.259 -0.0171  0.0124 -0.6106
18542TIP3    H277042   1.619   6.546  12.257  1.2767 -0.2122  0.8612
18543TIP3   OH277043   0.650   0.752   1.638  0.5674  0.1956  0.8336
18543TIP3    H177044   0.708   0.827   1.626  0.4055  0.1003 -0.7358
18543TIP3    H277045   0.588   0.757   1.565 -1.9890  0.7840  2.9607
18544TIP3   OH277046   1.533   4.192  16.752 -0.2559  0.2496 -0.0385
18544TIP3    H177047   1.448   4.204  16.709 -0.5644 -0.3954  0.3796
18544TIP3    H277048   1.570   4.114  16.711  1.2156  1.8813 -1.9048
18545TIP3   OH277049   2.717   0.788   0.118  0.2687 -0.2180 -0.2657
18545TIP3    H177050   2.652   0.762   0.183 -0.0769  1.7220  0.1704
18545TIP3    H277051   2.769   0.709   0.104 -1.8118 -1.6581 -0.2164
18546TIP3   OH277052   0.479   1.753  16.170 -0.0848  0.3089 -0.5054
18546TIP3    H177053   0.569   1.783  16.157  0.3608 -0.8807 -0.2415
18546TIP3    H277054   0.444   1.811  16.238  0.9807 -0.1849  0.4895
18547TIP3   OH277055   2.081   3.901  15.102  0.5940 -0.6274  0.0230
18547TIP3    H177056   2.028   3.910  15.022  2.2914 -0.4110 -1.0871
18547TIP3    H277057   2.046   3.822  15.144 -1.9716  0.6255  0.3769
18548TIP3   OH277058   1.910   3.820   3.922 -0.3196 -0.5487 -0.7806
18548TIP3    H177059   1.918   3.730   3.953 -2.6332 -0.4378  0.3135
18548TIP3    H277060   1.921   3.873   4.001  2.4444  0.2213 -1.6535
18549TIP3   OH277061   6.153   2.409   0.338  0.0503  0.0071  0.1749
18549TIP3    H177062   6.176   2.459   0.417 -1.0777  0.6766  0.0885
18549TIP3    H277063   6.153   2.475   0.268  0.6561 -0.5133 -0.3287
18550TIP3   OH277064   1.976   4.704   4.039 -0.0969  0.0931 -0.7564
18550TIP3    H177065   1.903   4.677   3.983 -2.1040  1.1742  1.2544
18550TIP3    H277066   1.987   4.631   4.100 -0.2851  0.4313 -0.3161
18551TIP3   OH277067   2.412   4.532   0.238 -0.0816 -0.3454  0.3975
18551TIP3    H177068   2.471   4.607   0.231  0.5196 -0.7552  0.9890
18551TIP3    H277069   2.461   4.459   0.201 -0.4704 -0.5548  0.2913
18552TIP3   OH277070   2.649   2.034   3.224  0.2472 -0.4740 -0.7405
18552TIP3    H177071   2.707   2.053   3.298 -2.2588  1.2578  0.8454
18552TIP3    H277072   2.620   1.944   3.239 -2.1670  0.6450  1.8247
18553TIP3   OH277073   3.839   5.094  15.845  0.3976 -0.0979  0.0848
18553TIP3    H177074   3.765   5.086  15.785  1.4751  1.1331 -1.4320
18553TIP3    H277075   3.811   5.047  15.924 -1.4502 -0.8210 -0.9746
18554TIP3   OH277076   2.933   1.691  10.730  0.8700  0.5902  0.0355
18554TIP3    H177077   2.933   1.596  10.726  1.1199  0.5873  0.1209
18554TIP3    H277078   2.977   1.712  10.812  0.1908  0.7663  0.3588
18555TIP3   OH277079   3.283   2.385  12.747 -0.2105 -0.3309  0.0296
18555TIP3    H177080   3.221   2.313  12.744 -0.2781 -0.2698 -0.0352
18555TIP3    H277081   3.340   2.369  12.671 -0.8905  0.2813 -0.6217
18556TIP3   OH277082   4.196   1.799  12.167 -0.0597 -0.3149  0.2399
18556TIP3    H177083   4.201   1.889  12.135  0.6304 -0.6903 -0.7205
18556TIP3    H277084   4.240   1.802  12.252  2.4354 -0.2899 -1.0019
18557TIP3   OH277085   3.897   3.571  13.941  0.3589 -0.1937  0.1742
18557TIP3    H177086   3.968   3.584  14.003  0.3642  0.1572  0.0930
18557TIP3    H277087   3.940   3.543  13.860  0.3633 -0.4914  0.2775
18558TIP3   OH277088   1.693   0.588   3.188  0.8662 -0.4063 -0.2182
18558TIP3    H177089   1.630   0.553   3.251  3.1136 -0.1491  2.2229
18558TIP3    H277090   1.755   0.516   3.174  2.4115  0.7492  0.6298
18559TIP3   OH277091   0.128   3.104   3.066  1.2755 -0.1439  0.4494
18559TIP3    H177092   0.062   3.147   3.122  0.2048 -1.3796  0.1608
18559TIP3    H277093   0.110   3.011   3.075  0.3885 -0.3568 -2.7584
18560TIP3   OH277094   0.338   0.003  16.461 -0.0128  1.0096 -0.0352
18560TIP3    H177095   0.408   0.045  16.411  1.0762  1.0919  1.5237
18560TIP3    H277096   0.383  -0.061  16.517 -1.0917  1.4859  1.4223
18561TIP3   OH277097   5.086   6.361  14.080  0.4086  0.4322  0.3211
18561TIP3    H177098   5.175   6.389  14.104 -0.0764  2.8336 -0.6291
18561TIP3    H277099   5.033   6.441  14.085 -1.4792 -0.7529 -0.2382
18562TIP3   OH277100   0.945   2.759  14.920 -0.3499 -0.3895  0.3602
18562TIP3    H177101   0.955   2.684  14.862  1.0645 -0.2997  0.4694
18562TIP3    H277102   0.872   2.736  14.977 -2.0160 -0.3061 -1.6893
18563TIP3   OH277103   4.522   1.651   2.819  0.5043  0.3494  0.4986
18563TIP3    H177104   4.585   1.721   2.799 -0.0844  1.1011  1.2197
18563TIP3    H277105   4.508   1.658   2.914  0.0816 -0.4449  0.5011
18564TIP3   OH277106   6.482   3.149  15.653  0.5525  0.2560 -0.0276
18564TIP3    H177107   6.400   3.108  15.627  0.6702 -0.2663  0.4219
18564TIP3    H277108   6.516   3.093  15.722  1.1208  0.6600  0.0230
18565TIP3   OH277109   3.367   1.843  11.846 -0.1938  0.4435  0.1934
18565TIP3    H177110   3.299   1.862  11.781  0.8672  2.0178 -0.4867
18565TIP3    H277111   3.405   1.760  11.817 -1.5221 -0.2232  0.3273
18566TIP3   OH277112   4.140   5.912  14.731 -0.5466 -0.6490 -0.2927
18566TIP3    H177113   4.080   5.935  14.660 -1.8313 -0.4213  0.8381
18566TIP3    H277114   4.179   5.829  14.703 -2.3900 -1.4767 -0.4626
18567TIP3   OH277115   0.759   1.831   2.525 -0.3340 -0.5875 -0.2439
18567TIP3    H177116   0.681   1.811   2.474  0.4107 -1.9456 -0.8738
18567TIP3    H277117   0.729   1.895   2.590 -1.8047 -0.5762 -0.9058
18568TIP3   OH277118   6.726   5.375  14.055 -0.2867  0.4278  0.5711
18568TIP3    H177119   6.707   5.468  14.044 -0.7982  0.3229  0.5294
18568TIP3    H277120   6.759   5.347  13.970 -0.0779  0.5879  0.5997
18569TIP3   OH277121   1.329   2.279   2.776  0.2677 -0.4441 -0.2082
18569TIP3    H177122   1.423   2.275   2.795 -0.0448  0.4619  1.6044
18569TIP3    H277123   1.318   2.363   2.730  0.1417  0.1622  0.9001
18570TIP3   OH277124   0.778   2.431  15.989 -0.1674  0.1316  0.1162
18570TIP3    H177125   0.867   2.463  15.981  0.4052 -1.1807  1.0236
18570TIP3    H277126   0.761   2.428  16.084 -0.1601 -2.2451  0.0855
18571TIP3   OH277127   5.720   0.009  16.092  0.1335  0.3424  0.1755
18571TIP3    H177128   5.666  -0.069  16.099  0.2904  0.1223 -1.0533
18571TIP3    H277129   5.706   0.041  16.003 -0.7686  2.3338  0.9895
18572TIP3   OH277130   1.457   0.503  16.414 -0.5483 -0.2559  0.3235
18572TIP3    H177131   1.534   0.560  16.413 -0.1536 -0.7921 -1.0183
18572TIP3    H277132   1.384   0.560  16.392 -0.1782 -0.2045 -0.8320
18573TIP3   OH277133   1.565   5.713  16.907 -0.0136 -0.3825  0.3816
18573TIP3    H177134   1.573   5.696  17.001 -0.8460 -0.0068  0.5230
18573TIP3    H277135   1.540   5.628  16.870 -2.8794  0.1843  0.9264
18574TIP3   OH277136   5.862   1.452  11.492 -0.0278  0.4307 -0.0576
18574TIP3    H177137   5.946   1.498  11.494  0.2902 -0.1528  0.4143
18574TIP3    H277138   5.885   1.361  11.513 -0.5019 -0.1634 -1.9784
18575TIP3   OH277139   0.934   0.941  13.534 -0.1203 -0.6887  0.1723
18575TIP3    H177140   0.858   0.952  13.590 -0.1843 -1.7897  0.3216
18575TIP3    H277141   0.997   1.005  13.566 -0.6955 -0.3171  0.5578
18576TIP3   OH277142   6.288   6.159   2.876 -0.0228 -0.2809  0.6171
18576TIP3    H177143   6.241   6.169   2.793  0.5573 -0.9611  0.2059
18576TIP3    H277144   6.354   6.091   2.859  1.5319  1.0780  0.9865
18577TIP3   OH277145   0.822   2.723  15.171 -0.4110 -0.3238  0.1600
18577TIP3    H177146   0.858   2.685  15.251 -0.2319 -0.0647  0.2035
18577TIP3    H277147   0.842   2.816  15.177 -1.1816 -0.1618  0.2261
18578TIP3   OH277148   1.735   1.311   5.147  0.0311  0.2932  0.2412
18578TIP3    H177149   1.670   1.242   5.160  0.0699  0.1693 -0.2244
18578TIP3    H277150   1.805   1.269   5.097  0.0576  0.6693 -0.0358
18579TIP3   OH277151   6.734   4.425   1.130 -0.2992 -0.4823  0.8495
18579TIP3    H177152   6.747   4.468   1.045 -2.8853  0.5953  0.9704
18579TIP3    H277153   6.678   4.350   1.111  1.0389 -1.6097  1.2595
18580TIP3   OH277154   5.869   1.926   2.560 -0.4179 -0.1664 -0.0561
18580TIP3    H177155   5.877   1.894   2.470  1.6623  2.4345 -0.8704
18580TIP3    H277156   5.920   1.864   2.613  1.9486  0.6747 -1.3086
18581TIP3   OH277157   6.624   0.265  15.074 -0.4531 -0.4629  0.3782
18581TIP3    H177158   6.596   0.219  15.153 -0.6212  1.4778  1.4903
18581TIP3    H277159   6.701   0.315  15.102  0.0239 -0.4541 -0.9271
18582TIP3   OH277160   0.261   5.737  14.187 -0.3989  0.1459 -0.2679
18582TIP3    H177161   0.178   5.708  14.224 -0.5505  0.8941 -0.0132
18582TIP3    H277162   0.311   5.656  14.173 -1.7185 -0.4192 -1.8111
18583TIP3   OH277163   5.410   0.496   3.077 -0.2650  0.3355 -0.4615
18583TIP3    H177164   5.432   0.561   3.010 -0.8911  0.3880 -0.6268
18583TIP3    H277165   5.421   0.412   3.034  3.1083  0.2149  0.5365
18584TIP3   OH277166   4.462   4.283  11.891  0.1264  0.3921 -0.1130
18584TIP3    H177167   4.402   4.251  11.959 -2.3028  0.1761 -2.2898
18584TIP3    H277168   4.549   4.266  11.926 -1.0521  0.6533  3.1305
18585TIP3   OH277169   3.657   1.236   4.359 -0.5642  0.5987 -0.6340
18585TIP3    H177170   3.695   1.252   4.446 -1.2450  0.5156 -0.3220
18585TIP3    H277171   3.728   1.256   4.298  0.4803 -1.0273  0.0075
18586TIP3   OH277172   0.716   0.051  11.950 -0.2183  0.6598 -0.3281
18586TIP3    H177173   0.741   0.125  11.894  0.2664 -0.3757 -1.5124
18586TIP3    H277174   0.629   0.073  11.982  0.6530  2.5739  0.8042
18587TIP3   OH277175   1.556   1.090   5.898  0.5558  0.1448 -0.4538
18587TIP3    H177176   1.652   1.092   5.902  0.6423 -2.3972 -0.4803
18587TIP3    H277177   1.536   1.090   5.805  0.6068 -0.8472 -0.4743
18588TIP3   OH277178   1.214   1.523   1.368  0.4426  0.3495 -0.0798
18588TIP3    H177179   1.145   1.550   1.428  1.5486  1.0730  0.8812
18588TIP3    H277180   1.249   1.604   1.332  0.9225  0.0032 -0.4099
18589TIP3   OH277181   3.677   3.624  14.118 -0.6207  0.0754  0.0945
18589TIP3    H177182   3.727   3.590  14.044 -0.9957 -0.5257  0.1162
18589TIP3    H277183   3.740   3.679  14.165 -0.7237  1.4149 -1.3224
18590TIP3   OH277184   1.007   4.148   5.781  0.0075 -0.1112 -0.3800
18590TIP3    H177185   0.940   4.083   5.758  0.8393 -0.8500 -0.7626
18590TIP3    H277186   1.041   4.119   5.866 -0.0658  0.1894 -0.2477
18591TIP3   OH277187   1.717   0.059  11.620  0.4186 -0.1380  0.1692
18591TIP3    H177188   1.686  -0.027  11.591  1.2160 -0.2185 -0.4362
18591TIP3    H277189   1.776   0.040  11.693  0.7362 -0.1101 -0.0827
18592TIP3   OH277190   6.702   2.755  11.016 -0.4188 -0.3247 -0.3709
18592TIP3    H177191   6.612   2.769  11.045 -0.9614  0.1989 -2.2808
18592TIP3    H277192   6.697   2.685  10.952  0.7625 -1.3480  0.6212
18593TIP3   OH277193   0.110   6.021  14.378 -0.1075 -0.4618  0.5628
18593TIP3    H177194   0.079   6.111  14.367 -2.2745 -1.1572  0.7234
18593TIP3    H277195   0.035   5.974  14.415  1.3829 -2.0812  1.6179
18594TIP3   OH277196   2.406   0.478   5.039 -0.0222  0.8023 -0.3989
18594TIP3    H177197   2.414   0.572   5.026  1.2157  0.6969 -0.4979
18594TIP3    H277198   2.372   0.445   4.955 -2.4390  1.3875  0.3303
18595TIP3   OH277199   4.453   6.555  10.453  0.3455 -0.3817  0.2228
18595TIP3    H177200   4.498   6.638  10.467  0.1528 -0.4958  1.6201
18595TIP3    H277201   4.511   6.489  10.491 -0.1647 -0.7314  0.3999
18596TIP3   OH277202   2.954   3.203   5.162 -0.2111 -0.4122  0.3426
18596TIP3    H177203   2.980   3.284   5.119  0.7394 -1.0747 -0.3290
18596TIP3    H277204   2.918   3.149   5.092 -0.5570 -0.6980  0.7385
18597TIP3   OH277205   5.418   4.429   4.898 -0.1320 -0.0797 -0.1098
18597TIP3    H177206   5.488   4.377   4.938  1.2325  1.4994 -0.4009
18597TIP3    H277207   5.386   4.374   4.826  1.2841 -0.5250 -0.4123
18598TIP3   OH277208   2.044   6.665  10.360  0.3922 -0.0647 -0.3218
18598TIP3    H177209   2.074   6.730  10.424  0.1563 -1.8030  1.6395
18598TIP3    H277210   2.099   6.588  10.378 -0.5798 -1.0068 -1.3413
18599TIP3   OH277211   0.194   0.819  15.087  1.1757 -0.4400  0.4869
18599TIP3    H177212   0.223   0.745  15.033  1.2427  0.7125 -1.0904
18599TIP3    H277213   0.227   0.799  15.174  0.2685 -2.8008  0.3266
18600TIP3   OH277214   0.709   1.212   3.573  0.3859 -1.2799 -0.2365
18600TIP3    H177215   0.716   1.274   3.646 -2.5204  0.4057 -1.2989
18600TIP3    H277216   0.800   1.185   3.556  1.4667  0.8267  1.8373
18601TIP3   OH277217   3.989   6.498  12.827 -0.0071  0.0387 -0.2163
18601TIP3    H177218   3.999   6.593  12.821 -0.7828  0.0503 -1.5352
18601TIP3    H277219   4.023   6.465  12.744  2.0511 -1.0055  1.0038
18602TIP3   OH277220   6.384   5.778   0.237  0.1886 -0.1975  0.2465
18602TIP3    H177221   6.422   5.768   0.150 -0.4424 -0.3734 -0.0170
18602TIP3    H277222   6.418   5.862   0.269  0.6280 -0.2568 -0.0629
18603TIP3   OH277223   6.246   5.564  10.836 -0.4115 -0.2196 -0.7585
18603TIP3    H177224   6.232   5.647  10.790 -1.0248 -0.3737 -0.8559
18603TIP3    H277225   6.332   5.534  10.806  0.4251  1.0580  0.3389
18604TIP3   OH277226   4.453   5.998   5.286 -0.0472 -0.0418 -0.4289
18604TIP3    H177227   4.470   5.905   5.273 -1.9711 -0.1792 -2.1499
18604TIP3    H277228   4.449   6.035   5.198 -0.5370  1.4356  0.1966
18605TIP3   OH277229   2.456   0.089   2.179 -0.0488  0.1818 -0.3160
18605TIP3    H177230   2.479   0.005   2.219  0.4942  0.7223  0.5278
18605TIP3    H277231   2.536   0.117   2.134 -1.0950 -1.1380 -3.0874
18606TIP3   OH277232   0.207   3.252   4.248  0.8682 -0.4229  0.3080
18606TIP3    H177233   0.245   3.336   4.224  0.3222  0.1741  1.4673
18606TIP3    H277234   0.181   3.212   4.165  0.6147  0.8062 -0.2079
18607TIP3   OH277235   6.647   0.305  15.895  0.0037 -0.2825 -0.0964
18607TIP3    H177236   6.603   0.322  15.812 -0.4162 -0.1997  0.1398
18607TIP3    H277237   6.702   0.229  15.878 -0.3570 -0.4923 -0.3533
18608TIP3   OH277238   4.528   4.854  11.780 -0.3675 -0.1236  0.0895
18608TIP3    H177239   4.612   4.855  11.735 -1.5262  1.1062 -2.1651
18608TIP3    H277240   4.550   4.856  11.873  2.0728  1.6221 -0.4883
18609TIP3   OH277241   0.265   1.681  14.794  0.2417 -0.2799  0.5093
18609TIP3    H177242   0.289   1.592  14.768 -1.0490 -0.4208 -0.2309
18609TIP3    H277243   0.347   1.730  14.787  0.2567 -0.6290 -2.5357
18610TIP3   OH277244   6.362   2.843  14.220 -0.2960 -0.1654  0.3465
18610TIP3    H177245   6.437   2.794  14.252  0.0132 -0.4181 -0.7523
18610TIP3    H277246   6.396   2.895  14.147 -0.9830  0.4157  0.4334
18611TIP3   OH277247   5.662   1.637   2.677 -0.7571 -0.0172  0.4364
18611TIP3    H177248   5.636   1.547   2.660  0.2706 -0.4184  0.9243
18611TIP3    H277249   5.746   1.647   2.631 -0.6583  0.5489  0.7334
18612TIP3   OH277250   0.649   0.058  15.813 -0.1292 -0.2910  0.3862
18612TIP3    H177251   0.586   0.028  15.879  0.4742 -0.1844  1.0117
18612TIP3    H277252   0.620   0.017  15.732 -2.2021  1.3626  0.2509
18613TIP3   OH277253   5.748   1.856   3.424  0.4801  0.2439  0.2176
18613TIP3    H177254   5.703   1.819   3.348  0.1524 -0.1599  0.6068
18613TIP3    H277255   5.690   1.837   3.498  1.8450 -1.4064  0.9251
18614TIP3   OH277256   0.558   5.240   0.694  0.4028  0.3073  0.1305
18614TIP3    H177257   0.514   5.210   0.774  1.7459 -0.5019  0.5847
18614TIP3    H277258   0.522   5.184   0.625  0.3417 -0.0052  0.4126
18615TIP3   OH277259   4.157   6.469  15.490 -0.0098 -0.3034  0.1946
18615TIP3    H177260   4.142   6.397  15.551 -0.9799 -0.5669 -0.3328
18615TIP3    H277261   4.109   6.443  15.411  0.8960  0.2116 -0.5404
18616TIP3   OH277262   6.736   1.794  12.532 -0.7673  0.3583 -0.1408
18616TIP3    H177263   6.734   1.792  12.628 -0.3267  1.4463 -0.1006
18616TIP3    H277264   6.656   1.840  12.508 -2.4813 -2.6559 -0.4266
18617TIP3   OH277265   1.760   3.715  12.721  0.0521  0.1072  0.6781
18617TIP3    H177266   1.767   3.802  12.760 -0.9230 -0.3670  1.9714
18617TIP3    H277267   1.710   3.664  12.785  0.8501 -1.4814  0.0719
18618TIP3   OH277268   3.733   6.697  12.329 -0.3061  0.3015  0.2003
18618TIP3    H177269   3.649   6.715  12.286  0.0883  0.0507 -0.6911
18618TIP3    H277270   3.728   6.604  12.353 -0.1409  0.1887 -0.1905
18619TIP3   OH277271   0.719   4.400   3.106 -0.1094 -0.2208  0.1294
18619TIP3    H177272   0.781   4.331   3.127 -0.0728 -0.2858 -0.1958
18619TIP3    H277273   0.731   4.417   3.013 -0.2664  0.0768  0.1599
18620TIP3   OH277274   2.475   3.703   0.728 -0.6669 -0.2943 -0.3418
18620TIP3    H177275   2.483   3.798   0.732  0.3587 -0.3807 -0.2452
18620TIP3    H277276   2.564   3.672   0.712 -0.9495 -1.2575 -0.0806
18621TIP3   OH277277   5.105   4.685  13.545  0.7178  0.1551  0.0481
18621TIP3    H177278   5.067   4.772  13.560  0.7863 -0.2469  2.7769
18621TIP3    H277279   5.029   4.627  13.534  0.5891  0.1234  1.0019
18622TIP3   OH277280   4.009   4.923  10.297 -0.4966 -0.0131  0.1949
18622TIP3    H177281   3.936   4.868  10.268 -1.2404  0.5086  1.0605
18622TIP3    H277282   3.983   4.954  10.383 -0.8160  3.0483 -0.9576
18623TIP3   OH277283   5.448   5.488  16.921  0.0075 -0.3564 -0.5214
18623TIP3    H177284   5.433   5.435  16.843 -0.9612  0.7905 -1.1308
18623TIP3    H277285   5.360   5.511  16.952  0.4022  2.3111 -1.2673
18624TIP3   OH277286   4.495   1.051  11.160  0.1987 -0.1641  0.2453
18624TIP3    H177287   4.410   1.022  11.126 -0.2292 -0.1689  1.3310
18624TIP3    H277288   4.487   1.045  11.255  0.7951  1.6166  0.4188
18625TIP3   OH277289   4.337   1.152  12.226  0.3836 -0.0212 -0.1566
18625TIP3    H177290   4.334   1.056  12.226  1.0529 -0.0445 -0.0950
18625TIP3    H277291   4.400   1.174  12.158 -0.6022  0.4089 -0.9210
18626TIP3   OH277292   5.364   4.580   2.472  0.0338  0.5714 -0.3581
18626TIP3    H177293   5.401   4.666   2.492  0.2701 -0.1106  2.3608
18626TIP3    H277294   5.271   4.596   2.459 -0.0266  1.1479  0.7688
18627TIP3   OH277295   3.236   5.312  12.007 -0.0802  0.1772 -0.1952
18627TIP3    H177296   3.187   5.383  12.049  2.0196  0.2648  2.1397
18627TIP3    H277297   3.168   5.254  11.972 -1.8314  2.9686 -1.6079
18628TIP3   OH277298   3.536   5.430  13.383 -0.1061 -0.4632  0.6051
18628TIP3    H177299   3.575   5.411  13.298  0.0958  0.2555  0.5383
18628TIP3    H277300   3.609   5.456  13.438 -0.3048 -0.4504  0.8661
18629TIP3   OH277301   1.817   4.763  13.841 -0.2476  0.4399  0.2569
18629TIP3    H177302   1.819   4.732  13.750  0.5583  2.6717 -0.5253
18629TIP3    H277303   1.729   4.741  13.872 -0.7361  0.1930 -1.2647
18630TIP3   OH277304   1.640   4.515   5.497  0.0289  0.1989  1.2771
18630TIP3    H177305   1.550   4.529   5.468  0.1027  1.2835  1.5320
18630TIP3    H277306   1.676   4.453   5.434  0.0611  2.1909 -0.7390
18631TIP3   OH277307   4.749   4.363  16.144  0.0125  0.1547 -0.0672
18631TIP3    H177308   4.779   4.274  16.124 -0.8444 -0.2863  0.5760
18631TIP3    H277309   4.737   4.364  16.239  1.2196  1.3459  0.0878
18632TIP3   OH277310   1.115   5.706  16.843 -0.2296 -0.4090 -0.1393
18632TIP3    H177311   1.099   5.628  16.789 -0.8572  0.2945 -0.9854
18632TIP3    H277312   1.193   5.746  16.804  0.7800 -1.2335  1.0099
18633TIP3   OH277313   2.226   5.366  14.189  0.1217  0.2940 -0.5063
18633TIP3    H177314   2.206   5.308  14.262 -3.0375 -2.5866 -3.4754
18633TIP3    H277315   2.303   5.327  14.148  0.5739  0.6659 -0.0189
18634TIP3   OH277316   3.878   2.328  16.387 -0.0925 -0.1429  0.7839
18634TIP3    H177317   3.898   2.397  16.450 -1.6198 -0.2498  1.4133
18634TIP3    H277318   3.809   2.276  16.429 -0.0659 -1.1185 -0.3349
18635TIP3   OH277319   4.037   0.502   1.061  0.9092 -0.3282  0.3075
18635TIP3    H177320   3.996   0.416   1.075 -0.1247 -0.0807 -1.0300
18635TIP3    H277321   4.109   0.505   1.123 -0.0191 -1.5234  1.4685
18636TIP3   OH277322   2.098   1.708   4.356 -0.0974 -0.7309  0.4315
18636TIP3    H177323   2.072   1.728   4.266 -1.3579  2.4906  1.4548
18636TIP3    H277324   2.180   1.755   4.369 -0.4050 -0.4134  1.2710
18637TIP3   OH277325   4.667   3.575  13.538 -0.1531 -0.0371 -0.0679
18637TIP3    H177326   4.583   3.553  13.579 -0.8265 -0.4414 -1.6174
18637TIP3    H277327   4.695   3.495  13.494  1.6237 -0.2316  1.3588
18638TIP3   OH277328   4.318   0.102  15.646 -0.1250  0.3171  0.1609
18638TIP3    H177329   4.324   0.189  15.607 -1.1736  0.2141 -0.2450
18638TIP3    H277330   4.362   0.045  15.582 -1.1812  0.2598 -0.5231
18639TIP3   OH277331   0.088   1.057   5.402 -0.5475  0.4490 -0.3303
18639TIP3    H177332   0.175   1.095   5.391 -0.2112 -0.5830 -1.3369
18639TIP3    H277333   0.102   0.980   5.457 -0.7588  0.0654 -0.8071
18640TIP3   OH277334   6.650   0.762  12.119  0.3441  0.1076  0.1614
18640TIP3    H177335   6.681   0.680  12.081 -0.8654 -1.2187  1.9639
18640TIP3    H277336   6.670   0.754  12.212 -0.0451  1.7390  0.3932
18641TIP3   OH277337   1.878   2.909   1.947  0.4414  0.5185 -0.8430
18641TIP3    H177338   1.792   2.933   1.981  1.9546  2.9097  1.4749
18641TIP3    H277339   1.924   2.871   2.021  1.5044 -0.4357 -1.9682
18642TIP3   OH277340   4.804   2.817   2.711  0.4002 -0.1158 -0.3472
18642TIP3    H177341   4.818   2.910   2.691  0.3771 -0.1082 -0.3281
18642TIP3    H277342   4.755   2.818   2.793 -1.0103 -0.1200 -1.1716
18643TIP3   OH277343   6.633   2.694  14.234 -0.4031  0.6780  0.0124
18643TIP3    H177344   6.722   2.658  14.239 -1.1604 -1.0275  1.8289
18643TIP3    H277345   6.646   2.788  14.228  1.5756  0.3147 -2.2835
18644TIP3   OH277346   2.014   5.856   2.390 -0.2192 -0.6630  0.1897
18644TIP3    H177347   1.926   5.893   2.381 -0.7821 -1.9752  0.1638
18644TIP3    H277348   2.063   5.923   2.438 -0.9523  0.5119 -0.6693
18645TIP3   OH277349   2.618   2.627   4.380 -0.1445  0.1250 -0.2491
18645TIP3    H177350   2.524   2.628   4.359 -0.3474  0.9980  0.6489
18645TIP3    H277351   2.642   2.720   4.386  0.8844 -0.0892 -0.9241
18646TIP3   OH277352   1.339   1.523   2.939  0.8111 -0.0542 -0.5717
18646TIP3    H177353   1.289   1.604   2.936  1.7225  0.5455  0.2670
18646TIP3    H277354   1.329   1.491   3.028  0.2452 -1.0063 -0.9643
18647TIP3   OH277355   5.657   2.901   2.591  0.7350 -0.5470  0.2513
18647TIP3    H177356   5.751   2.900   2.607  0.7655 -2.8838  0.2005
18647TIP3    H277357   5.648   2.882   2.498  0.2143 -0.2830  0.2466
18648TIP3   OH277358   3.829   5.709  11.557  0.2444 -0.1086 -0.1628
18648TIP3    H177359   3.749   5.747  11.594 -1.0625 -4.0897  1.3145
18648TIP3    H277360   3.886   5.785  11.541 -1.0014  2.2782  5.4788
18649TIP3   OH277361   3.187   0.330   6.305 -0.0730  0.6458 -0.1135
18649TIP3    H177362   3.121   0.262   6.290  0.8997 -0.1816 -0.7025
18649TIP3    H277363   3.230   0.341   6.220  0.5722  1.1529  0.2723
18650TIP3   OH277364   1.625   3.420   2.621 -0.5849  0.1001  0.2739
18650TIP3    H177365   1.717   3.417   2.645 -0.1652  0.5368 -1.2485
18650TIP3    H277366   1.616   3.358   2.549 -1.8969 -1.4240  1.6700
18651TIP3   OH277367   1.316   6.007   5.060  0.0817 -0.0044  0.4410
18651TIP3    H177368   1.406   6.023   5.088 -0.1852  0.2634  1.1394
18651TIP3    H277369   1.278   6.094   5.050  0.0075 -0.1078 -0.2219
18652TIP3   OH277370   2.420   5.482   2.774 -0.4053  0.0187 -0.2122
18652TIP3    H177371   2.455   5.539   2.705 -0.5610 -0.0435 -0.3439
18652TIP3    H277372   2.481   5.408   2.777 -0.7786 -0.3179 -0.7631
18653TIP3   OH277373   1.109   0.600  13.254 -0.0770 -0.0432  0.5234
18653TIP3    H177374   1.032   0.594  13.197  0.2709  0.3612  0.0057
18653TIP3    H277375   1.098   0.681  13.302 -0.1696 -0.1809  0.7325
18654TIP3   OH277376   2.494   6.745   5.582  0.2514  0.8739 -0.4014
18654TIP3    H177377   2.470   6.654   5.601  1.6333  0.8320  1.2854
18654TIP3    H277378   2.456   6.762   5.496  0.1856 -1.3764 -0.8626
18655TIP3   OH277379   6.450   0.953   2.080 -0.3529  0.5163  0.6346
18655TIP3    H177380   6.544   0.970   2.085  0.0146 -0.3207 -2.4379
18655TIP3    H277381   6.430   0.903   2.159  2.3406 -1.6055  0.0414
18656TIP3   OH277382   4.993   0.338  15.736 -0.8264 -0.0539  0.2279
18656TIP3    H177383   4.941   0.285  15.796 -1.6631 -0.2769 -0.6672
18656TIP3    H277384   4.975   0.301  15.650 -1.3937  1.6334 -0.4167
18657TIP3   OH277385   5.448   2.783   4.356  0.0894 -0.6718 -0.0463
18657TIP3    H177386   5.511   2.773   4.428  1.0318  0.3342 -0.7068
18657TIP3    H277387   5.445   2.878   4.340  1.0700 -1.0104 -2.3550
18658TIP3   OH277388   1.002   1.804  10.328  0.1057 -0.1784  0.4106
18658TIP3    H177389   1.036   1.718  10.303  1.3003 -0.3156  2.4250
18658TIP3    H277390   0.913   1.786  10.358 -0.1021 -0.5262 -0.4173
18659TIP3   OH277391   6.022   0.984   1.493 -0.7805 -0.2368  0.0016
18659TIP3    H177392   5.973   0.905   1.468 -0.8705  0.3827 -1.8968
18659TIP3    H277393   6.104   0.951   1.529 -0.5643 -1.2078 -1.3299
18660TIP3   OH277394   0.342   0.290   1.157 -0.4391  0.1140  0.2985
18660TIP3    H177395   0.364   0.216   1.101  1.0455  1.6026 -1.1436
18660TIP3    H277396   0.291   0.348   1.101 -0.3522  0.8541  0.9722
18661TIP3   OH277397   2.807   0.644  15.113  0.2244 -0.0717 -0.0425
18661TIP3    H177398   2.783   0.661  15.204  2.5693 -0.0453  0.6047
18661TIP3    H277399   2.850   0.724  15.084  1.6255 -0.9549 -0.4109
18662TIP3   OH277400   3.778   4.561   2.828  0.0240 -0.2722 -1.1218
18662TIP3    H177401   3.817   4.524   2.908 -0.0647  1.3864 -0.2857
18662TIP3    H277402   3.695   4.515   2.819 -1.0427  1.1154  1.0667
18663TIP3   OH277403   3.010   4.096   1.383 -0.5876 -0.0614  0.2397
18663TIP3    H177404   2.918   4.102   1.357 -0.1917  1.8921 -0.8602
18663TIP3    H277405   3.042   4.017   1.341 -0.8394  1.2222 -2.4749
18664TIP3   OH277406   2.285   2.023   2.715  0.0875 -0.2199  0.0467
18664TIP3    H177407   2.237   2.066   2.644 -2.7806 -0.2377  1.8712
18664TIP3    H277408   2.272   2.081   2.790  1.3092 -1.2359  1.0624
18665TIP3   OH277409   1.181   4.422   4.752  0.0253 -0.5444 -0.2199
18665TIP3    H177410   1.245   4.419   4.823  1.1557  1.2907 -1.1161
18665TIP3    H277411   1.116   4.486   4.781  1.1388  1.1320 -1.3226
18666TIP3   OH277412   0.001   3.907   4.124 -0.0573 -0.1249 -0.0670
18666TIP3    H177413   0.042   3.908   4.038 -0.8859 -1.2758 -0.4939
18666TIP3    H277414   0.073   3.921   4.186  0.8196 -1.1411 -0.8475
18667TIP3   OH277415   4.562   5.155   4.473  0.4556  0.6760  0.1662
18667TIP3    H177416   4.645   5.202   4.477 -0.6125  2.6221  0.1700
18667TIP3    H277417   4.500   5.218   4.435 -1.2112 -0.4206  0.9638
18668TIP3   OH277418   3.952   6.041  14.252 -0.2376 -0.2580 -0.6573
18668TIP3    H177419   3.944   6.086  14.336  0.9082  1.2850 -1.3505
18668TIP3    H277420   3.966   5.949  14.275  0.6706  0.2446  0.8687
18669TIP3   OH277421   0.400   6.732  13.605  0.1376  0.1185 -0.3964
18669TIP3    H177422   0.400   6.664  13.537 -0.0685  0.7398 -1.0235
18669TIP3    H277423   0.346   6.802  13.568 -0.7436  0.0817  0.8013
18670TIP3   OH277424   6.633   2.115   5.520  0.6437  0.0160 -0.5945
18670TIP3    H177425   6.660   2.031   5.484 -2.3234 -0.7315 -1.2375
18670TIP3    H277426   6.651   2.108   5.614 -0.9541 -1.9512 -0.3953
18671TIP3   OH277427   5.307   3.474   3.823 -0.1941 -0.7718  0.5790
18671TIP3    H177428   5.273   3.429   3.746  0.6911  0.1161 -0.3516
18671TIP3    H277429   5.244   3.544   3.841 -0.4059 -0.9857  0.6724
18672TIP3   OH277430   2.771   3.058   5.036  0.2690 -0.1504  0.2109
18672TIP3    H177431   2.728   3.063   4.951  0.9154  0.8421 -0.0647
18672TIP3    H277432   2.701   3.076   5.100 -0.3626 -1.5708 -0.0517
18673TIP3   OH277433   4.329   6.171  12.880 -0.3680 -0.2128  0.0536
18673TIP3    H177434   4.285   6.255  12.891  0.6048  0.4547 -0.9718
18673TIP3    H277435   4.420   6.188  12.903  0.7303  0.0750 -4.0563
18674TIP3   OH277436   2.163   0.065  10.583  0.4667  0.5203  0.0942
18674TIP3    H177437   2.249   0.026  10.566  0.1591 -0.2314  0.2183
18674TIP3    H277438   2.163   0.147  10.534  1.4305  0.7452  0.4794
18675TIP3   OH277439   5.462   2.655   3.180 -0.3860  0.0026  0.3258
18675TIP3    H177440   5.459   2.648   3.084 -2.7761  0.0025  0.3762
18675TIP3    H277441   5.498   2.571   3.209  0.1872 -0.0642 -0.5616
18676TIP3   OH277442   6.075   1.885  15.044  0.8114  0.0437  0.3301
18676TIP3    H177443   6.032   1.853  15.123 -0.4417  0.2724 -0.2562
18676TIP3    H277444   6.154   1.929  15.076  0.4334 -0.0714  1.4257
18677TIP3   OH277445   3.919   1.506   1.932 -0.2051  0.7469 -0.0406
18677TIP3    H177446   4.013   1.492   1.920 -0.8973 -3.7731 -1.3486
18677TIP3    H277447   3.901   1.475   2.020 -0.9505 -1.9220 -1.0718
18678TIP3   OH277448   5.171   5.444  13.624 -0.1303  0.4215  0.2535
18678TIP3    H177449   5.084   5.414  13.600 -0.4431  1.0300  0.6141
18678TIP3    H277450   5.230   5.376  13.591 -0.6077  0.8126 -1.4804
18679TIP3   OH277451   1.314   0.159  13.219 -0.1861 -0.1356  0.3884
18679TIP3    H177452   1.325   0.249  13.186 -0.6720 -0.0217  0.5389
18679TIP3    H277453   1.220   0.146  13.223 -0.1616  0.0683  2.3001
18680TIP3   OH277454   6.308   0.969   5.753  0.0068  0.1492  0.2266
18680TIP3    H177455   6.226   0.921   5.766  0.5503 -0.8908 -0.0901
18680TIP3    H277456   6.281   1.054   5.717 -0.8649 -0.5893 -0.8968
18681TIP3   OH277457   4.827   0.820  14.147  0.2082 -0.1678  0.1736
18681TIP3    H177458   4.874   0.894  14.186 -0.4634 -0.8566  2.3471
18681TIP3    H277459   4.736   0.832  14.175 -0.4674 -0.2713 -1.8543
18682TIP3   OH277460   2.682   4.640  15.724 -0.4310 -0.1686  0.5419
18682TIP3    H177461   2.723   4.592  15.795 -0.4496 -0.5610  0.2908
18682TIP3    H277462   2.623   4.577  15.683  1.1224 -0.6023 -1.1315
18683TIP3   OH277463   4.418   1.059  14.651  0.2671  0.9377  0.3757
18683TIP3    H177464   4.343   1.088  14.598  1.3458  2.3909 -0.4031
18683TIP3    H277465   4.449   0.980  14.607 -0.0485  1.0330 -0.0196
18684TIP3   OH277466   3.479   0.974  14.287 -0.0743 -0.3835 -0.4456
18684TIP3    H177467   3.389   0.982  14.318  0.6280  1.0675  1.2711
18684TIP3    H277468   3.525   0.927  14.356  0.2226 -2.2765 -1.8891
18685TIP3   OH277469   4.030   0.106  10.105 -0.0694  0.3330  0.0028
18685TIP3    H177470   4.049   0.073  10.193  2.0241 -0.1020 -0.5742
18685TIP3    H277471   3.947   0.065  10.081  0.5841 -1.5376  0.8158
18686TIP3   OH277472   6.771   2.351  17.205 -0.3770 -0.5783  0.2968
18686TIP3    H177473   6.762   2.439  17.168 -1.4448 -0.4775  0.7662
18686TIP3    H277474   6.685   2.311  17.192  0.9326 -2.6303 -2.5603
18687TIP3   OH277475   5.347   5.130  14.351  0.8485  0.0021  0.4181
18687TIP3    H177476   5.389   5.202  14.398  1.0647  0.4910 -0.5166
18687TIP3    H277477   5.395   5.123  14.269  0.4440 -0.8199  0.2416
18688TIP3   OH277478   6.509   6.590   3.114 -0.6782 -0.2642 -0.4102
18688TIP3    H177479   6.509   6.501   3.078 -0.7265 -0.5616  0.3132
18688TIP3    H277480   6.427   6.628   3.081 -0.4639 -0.3487 -1.0507
18689TIP3   OH277481   4.779   4.958  15.495  0.0158 -0.3572  0.1272
18689TIP3    H177482   4.814   4.998  15.416  1.1368 -0.4200  0.5772
18689TIP3    H277483   4.737   5.031  15.542  0.5549 -0.0429  0.1280
18690TIP3   OH277484   1.682   5.481  12.556  0.2127 -0.6115  0.0297
18690TIP3    H177485   1.615   5.414  12.570  1.2232 -1.1576  2.4933
18690TIP3    H277486   1.753   5.435  12.511  0.1352 -0.7291  0.0253
18691TIP3   OH277487   4.834   2.985  11.960 -0.1845 -0.0691  0.9119
18691TIP3    H177488   4.800   2.902  11.994  0.0213 -0.8616 -0.7644
18691TIP3    H277489   4.925   2.988  11.991 -0.0630 -0.6815  0.6349
18692TIP3   OH277490   2.928   2.156  13.782  0.4577  0.2425  0.2999
18692TIP3    H177491   2.902   2.072  13.820  1.1395 -0.2851 -0.4010
18692TIP3    H277492   3.019   2.168  13.808  0.6188  0.3650 -0.3051
18693TIP3   OH277493   4.159   2.336  13.614 -0.0348  0.5770  0.3918
18693TIP3    H177494   4.068   2.363  13.603  0.1718  1.0567 -0.1234
18693TIP3    H277495   4.153   2.252  13.661 -0.8054 -0.2276 -1.1237
18694TIP3   OH277496   0.150   1.553   3.684 -0.0554 -0.7612  0.0913
18694TIP3    H177497   0.062   1.519   3.668 -0.0992  0.5575 -3.0059
18694TIP3    H277498   0.208   1.492   3.639  0.5547 -1.2182  1.4908
18695TIP3   OH277499   4.074   2.702   5.411 -0.4276 -0.1775 -0.3598
18695TIP3    H177500   4.007   2.651   5.458 -1.7415  0.6132 -1.3372
18695TIP3    H277501   4.072   2.788   5.451 -0.0803 -0.1142 -0.4743
18696TIP3   OH277502   2.788   6.759   4.084 -0.2748  0.2517 -0.5191
18696TIP3    H177503   2.711   6.703   4.087  0.6104 -1.0277 -1.1318
18696TIP3    H277504   2.800   6.789   4.174 -0.0738 -1.4995  0.0500
18697TIP3   OH277505   2.850   0.252   5.369 -0.1617  0.1796 -0.2992
18697TIP3    H177506   2.897   0.168   5.371 -1.1208 -0.3387  0.5122
18697TIP3    H277507   2.920   0.318   5.370  0.5496 -0.5753  2.0191
18698TIP3   OH277508   0.033   1.184   3.867  0.2519  0.0900  0.4126
18698TIP3    H177509   0.044   1.279   3.862  1.0932  0.1504  2.7125
18698TIP3    H277510  -0.037   1.165   3.806  0.9188  2.0375 -1.0275
18699TIP3   OH277511   0.091   1.135  14.395  0.5077  0.2450 -0.1259
18699TIP3    H177512   0.018   1.191  14.369  0.1292  0.5031  1.4278
18699TIP3    H277513   0.098   1.147  14.490  0.9585 -1.7056  0.1180
18700TIP3   OH277514   3.126   3.954   3.336  0.2026 -0.0328  0.1778
18700TIP3    H177515   3.060   3.933   3.269  1.1245  0.8734 -1.0384
18700TIP3    H277516   3.207   3.965   3.287  1.2913 -1.1600  1.6625
18701TIP3   OH277517   5.340   5.282  11.513 -0.2707  0.3766 -0.1213
18701TIP3    H177518   5.250   5.252  11.526 -0.4813  1.6509  1.4465
18701TIP3    H277519   5.390   5.201  11.503 -1.4271 -0.3738  0.0606
18702TIP3   OH277520   1.353   6.393   4.170  0.1809 -0.0754 -0.1896
18702TIP3    H177521   1.433   6.341   4.159 -0.3641 -0.7179 -1.2624
18702TIP3    H277522   1.295   6.336   4.221  0.2694  0.2416  0.2665
18703TIP3   OH277523   1.119   2.929   0.613 -0.0361 -0.5659  0.1503
18703TIP3    H177524   1.034   2.887   0.625  0.5310 -1.7931 -0.1071
18703TIP3    H277525   1.108   3.015   0.654 -1.0764 -1.0983  1.0351
18704TIP3   OH277526   5.920   2.115   5.726  0.6020 -0.4317  0.4634
18704TIP3    H177527   5.826   2.131   5.718  0.2284 -2.9808 -0.7064
18704TIP3    H277528   5.936   2.118   5.820 -0.8328 -0.8966  0.7410
18705TIP3   OH277529   4.360   4.757  11.381 -0.4853  0.3234  0.1627
18705TIP3    H177530   4.316   4.836  11.413 -2.3942  0.2662 -2.1860
18705TIP3    H277531   4.352   4.762  11.286  2.6375 -0.8645 -0.2230
18706TIP3   OH277532   5.432   3.944   5.673  0.1114  0.7416  0.5558
18706TIP3    H177533   5.445   3.906   5.759  0.2783 -1.0333 -0.2399
18706TIP3    H277534   5.401   3.872   5.618  0.0631  1.8235 -0.8903
18707TIP3   OH277535   3.725   5.340   4.888 -0.3855  0.0691 -0.0922
18707TIP3    H177536   3.650   5.300   4.844 -0.9942  2.9191 -1.7605
18707TIP3    H277537   3.801   5.310   4.839 -0.5553 -1.3844  0.5041
18708TIP3   OH277538   4.235   0.981  11.045 -0.2161 -0.1603 -0.0707
18708TIP3    H177539   4.162   0.997  11.105 -0.4536 -0.1009 -0.3726
18708TIP3    H277540   4.212   0.899  11.002 -0.6390  0.4133 -0.9574
18709TIP3   OH277541   4.802   5.895   2.795  0.1122 -0.0146 -0.3929
18709TIP3    H177542   4.800   5.826   2.728 -1.2388  2.9822 -3.5667
18709TIP3    H277543   4.865   5.959   2.761  2.2128 -0.1369  3.0494
18710TIP3   OH277544   6.322   5.533  14.241  0.7527  0.0205  0.3392
18710TIP3    H177545   6.359   5.511  14.155  0.2853 -0.8185  0.3548
18710TIP3    H277546   6.359   5.619  14.261 -0.2787  0.8915 -1.3684
18711TIP3   OH277547   3.456   3.981   5.515  0.7871 -0.3731 -0.1444
18711TIP3    H177548   3.364   4.008   5.518  1.3360  1.5819 -0.3983
18711TIP3    H277549   3.469   3.931   5.596  0.0957  1.3182  1.0419
18712TIP3   OH277550   5.642   5.491   2.688 -0.0827 -0.4727 -0.5632
18712TIP3    H177551   5.675   5.577   2.662 -0.8037  0.1771  0.6630
18712TIP3    H277552   5.716   5.432   2.672  0.6639  0.4835 -0.7080
18713TIP3   OH277553   5.158   0.980   1.720 -0.1335  0.0211  0.3529
18713TIP3    H177554   5.150   1.075   1.729 -0.2973  0.0098  0.3275
18713TIP3    H277555   5.107   0.958   1.642  2.0094  0.2196 -1.1504
18714TIP3   OH277556   0.221   4.980  14.339 -0.0952  0.2656 -0.1670
18714TIP3    H177557   0.236   4.945  14.427 -0.1139 -0.0318 -0.2857
18714TIP3    H277558   0.127   5.001  14.337 -0.2760 -0.5671 -0.4283
18715TIP3   OH277559   5.069   2.660   2.077  0.1337  0.2682  0.1571
18715TIP3    H177560   5.121   2.665   1.996  0.9421  2.0643  0.7804
18715TIP3    H277561   5.003   2.729   2.068 -0.9302 -0.7208  0.2443
18716TIP3   OH277562   1.807   4.022  11.802 -0.1864  0.0344  0.3933
18716TIP3    H177563   1.826   4.115  11.785  0.0059 -0.0744  0.0037
18716TIP3    H277564   1.871   3.975  11.748 -1.6896 -0.3461 -1.0823
18717TIP3   OH277565   5.767   1.029   4.180  0.0136 -1.0471 -0.2576
18717TIP3    H177566   5.757   0.975   4.258 -1.5820 -1.9883 -1.0795
18717TIP3    H277567   5.804   0.970   4.114  2.7763  0.1224  0.1764
18718TIP3   OH277568   5.760   1.345  11.755  0.0447 -0.6295 -0.3327
18718TIP3    H177569   5.815   1.423  11.763 -1.1100  0.2051 -0.5685
18718TIP3    H277570   5.816   1.282  11.709  1.5567 -0.5257  1.2974
18719TIP3   OH277571   2.071   4.061  11.401  0.3063  0.1918 -0.6203
18719TIP3    H177572   2.135   4.048  11.330  0.8568 -0.9804  0.0788
18719TIP3    H277573   1.987   4.040  11.360  0.9105 -3.5630 -0.1822
18720TIP3   OH277574   6.024   4.615  15.961 -0.4891  0.0486 -0.6594
18720TIP3    H177575   6.076   4.695  15.951 -2.7500  1.7932  0.7743
18720TIP3    H277576   5.948   4.630  15.905 -0.7705 -1.2493 -0.6304
18721TIP3   OH277577   2.261   6.597  15.595  0.0744  0.2543 -0.0680
18721TIP3    H177578   2.287   6.523  15.649  0.3130  1.4917  1.5417
18721TIP3    H277579   2.239   6.558  15.510  0.9761 -1.5480  0.5018
18722TIP3   OH277580   5.573   3.507  11.787 -0.3044  0.3035 -0.2918
18722TIP3    H177581   5.629   3.476  11.858 -0.9054  0.6082  0.3222
18722TIP3    H277582   5.633   3.522  11.714  0.0199 -2.1080 -0.5474
18723TIP3   OH277583   0.594   0.869   1.192 -0.2153 -0.1580 -0.5065
18723TIP3    H177584   0.633   0.803   1.249  0.0281 -0.6904 -1.2688
18723TIP3    H277585   0.616   0.953   1.232 -0.5574 -0.5418  0.4947
18724TIP3   OH277586   1.726   0.068  12.535  0.1661  0.3088 -0.0537
18724TIP3    H177587   1.664   0.064  12.608 -0.7724  0.9125 -0.8031
18724TIP3    H277588   1.744   0.161  12.524 -0.3993  0.2916 -1.1715
18725TIP3   OH277589   0.630   2.732   1.535 -0.6375 -0.6626 -0.2827
18725TIP3    H177590   0.693   2.736   1.464 -0.3377  0.7240  0.0553
18725TIP3    H277591   0.571   2.805   1.520 -0.1427  0.0918  1.2973
18726TIP3   OH277592   0.940   0.037   0.059 -0.0123  0.1722  0.1020
18726TIP3    H177593   0.936   0.076  -0.028 -2.4050  3.1839  1.5000
18726TIP3    H277594   0.908  -0.053   0.046 -0.4303  0.6078 -2.0807
18727TIP3   OH277595   2.856   1.250   1.684 -0.3016 -0.2522 -0.0976
18727TIP3    H177596   2.861   1.183   1.751  1.8247 -2.9522 -2.8176
18727TIP3    H277597   2.947   1.271   1.664 -0.9131  2.2432 -0.5283
18728TIP3   OH277598   1.670   1.934   2.095  0.6410 -0.0422 -0.2535
18728TIP3    H177599   1.652   1.983   2.175  1.2378 -0.6086  0.2356
18728TIP3    H277600   1.603   1.866   2.092  0.6029 -0.0046 -0.2417
18729TIP3   OH277601   3.005   5.655   4.545  0.2915  0.2565  0.3809
18729TIP3    H177602   3.085   5.624   4.501 -0.2363  0.2250 -0.5740
18729TIP3    H277603   3.013   5.750   4.544 -0.3901  0.3232 -1.1094
18730TIP3   OH277604   1.388   4.655  13.098 -0.8068 -0.2891  0.3147
18730TIP3    H177605   1.473   4.611  13.098 -0.5674  0.1575 -0.5963
18730TIP3    H277606   1.370   4.674  13.006 -0.1485  2.9524  0.7934
18731TIP3   OH277607   4.589   0.864  13.886 -0.1265 -0.2954  0.6810
18731TIP3    H177608   4.536   0.857  13.807  2.1424  0.1287 -0.9328
18731TIP3    H277609   4.530   0.838  13.957 -2.5656  0.4804 -0.9896
18732TIP3   OH277610   1.990   0.308   6.297  0.3036 -0.1040  0.3379
18732TIP3    H177611   1.988   0.362   6.218 -0.2143 -0.5596  0.0268
18732TIP3    H277612   1.997   0.370   6.369  1.4829  0.2796 -0.1030
18733TIP3   OH277613   2.808   0.329  15.477 -0.0151 -0.3526  0.2602
18733TIP3    H177614   2.785   0.239  15.498  1.2516 -1.3286 -2.3032
18733TIP3    H277615   2.845   0.364  15.557 -2.3190 -1.4692  1.8652
18734TIP3   OH277616   4.030   6.123  12.687 -0.3724 -0.0021 -0.0712
18734TIP3    H177617   3.992   6.043  12.722 -0.1035 -0.3233 -0.5136
18734TIP3    H277618   4.108   6.139  12.740 -0.7350  0.2797  0.3865
18735TIP3   OH277619   3.651   6.508   0.732 -0.3374  0.6095 -0.7811
18735TIP3    H177620   3.586   6.445   0.701  0.3191 -0.8673  0.7580
18735TIP3    H277621   3.716   6.511   0.662 -0.2743 -0.5769 -0.7895
18736TIP3   OH277622   4.896   1.997  14.062 -0.0469  0.3428  0.4272
18736TIP3    H177623   4.903   2.082  14.107  1.1285  1.6301 -2.1132
18736TIP3    H277624   4.803   1.987  14.045  0.0110  2.1502 -1.1116
18737TIP3   OH277625   4.496   5.818  15.318 -0.1661 -0.1850 -0.5925
18737TIP3    H177626   4.510   5.907  15.286 -0.5678  0.4232  0.8602
18737TIP3    H277627   4.532   5.818  15.407 -1.1141 -1.1630 -0.1794
18738TIP3   OH277628   4.599   0.137  13.346  0.2416 -0.4290 -0.3668
18738TIP3    H177629   4.537   0.159  13.277 -0.6366  1.3146  0.9511
18738TIP3    H277630   4.660   0.210  13.348 -0.4421  0.1049  1.4937
18739TIP3   OH277631   6.758   3.630  11.473  0.1550 -0.5131  0.1959
18739TIP3    H177632   6.676   3.673  11.447  0.9066  0.0223 -1.2933
18739TIP3    H277633   6.781   3.575  11.399  0.8581 -1.1002  0.8413
18740TIP3   OH277634   3.858   3.555  12.319 -0.3194 -0.0998 -0.0871
18740TIP3    H177635   3.790   3.539  12.384 -0.0672 -2.2906 -0.3260
18740TIP3    H277636   3.939   3.530  12.363  0.1389  0.8115 -0.4064
18741TIP3   OH277637   4.584   4.117   4.072 -0.2362 -0.0646 -0.5360
18741TIP3    H177638   4.615   4.050   4.011  1.7768  0.1887  0.1722
18741TIP3    H277639   4.489   4.120   4.058  0.0606 -0.7367 -2.9029
18742TIP3   OH277640   1.968   6.358   1.333  0.3230  0.1821  0.0406
18742TIP3    H177641   1.916   6.435   1.356  0.9977  0.2003  1.5998
18742TIP3    H277642   2.009   6.331   1.416  0.0783 -1.8698 -0.4768
18743TIP3   OH277643   0.172   5.344  11.285 -0.2682  0.2267  0.6312
18743TIP3    H177644   0.249   5.385  11.324 -1.3965  2.1656  0.9181
18743TIP3    H277645   0.197   5.324  11.195  0.3965  1.3715  0.5515
18744TIP3   OH277646   2.788   0.235  12.087 -0.5952 -0.4086  0.1255
18744TIP3    H177647   2.752   0.319  12.114  1.3423  0.6466 -0.4738
18744TIP3    H277648   2.716   0.192  12.040 -1.5871  0.9254  0.4019
18745TIP3   OH277649   4.788   0.257  14.698  0.2453  0.2100  0.4519
18745TIP3    H177650   4.703   0.275  14.739 -0.1252  0.6423 -0.5070
18745TIP3    H277651   4.830   0.343  14.690  1.7535 -0.2084  2.9892
18746TIP3   OH277652   0.090   6.720  13.352  0.3001  0.1378 -0.4922
18746TIP3    H177653   0.106   6.698  13.260 -0.2006 -1.0587 -0.3095
18746TIP3    H277654  -0.004   6.711  13.363  0.4550 -0.6412  0.3494
18747TIP3   OH277655   6.385   5.119  13.394  0.0116 -0.0363  0.3654
18747TIP3    H177656   6.319   5.052  13.414 -1.0878  0.6209 -0.9504
18747TIP3    H277657   6.360   5.194  13.447 -0.6234  0.3847 -0.5092
18748TIP3   OH277658   1.035   2.591  10.760  0.3216  0.2894  0.0292
18748TIP3    H177659   1.061   2.681  10.740  0.6924 -0.2874 -2.2796
18748TIP3    H277660   0.959   2.575  10.703 -0.2510 -0.6015  1.0188
18749TIP3   OH277661   0.496   0.118   4.584  1.1309  0.3794  0.3835
18749TIP3    H177662   0.511   0.080   4.498  1.1483  0.8942  0.1583
18749TIP3    H277663   0.452   0.049   4.634 -1.7700  1.1443 -1.0006
18750TIP3   OH277664   2.708   1.549  11.878 -0.1666 -0.4133 -0.1548
18750TIP3    H177665   2.667   1.563  11.793  0.6661  1.1126 -0.3363
18750TIP3    H277666   2.667   1.470  11.913 -1.4047 -0.3421 -1.4277
18751TIP3   OH277667   2.037   4.089   4.802  0.2221  0.2906 -0.1648
18751TIP3    H177668   2.107   4.147   4.770 -0.3222  0.7435 -0.5405
18751TIP3    H277669   1.972   4.149   4.839  0.2809 -0.1633  0.6845
18752TIP3   OH277670   2.223   0.238  17.218 -0.6482 -0.3293  0.1018
18752TIP3    H177671   2.206   0.146  17.238 -0.7542 -0.3676 -0.1640
18752TIP3    H277672   2.136   0.274  17.199 -0.7892  0.1525  1.5460
18753TIP3   OH277673   0.620   0.776  12.540 -0.4917 -0.3180 -0.0565
18753TIP3    H177674   0.623   0.686  12.509 -0.1626  0.4933 -2.4174
18753TIP3    H277675   0.672   0.826  12.478 -1.9492  1.7728  0.3282
18754TIP3   OH277676   5.553   4.983  16.464 -0.0978  0.6419 -0.0470
18754TIP3    H177677   5.614   5.046  16.426 -0.2936  0.3898 -0.7798
18754TIP3    H277678   5.591   4.961  16.549  1.2510 -0.1434 -0.8411
18755TIP3   OH277679   3.238   3.892  14.431 -0.0296 -0.7236 -0.2721
18755TIP3    H177680   3.328   3.896  14.399 -0.7128 -0.1556 -2.2032
18755TIP3    H277681   3.190   3.950  14.372 -1.8334 -1.7921  0.1259
18756TIP3   OH277682   3.540   5.430   4.406  0.0028  0.2292  0.7165
18756TIP3    H177683   3.537   5.385   4.491 -2.2271  0.9190  1.0234
18756TIP3    H277684   3.523   5.361   4.342  0.5751 -0.0883  0.9002
18757TIP3   OH277685   3.582   4.561  13.308 -0.1304 -0.5010  0.0785
18757TIP3    H177686   3.610   4.560  13.216 -0.1122 -0.9537  0.0863
18757TIP3    H277687   3.494   4.598  13.306  0.6877  1.5110  0.1207
18758TIP3   OH277688   0.426   4.772  12.774 -0.3525 -0.4661  0.4928
18758TIP3    H177689   0.379   4.804  12.696 -1.5636  0.0970  1.4336
18758TIP3    H277690   0.384   4.688  12.794 -0.6474 -0.1789  1.0712
18759TIP3   OH277691   6.773   3.662   2.045 -0.6385  0.3902  0.0474
18759TIP3    H177692   6.725   3.725   2.098  0.2333  0.1256  1.1974
18759TIP3    H277693   6.733   3.577   2.066 -1.3089  0.4604 -0.9143
18760TIP3   OH277694   5.449   1.364   0.703  0.2841  0.3727 -0.3874
18760TIP3    H177695   5.377   1.413   0.664 -0.0714  0.2411  0.1081
18760TIP3    H277696   5.488   1.316   0.630  0.5624  1.2966 -0.8576
18761TIP3   OH277697   2.723   6.104  12.105 -0.2783 -0.1683  0.0163
18761TIP3    H177698   2.749   6.021  12.064  1.7725  0.5823 -0.2481
18761TIP3    H277699   2.657   6.079  12.169 -0.7173 -1.8335 -1.0471
18762TIP3   OH277700   4.766   3.078  15.845  0.4497  0.1936  0.0955
18762TIP3    H177701   4.837   3.064  15.783 -1.2304 -1.2215 -1.5622
18762TIP3    H277702   4.764   3.173  15.858  0.6827  0.5487 -2.2083
18763TIP3   OH277703   1.967   0.397  15.244  0.1114  0.7322 -0.4963
18763TIP3    H177704   1.959   0.467  15.308  0.1987  0.8293 -0.5922
18763TIP3    H277705   2.050   0.414  15.200  0.4662  0.1867 -0.0554
18764TIP3   OH277706   2.510   1.798   1.185  0.3112 -0.1071 -0.6295
18764TIP3    H177707   2.498   1.887   1.152  0.2635  0.6493  1.3741
18764TIP3    H277708   2.557   1.809   1.268  0.9886 -2.0010 -0.7426
18765TIP3   OH277709   5.162   0.695   3.726  0.3480  0.2989  0.1896
18765TIP3    H177710   5.079   0.650   3.711  0.6594 -0.1772 -0.1821
18765TIP3    H277711   5.194   0.660   3.809  0.5739 -0.1486 -0.0832
18766TIP3   OH277712   1.644   1.049   3.217  0.1662 -0.2052 -0.5462
18766TIP3    H177713   1.672   1.076   3.129  0.9411 -1.0662 -0.5788
18766TIP3    H277714   1.654   1.127   3.271  1.2091 -0.0992 -0.8878
18767TIP3   OH277715   2.659   4.787   3.462 -0.1953  0.7596 -0.2209
18767TIP3    H177716   2.685   4.758   3.375  0.0604  1.5595 -0.4177
18767TIP3    H277717   2.593   4.854   3.446  0.1152  1.1671  0.1864
18768TIP3   OH277718   6.518   3.051  12.513  0.1235 -0.0015  0.3518
18768TIP3    H177719   6.564   3.069  12.595  1.0320  1.3665 -0.4224
18768TIP3    H277720   6.579   2.996  12.463  0.0470  0.0928  0.1505
18769TIP3   OH277721   0.787   4.795  13.827 -1.0847  0.1443  0.0570
18769TIP3    H177722   0.848   4.857  13.867 -1.4141  0.9171 -0.6353
18769TIP3    H277723   0.832   4.764  13.749 -0.6959 -0.9098  0.6905
18770TIP3   OH277724   6.320   5.956  12.076 -0.0368  0.2455 -0.3246
18770TIP3    H177725   6.356   5.950  11.988 -0.0315 -0.4107 -0.2752
18770TIP3    H277726   6.265   5.878  12.085 -0.5060  0.6133  0.0371
18771TIP3   OH277727   3.577   0.429  11.247 -0.5800 -0.2665 -0.0619
18771TIP3    H177728   3.592   0.372  11.322  0.8933 -0.6854 -0.6541
18771TIP3    H277729   3.634   0.394  11.179 -0.7404  1.0533 -0.8870
18772TIP3   OH277730   0.891   3.129   6.068  0.2094  0.7097 -0.1388
18772TIP3    H177731   0.834   3.053   6.061 -0.6916  1.3318  0.3140
18772TIP3    H277732   0.936   3.118   6.151  0.2389  0.5655 -0.1734
18773TIP3   OH277733   1.612   3.856  17.112 -0.3153  0.0092 -0.3017
18773TIP3    H177734   1.639   3.850  17.020  1.7733  0.6510  0.2345
18773TIP3    H277735   1.678   3.912  17.152 -3.0543  2.4996  0.8969
18774TIP3   OH277736   0.912   6.457  12.638 -0.7071 -0.4618  0.0488
18774TIP3    H177737   0.900   6.536  12.691 -1.6190 -0.1981 -0.5314
18774TIP3    H277738   0.913   6.386  12.702  1.1374  0.0917  0.6599
18775TIP3   OH277739   6.393   0.315   3.865  0.4656  0.0225 -0.1026
18775TIP3    H177740   6.340   0.236   3.856  0.4146  0.0983 -0.4851
18775TIP3    H277741   6.352   0.379   3.807  0.4652  0.3556  0.2596
18776TIP3   OH277742   4.762   0.201   2.844 -0.5709  0.1578 -0.0800
18776TIP3    H177743   4.753   0.196   2.939 -2.3366 -0.6297 -0.2687
18776TIP3    H277744   4.856   0.193   2.829 -0.3830 -0.9334  1.5298
18777TIP3   OH277745   1.798   5.481  14.424 -0.5007  0.3460 -0.2467
18777TIP3    H177746   1.786   5.445  14.511  0.2304 -0.6052 -0.5354
18777TIP3    H277747   1.796   5.576  14.436  0.0514  0.2162  0.8563
18778TIP3   OH277748   4.085   4.491   1.722  0.1733  0.1913 -0.2760
18778TIP3    H177749   4.056   4.566   1.774  0.2616  1.0224 -1.4107
18778TIP3    H277750   4.141   4.440   1.782 -0.0127  0.9471  0.5412
18779TIP3   OH277751   3.359   3.244   2.850 -0.1928  0.6773  0.4790
18779TIP3    H177752   3.433   3.294   2.882  0.2658 -0.7954  1.7764
18779TIP3    H277753   3.379   3.153   2.874 -2.3200  0.2379  0.6863
18780TIP3   OH277754   6.434   4.305   0.664 -0.0790 -0.0977  0.4878
18780TIP3    H177755   6.460   4.397   0.650 -0.5484 -0.0931 -0.3566
18780TIP3    H277756   6.384   4.307   0.745 -1.6944  0.7097 -0.5050
18781TIP3   OH277757   0.293   2.651   3.495 -0.0545 -0.3861 -0.4709
18781TIP3    H177758   0.235   2.576   3.481 -0.1573 -0.6654  1.3279
18781TIP3    H277759   0.291   2.665   3.590  2.7628 -0.3668 -0.3904
18782TIP3   OH277760   4.412   6.411  16.647 -0.0694  0.0128 -0.2820
18782TIP3    H177761   4.373   6.325  16.638 -0.0179 -0.1129  0.6449
18782TIP3    H277762   4.391   6.456  16.565 -3.2494  0.3895  0.6641
18783TIP3   OH277763   6.625   1.541   1.889  0.1083 -0.5051  0.0573
18783TIP3    H177764   6.681   1.531   1.966 -1.8758 -0.5029  1.5674
18783TIP3    H277765   6.675   1.597   1.830  1.6796 -0.4933  1.3563
18784TIP3   OH277766   5.082   4.974   5.799 -0.0162 -0.0147  0.0161
18784TIP3    H177767   5.147   4.995   5.733  0.5286  0.7998  0.8042
18784TIP3    H277768   5.049   4.888   5.773 -1.9811  1.5610 -3.0019
18785TIP3   OH277769   0.732   1.141  13.386 -0.1424 -0.1619 -0.8935
18785TIP3    H177770   0.695   1.127  13.474  0.1328 -1.4349 -0.9695
18785TIP3    H277771   0.822   1.168  13.402  0.5570 -2.4195 -0.7931
18786TIP3   OH277772   2.160   2.527   6.055 -1.0633  0.3576 -0.0929
18786TIP3    H177773   2.087   2.471   6.079 -0.6693 -0.2300 -0.2411
18786TIP3    H277774   2.238   2.474   6.074 -0.6638  1.1927  0.6181
18787TIP3   OH277775   5.840   6.387  16.868  0.1532 -0.4495 -0.3351
18787TIP3    H177776   5.823   6.298  16.899 -0.5229 -0.2821 -0.2309
18787TIP3    H277777   5.798   6.391  16.782  1.2417 -0.6224 -0.8824
18788TIP3   OH277778   4.896   2.772   4.674 -0.0443 -0.0067 -0.6046
18788TIP3    H177779   4.954   2.705   4.638  0.2522 -0.4017  0.5726
18788TIP3    H277780   4.878   2.743   4.763 -1.5185  0.4741 -0.7403
18789TIP3   OH277781   3.069   5.163  12.904  0.6489 -0.2140  0.1537
18789TIP3    H177782   3.104   5.173  12.992  1.7677  1.4125 -0.4466
18789TIP3    H277783   3.138   5.196  12.847 -0.0062 -1.3944 -1.3451
18790TIP3   OH277784   1.241   3.107  11.235 -0.1065  0.3702 -0.2827
18790TIP3    H177785   1.278   3.194  11.216 -0.6994  0.8283  0.6085
18790TIP3    H277786   1.159   3.126  11.281  0.5756 -0.6677  1.3942
18791TIP3   OH277787   6.375   5.626   0.710 -0.8242  0.2587  0.1388
18791TIP3    H177788   6.430   5.637   0.632  1.7805 -1.3924  1.6569
18791TIP3    H277789   6.335   5.540   0.700  1.4159 -1.0360  1.6537
18792TIP3   OH277790   0.249   0.980   3.751 -0.0768 -0.7186 -0.4356
18792TIP3    H177791   0.186   1.004   3.818  0.3397  1.2851 -0.7186
18792TIP3    H277792   0.196   0.964   3.673 -0.4622 -1.9514  0.0618
18793TIP3   OH277793   4.291   6.204   0.472 -0.0828 -0.5185 -0.2956
18793TIP3    H177794   4.353   6.250   0.529 -1.4189  0.4899  0.3619
18793TIP3    H277795   4.316   6.229   0.383 -0.1301  0.6301  0.0122
18794TIP3   OH277796   1.476   2.032  12.668  0.3195  0.0610 -0.0170
18794TIP3    H177797   1.551   2.074  12.624 -0.2536  1.4206  0.2697
18794TIP3    H277798   1.498   2.037  12.761  0.6642 -1.1102 -0.0350
18795TIP3   OH277799   2.711   1.536   5.274  0.0448  0.2157 -0.0967
18795TIP3    H177800   2.634   1.539   5.330  1.2001  0.3138  1.5419
18795TIP3    H277801   2.702   1.455   5.224 -1.7997  0.9297 -0.9565
18796TIP3   OH277802   6.747   6.612  12.732  0.0191 -0.0653  0.1595
18796TIP3    H177803   6.821   6.640  12.676 -1.0017 -0.2426 -1.3117
18796TIP3    H277804   6.690   6.563  12.673 -1.0275 -0.3811  1.4199
18797TIP3   OH277805   5.671   5.340  12.379  0.2717 -0.0824 -0.0251
18797TIP3    H177806   5.607   5.290  12.327 -1.2937 -0.1568  1.9366
18797TIP3    H277807   5.718   5.273  12.428  0.1617  0.1566  0.4059
18798TIP3   OH277808   0.664   2.269   1.959  0.8137 -0.3519 -0.7232
18798TIP3    H177809   0.593   2.272   1.895 -0.7458  2.0904  1.0392
18798TIP3    H277810   0.713   2.350   1.945 -0.0104  0.5913  1.6225
18799TIP3   OH277811   0.764   2.064   3.515  0.6336  0.9730 -0.0774
18799TIP3    H177812   0.706   2.095   3.446  1.6607  3.0023 -0.0995
18799TIP3    H277813   0.750   2.125   3.588  2.4813  1.3256  0.0230
18800TIP3   OH277814   5.457   1.042   6.086  0.1063  0.0515  0.3041
18800TIP3    H177815   5.550   1.066   6.086  0.0905  0.1214  0.5602
18800TIP3    H277816   5.411   1.126   6.092  0.0349  0.0024  0.4721
18801TIP3   OH277817   4.282   2.223   5.113 -0.4096  0.2664  0.5064
18801TIP3    H177818   4.334   2.284   5.166 -0.0468 -0.2946  0.7971
18801TIP3    H277819   4.192   2.254   5.122 -0.5556 -0.6857  2.6424
18802TIP3   OH277820   4.908   3.249  16.099  0.9382  0.3232 -0.2709
18802TIP3    H177821   4.956   3.296  16.167  1.3031  2.5847 -2.0573
18802TIP3    H277822   4.964   3.252  16.022 -0.5808  0.0353 -1.4230
18803TIP3   OH277823   4.884   5.161  15.353  0.2174 -0.2515 -0.1334
18803TIP3    H177824   4.911   5.253  15.356 -0.8381  0.0312  2.3764
18803TIP3    H277825   4.962   5.114  15.321  1.1638  1.3879 -0.2727
18804TIP3   OH277826   6.077   3.975   3.777  0.0215 -0.2018 -0.0011
18804TIP3    H177827   6.143   4.002   3.840  1.0510 -0.7734 -0.8259
18804TIP3    H277828   6.112   3.896   3.736 -1.0713 -0.3980 -0.6005
18805TIP3   OH277829   5.280   4.046   1.119  0.0112 -0.0561 -0.0845
18805TIP3    H177830   5.366   4.071   1.085  0.8588 -2.0077  0.5586
18805TIP3    H277831   5.295   3.963   1.164 -1.6546  1.0196  2.5742
18806TIP3   OH277832   0.571   0.950   0.533  0.5525  0.0411 -0.0739
18806TIP3    H177833   0.629   0.881   0.565 -0.4927 -0.2421  1.2666
18806TIP3    H277834   0.602   1.029   0.578 -0.7807 -0.3170  1.5210
18807TIP3   OH277835   3.625   4.069   5.315  0.0580  0.1204 -0.0943
18807TIP3    H177836   3.579   4.033   5.390  1.5220  0.5950  1.0566
18807TIP3    H277837   3.699   4.010   5.301  0.8062  1.0398 -0.0327
18808TIP3   OH277838   3.556   4.403  14.985  0.0526 -0.0611  0.5720
18808TIP3    H177839   3.503   4.339  15.034 -1.7451  0.5995 -0.4744
18808TIP3    H277840   3.509   4.486  14.996  1.4921  0.7765  0.5440
18809TIP3   OH277841   5.505   0.564   5.562 -0.5694  0.0969 -0.2376
18809TIP3    H177842   5.415   0.568   5.594 -1.2676 -0.7367 -2.0382
18809TIP3    H277843   5.506   0.620   5.485  0.9617  1.6644  0.8815
18810TIP3   OH277844   2.287   4.032   3.074  0.2561  0.3075 -0.4270
18810TIP3    H177845   2.193   4.016   3.080  0.6023 -2.0110 -0.6874
18810TIP3    H277846   2.315   3.982   2.997  1.7513  0.7108 -0.1665
18811TIP3   OH277847   2.508   5.601   5.230  0.4647 -0.6729 -0.0951
18811TIP3    H177848   2.529   5.694   5.237 -1.3720 -0.2367  0.0065
18811TIP3    H277849   2.507   5.570   5.320 -0.6040 -0.3888 -0.0059
18812TIP3   OH277850   5.679   3.776  12.198  0.2533  0.2518 -0.7735
18812TIP3    H177851   5.733   3.729  12.134 -0.3817 -0.7007 -0.6203
18812TIP3    H277852   5.741   3.805  12.265  0.7575  0.2857 -1.2498
18813TIP3   OH277853   1.439   5.640  16.291  0.2510  0.1957  0.3394
18813TIP3    H177854   1.519   5.694  16.298  1.4968 -1.3717 -1.4863
18813TIP3    H277855   1.457   5.580  16.220 -1.6447 -1.8118  1.5158
18814TIP3   OH277856   2.088   2.663  14.865 -0.2341 -0.4287  0.3432
18814TIP3    H177857   2.105   2.667  14.772  1.2575  0.8310  0.6636
18814TIP3    H277858   2.117   2.575  14.891  1.7601  0.1355  0.0856
18815TIP3   OH277859   4.976   1.118  16.286  0.0439 -0.4773 -0.6533
18815TIP3    H177860   4.985   1.195  16.230  0.7736 -0.8143 -0.9988
18815TIP3    H277861   5.038   1.134  16.358  0.1817 -0.7367 -0.7142
18816TIP3   OH277862   3.876   2.215  17.090  0.3547 -0.1916  0.4110
18816TIP3    H177863   3.789   2.253  17.082  0.6494  0.3793 -0.2304
18816TIP3    H277864   3.868   2.127  17.054 -0.3694 -0.7991  2.0237
18817TIP3   OH277865   6.621   4.797   3.739 -0.0592  0.4211 -0.5205
18817TIP3    H177866   6.578   4.874   3.704 -0.9013 -0.5387 -1.6541
18817TIP3    H277867   6.638   4.818   3.831 -2.6182  0.9597 -0.1402
18818TIP3   OH277868   1.674   1.013   1.111 -0.2289 -0.0972  0.2691
18818TIP3    H177869   1.636   1.012   1.199 -0.5025  1.5876  0.1834
18818TIP3    H277870   1.675   1.105   1.087  0.1888 -0.5208 -1.3533
18819TIP3   OH277871   4.853   5.236  16.322 -0.5239  0.2927  0.0646
18819TIP3    H177872   4.793   5.241  16.248 -0.3500  2.0400  0.0164
18819TIP3    H277873   4.848   5.145  16.352  1.4085 -1.1827 -3.7380
18820TIP3   OH277874   0.228   3.558   6.763  0.1412 -0.1041 -0.2356
18820TIP3    H177875   0.224   3.643   6.718 -0.4941  0.4111  0.7622
18820TIP3    H277876   0.309   3.518   6.733  0.1335  0.5849 -1.2025
18821TIP3   OH277877   5.707   2.997   2.216  0.2956  0.3467 -0.6670
18821TIP3    H177878   5.676   2.907   2.215 -0.5639  0.6358 -2.8832
18821TIP3    H277879   5.630   3.049   2.193  0.7564  1.6722  0.6932
18822TIP3   OH277880   0.898   5.961   4.015  0.2978  0.3812 -0.1509
18822TIP3    H177881   0.886   5.979   4.108  2.7791  0.1299  0.2506
18822TIP3    H277882   0.832   5.894   3.995  0.6576 -0.5997  1.7774
18823TIP3   OH277883   3.992   2.929   3.037  0.4164  0.3751  0.6754
18823TIP3    H177884   4.035   2.921   2.953 -3.4244  1.2629 -1.5008
18823TIP3    H277885   3.962   2.840   3.057  2.8334 -0.1847  2.0487
18824TIP3   OH277886   0.699   5.866   3.356  0.2345 -0.8243 -0.2515
18824TIP3    H177887   0.734   5.887   3.270 -1.4687  2.0148 -0.3302
18824TIP3    H277888   0.605   5.852   3.342  0.1822 -1.7790  0.9169
18825TIP3   OH277889   2.259   2.861   4.895  0.4434  0.3268 -0.7052
18825TIP3    H177890   2.241   2.933   4.834  1.7557  1.9709  0.8059
18825TIP3    H277891   2.173   2.839   4.931  0.1245  1.7720 -0.5151
18826TIP3   OH277892   4.739   2.984  13.610  0.3974  0.0169 -0.0091
18826TIP3    H177893   4.674   2.946  13.669  0.5458 -0.4118 -0.1235
18826TIP3    H277894   4.765   2.912  13.553 -0.4104  0.6657 -1.1995
18827TIP3   OH277895   5.581   4.174  13.209  0.1440 -0.0349  0.1558
18827TIP3    H177896   5.660   4.153  13.258 -0.8008 -2.7383  0.5960
18827TIP3    H277897   5.521   4.209  13.274 -0.6348 -2.3693  0.7406
18828TIP3   OH277898   0.572   4.756   0.823 -0.6372 -0.1188 -0.2386
18828TIP3    H177899   0.489   4.792   0.793  0.1881  0.7783 -1.4785
18828TIP3    H277900   0.552   4.719   0.909 -1.2296  4.6904  1.8762
18829TIP3   OH277901   5.324   3.175  11.920 -0.0573 -0.3479 -0.6379
18829TIP3    H177902   5.387   3.175  11.849  0.3773 -1.4433 -0.2565
18829TIP3    H277903   5.340   3.093  11.967  0.6595  1.0168  1.5905
18830TIP3   OH277904   0.692   0.676  11.376 -1.0693 -0.0381 -0.4536
18830TIP3    H177905   0.699   0.637  11.289 -2.1317 -1.3839  0.0583
18830TIP3    H277906   0.742   0.757  11.369 -2.7453  0.8724 -2.9038
18831TIP3   OH277907   0.107   0.686   2.290  0.3568 -0.2739  0.4755
18831TIP3    H177908   0.198   0.684   2.260  0.2745  1.3389  0.0632
18831TIP3    H277909   0.092   0.776   2.317 -1.1584 -0.4894  0.4286
18832TIP3   OH277910   6.200   0.730   0.358 -0.0077 -0.0959 -0.2991
18832TIP3    H177911   6.236   0.647   0.328  1.3477  1.0456 -1.8658
18832TIP3    H277912   6.117   0.705   0.400  0.7610 -2.3136 -0.0188
18833TIP3   OH277913   6.563   3.987  12.079 -0.8199  0.3269  0.1134
18833TIP3    H177914   6.499   4.002  12.149 -0.8851  1.9227 -0.2775
18833TIP3    H277915   6.518   4.016  11.999  0.3828  1.4671 -0.1634
18834TIP3   OH277916   3.347   3.576  17.143 -0.0420 -0.6309  0.0323
18834TIP3    H177917   3.384   3.652  17.187 -3.3408  1.2110 -0.2636
18834TIP3    H277918   3.310   3.523  17.214  0.4078 -0.9195  0.0525
18835TIP3   OH277919   1.269   1.137  13.058 -0.1235 -0.0693  0.0502
18835TIP3    H177920   1.263   1.119  12.964  0.4242 -0.8048  0.1566
18835TIP3    H277921   1.333   1.074  13.090 -0.4656  0.0478  0.9571
18836TIP3   OH277922   0.940   1.180  11.451  0.2088  0.4633  0.3636
18836TIP3    H177923   1.020   1.232  11.456  0.4019 -0.0033  2.3693
18836TIP3    H277924   0.915   1.166  11.542 -1.5125 -0.3981 -0.2263
18837TIP3   OH277925   1.617   1.132   2.543  0.0963  0.1983  0.2790
18837TIP3    H177926   1.604   1.122   2.637 -1.0472 -0.3173  0.0734
18837TIP3    H277927   1.707   1.105   2.528  0.1437 -0.1331  1.1644
18838TIP3   OH277928   1.207   5.886  13.514 -0.1921  0.1873 -0.2873
18838TIP3    H177929   1.294   5.914  13.544 -1.0932  2.1729  0.5858
18838TIP3    H277930   1.157   5.874  13.595 -1.5214  1.7651 -0.8445
18839TIP3   OH277931   0.614   6.140   0.600 -0.7093  0.0476 -0.4298
18839TIP3    H177932   0.538   6.096   0.636 -0.0342 -2.1087 -1.5511
18839TIP3    H277933   0.625   6.102   0.512  0.0908  2.2190 -1.3218
18840TIP3   OH277934   0.624   3.946   3.889 -0.4207 -0.1376 -0.1760
18840TIP3    H177935   0.543   3.934   3.839  0.4712  0.2772 -1.7813
18840TIP3    H277936   0.656   3.857   3.905  0.1353 -0.2627 -1.8269
18841TIP3   OH277937   2.736   4.009  15.039 -0.4377 -0.2840 -0.0637
18841TIP3    H177938   2.783   3.949  15.097  0.4188  0.7243  0.2892
18841TIP3    H277939   2.790   4.088  15.037 -1.3170  0.3032 -0.9057
18842TIP3   OH277940   3.774   1.464  17.152  0.4936  0.5393  0.2348
18842TIP3    H177941   3.869   1.470  17.141  0.6257  0.0228  1.1295
18842TIP3    H277942   3.759   1.472  17.246 -0.2882 -0.2596  0.1893
18843TIP3   OH277943   5.935   0.584   5.675 -0.2641 -0.2934 -0.2463
18843TIP3    H177944   5.857   0.577   5.730  0.3896 -0.7659  0.6465
18843TIP3    H277945   5.968   0.494   5.669  1.6594  0.2518  1.5491
18844TIP3   OH277946   1.531   6.473   1.150 -0.3407  0.3403 -0.0780
18844TIP3    H177947   1.461   6.526   1.190 -1.4081 -0.6349 -0.6210
18844TIP3    H277948   1.494   6.445   1.066  0.6314 -0.3691 -0.2738
18845TIP3   OH277949   0.987   6.093  11.109  0.1297 -0.0936 -0.4417
18845TIP3    H177950   1.034   6.080  11.026  1.8545  1.0620  0.3365
18845TIP3    H277951   1.001   6.011  11.157  1.3194  0.2512 -0.2153
18846TIP3   OH277952   5.299   3.265  16.944 -0.4718  0.2416 -0.5397
18846TIP3    H177953   5.280   3.207  17.018  4.4567 -2.7273 -1.4147
18846TIP3    H277954   5.332   3.345  16.984  0.4353 -0.6516  0.5250
18847TIP3   OH277955   4.445   4.151   0.902 -0.1584 -0.2592  0.2909
18847TIP3    H177956   4.486   4.218   0.848  1.2877 -0.1660  1.4452
18847TIP3    H277957   4.380   4.198   0.954 -0.4055 -0.0617 -0.2022
18848TIP3   OH277958   4.262   3.739  13.133 -0.2160 -0.0200 -0.1903
18848TIP3    H177959   4.296   3.650  13.148  0.8327  0.6993  1.9226
18848TIP3    H277960   4.175   3.726  13.097 -0.3950 -1.9131  0.8776
18849TIP3   OH277961   5.261   0.715  12.490 -0.2790 -0.2570 -0.0389
18849TIP3    H177962   5.278   0.661  12.567 -0.5424  0.5115  0.5623
18849TIP3    H277963   5.330   0.691  12.428 -0.1043 -0.9189  0.4112
18850TIP3   OH277964   1.656   6.233  14.130 -1.2526 -0.1683 -0.1011
18850TIP3    H177965   1.704   6.316  14.129 -0.0199 -0.8629 -1.4840
18850TIP3    H277966   1.635   6.218  14.222  0.5249  0.5478  0.4469
18851TIP3   OH277967   1.341   0.661   2.779 -1.0692  0.4464 -0.4118
18851TIP3    H177968   1.414   0.677   2.840 -0.8797  0.0204 -0.5185
18851TIP3    H277969   1.342   0.566   2.767 -0.5949  0.6064 -1.7212
18852TIP3   OH277970   2.885   2.676  12.512  0.3873  0.3399  0.2510
18852TIP3    H177971   2.977   2.701  12.521  0.8286 -0.7245 -1.1880
18852TIP3    H277972   2.852   2.676  12.601  1.8449  0.5087  0.8088
18853TIP3   OH277973   3.359   4.598  10.757  0.5585 -0.4277 -0.2248
18853TIP3    H177974   3.364   4.587  10.851  0.9803 -1.5917 -0.3733
18853TIP3    H277975   3.300   4.529  10.727 -1.6094  1.5262 -0.5513
18854TIP3   OH277976   2.463   6.592  16.509  0.0622 -0.1950 -0.4570
18854TIP3    H177977   2.514   6.612  16.430 -0.7153  0.5784 -0.7724
18854TIP3    H277978   2.427   6.677  16.536 -0.9369 -0.7058 -0.1561
18855TIP3   OH277979   4.081   6.667   0.129  0.2265  0.5303  0.1367
18855TIP3    H177980   3.995   6.681   0.091  0.2501  0.8515  0.1958
18855TIP3    H277981   4.125   6.752   0.122  0.7699  0.2030 -0.4707
18856TIP3   OH277982   0.641   0.571   1.096  0.5527  0.1748 -0.0213
18856TIP3    H177983   0.547   0.589   1.086  0.5517  0.6001  0.7240
18856TIP3    H277984   0.683   0.636   1.040  0.3952 -0.1822 -0.5596
18857TIP3   OH277985   6.488   3.839   0.326  0.2927 -0.1765 -0.0584
18857TIP3    H177986   6.403   3.882   0.311 -0.4982 -1.2396  1.3030
18857TIP3    H277987   6.467   3.761   0.377  2.0908 -0.5286  0.1724
18858TIP3   OH277988   1.682   0.529   2.895  0.2585 -0.2717 -0.5462
18858TIP3    H177989   1.764   0.489   2.923  0.3235 -0.6189 -1.2350
18858TIP3    H277990   1.649   0.573   2.974  1.1319 -0.0798 -0.2861
18859TIP3   OH277991   3.413   0.686   2.455  0.5876 -0.6935  0.0463
18859TIP3    H177992   3.502   0.682   2.490  0.0886 -0.4398  1.4194
18859TIP3    H277993   3.378   0.598   2.468  1.3248 -1.3726 -2.4393
18860TIP3   OH277994   4.758   6.049   1.370 -0.1440  0.1711  0.5127
18860TIP3    H177995   4.715   6.132   1.389  0.8108  1.4080 -2.4837
18860TIP3    H277996   4.850   6.064   1.394  0.3727  0.5839 -1.6760
18861TIP3   OH277997   5.480   4.554   1.227 -0.0037  0.0617  0.8570
18861TIP3    H177998   5.564   4.593   1.247  0.6148 -0.4500 -0.6702
18861TIP3    H277999   5.494   4.460   1.238 -0.7138  0.0584  1.7869
18862TIP3   OH278000   6.201   6.449   2.989 -0.3581  0.3389  0.4194
18862TIP3    H178001   6.181   6.509   2.917  0.6223  0.3089  0.1220
18862TIP3    H278002   6.246   6.376   2.948  2.7377  1.6187  1.4340
18863TIP3   OH278003   3.719   1.497  16.892 -0.2644 -0.7639 -0.1956
18863TIP3    H178004   3.739   1.407  16.865  0.9149 -0.2474 -1.1428
18863TIP3    H278005   3.741   1.499  16.985 -0.9524 -1.6302 -0.0021
18864TIP3   OH278006   4.474   4.887   1.055 -0.6028  0.1417 -0.1701
18864TIP3    H178007   4.439   4.956   1.111 -1.3996 -0.9529  0.6765
18864TIP3    H278008   4.552   4.926   1.015  0.0826  0.8434  1.8405
18865TIP3   OH278009   2.637   0.755   5.588  0.5163  0.3708 -0.1005
18865TIP3    H178010   2.722   0.763   5.544  0.8241 -0.5817  0.3097
18865TIP3    H278011   2.658   0.762   5.681  0.3751 -1.6131  0.0970
18866TIP3   OH278012   5.094   0.856   4.021  0.8302  0.6161 -0.2217
18866TIP3    H178013   5.050   0.772   4.027 -0.5725  1.3446 -0.2310
18866TIP3    H278014   5.050   0.902   3.950  0.5318  1.9862  0.8293
18867TIP3   OH278015   1.812   1.014  14.599  1.1947  0.5216 -0.1338
18867TIP3    H178016   1.738   1.037  14.655 -1.6866 -1.7027 -2.8549
18867TIP3    H278017   1.846   1.098  14.569  0.9535  1.6419  2.5900
18868TIP3   OH278018   3.172   3.279  16.802 -0.2184  0.2596  0.5208
18868TIP3    H178019   3.241   3.236  16.751  0.5400  0.8542  1.0258
18868TIP3    H278020   3.208   3.366  16.821 -0.9318  0.4190  1.1557
18869TIP3   OH278021   3.283   0.358   2.586 -0.2908  0.4021 -0.1570
18869TIP3    H178022   3.269   0.263   2.592  2.1828 -0.0195 -0.7747
18869TIP3    H278023   3.342   0.378   2.658 -1.0544  1.5479  0.1602
18870TIP3   OH278024   3.001   2.367   4.979 -0.0152  0.4036  0.5706
18870TIP3    H178025   3.068   2.304   4.950 -0.9929 -0.1277 -0.5684
18870TIP3    H278026   2.955   2.322   5.050 -0.2133  0.1278  0.2698
18871TIP3   OH278027   4.299   5.128   4.196  0.2425 -0.0310 -0.0875
18871TIP3    H178028   4.359   5.064   4.157 -1.5583 -2.1200  0.4833
18871TIP3    H278029   4.351   5.172   4.264  1.9839  0.3012 -1.6001
18872TIP3   OH278030   0.376   0.527  13.908  0.4778 -0.9379  0.2749
18872TIP3    H178031   0.459   0.537  13.956 -0.6083 -0.9065  2.2079
18872TIP3    H278032   0.363   0.433  13.902 -0.1626 -0.9344  1.4583
18873TIP3   OH278033   2.574   6.150   3.430 -0.1156  0.2810 -1.2747
18873TIP3    H178034   2.615   6.068   3.403  1.7230  0.9070 -0.4859
18873TIP3    H278035   2.624   6.218   3.385 -1.1082  1.0151 -1.2878
18874TIP3   OH278036   5.220   5.871  16.923  0.2411 -0.3105 -0.1592
18874TIP3    H178037   5.280   5.833  16.989 -2.0871 -0.2245  2.0853
18874TIP3    H278038   5.135   5.875  16.968 -1.2149  0.5792 -2.9240
18875TIP3   OH278039   0.310   5.639   1.068  0.4461  0.0096 -0.1549
18875TIP3    H178040   0.363   5.607   0.995  2.0012 -0.1281  0.9985
18875TIP3    H278041   0.221   5.643   1.033  0.9585 -1.2422 -1.6781
18876TIP3   OH278042   5.023   3.627   5.331 -0.0330 -0.0387 -0.4292
18876TIP3    H178043   5.049   3.653   5.242  0.1897  1.4066  0.0411
18876TIP3    H278044   5.087   3.670   5.388 -0.7969 -0.1042  0.4890
18877TIP3   OH278045   0.186   0.572   1.923 -0.0524 -0.5698  0.1592
18877TIP3    H178046   0.206   0.543   1.834  2.6817 -1.1053  0.9264
18877TIP3    H278047   0.154   0.493   1.967  2.6218 -1.3392  0.8131
18878TIP3   OH278048   5.195   3.148  10.811  0.2231 -0.0029 -0.6746
18878TIP3    H178049   5.235   3.061  10.810 -0.4270 -0.3513  1.1007
18878TIP3    H278050   5.246   3.199  10.749  1.6742 -1.2063 -0.4982
18879TIP3   OH278051   3.661   2.901   3.351 -0.2401 -0.7554  0.4394
18879TIP3    H178052   3.720   2.834   3.385 -0.3146 -0.2600  1.5888
18879TIP3    H278053   3.660   2.968   3.420  0.6650  0.9162 -1.1333
18880TIP3   OH278054   3.683   5.755  15.468  0.6074 -0.5779  0.3050
18880TIP3    H178055   3.703   5.712  15.551 -0.8268  0.6857  1.3346
18880TIP3    H278056   3.654   5.684  15.410  0.9806 -1.3787  1.0884
18881TIP3   OH278057   1.199   2.441   3.177  0.0146 -0.2795  0.3029
18881TIP3    H178058   1.270   2.442   3.241 -2.2303 -4.1536  3.0990
18881TIP3    H278059   1.131   2.496   3.216  0.1774  0.6824 -0.7493
18882TIP3   OH278060   6.430   2.789  11.052 -0.5452 -0.1483  0.7028
18882TIP3    H178061   6.390   2.858  11.106  1.2043  0.5852  1.0844
18882TIP3    H278062   6.356   2.746  11.009 -1.8134  0.5986  2.1028
18883TIP3   OH278063   6.239   5.157  15.323  0.2657 -0.2202 -0.6803
18883TIP3    H178064   6.264   5.246  15.347 -1.8211  0.2275 -0.0941
18883TIP3    H278065   6.193   5.166  15.240  2.4287 -1.0925 -1.9989
18884TIP3   OH278066   5.410   0.760  16.919  0.0693 -0.5314  0.2847
18884TIP3    H178067   5.459   0.795  16.993 -0.0697 -0.1718  0.2049
18884TIP3    H278068   5.319   0.784  16.936  0.5077  3.1007 -1.9873
18885TIP3   OH278069   0.657   3.692   2.455 -0.0448  0.2037 -0.2854
18885TIP3    H178070   0.716   3.616   2.449  1.1033  1.0469  0.1127
18885TIP3    H278071   0.665   3.735   2.370 -0.6468 -0.0792 -0.4879
18886TIP3   OH278072   3.245   3.370  14.857  0.1185  0.4207 -0.5312
18886TIP3    H178073   3.314   3.308  14.833  1.5247  2.4003 -1.7351
18886TIP3    H278074   3.292   3.449  14.883 -1.6108  0.7320  1.8344
18887TIP3   OH278075   4.501   5.707   0.037  0.2166 -0.0468  0.6632
18887TIP3    H178076   4.571   5.712  -0.028 -0.4083 -1.9572 -0.2037
18887TIP3    H278077   4.507   5.789   0.086  1.6480  0.7629 -0.8347
18888TIP3   OH278078   5.904   2.795   4.492  0.1627  0.2582 -0.3728
18888TIP3    H178079   5.950   2.877   4.510  0.7777  0.3257 -2.1457
18888TIP3    H278080   5.939   2.733   4.557 -0.4122  1.4118  1.0648
18889TIP3   OH278081   4.784   1.469  12.501 -0.0559  0.2653 -0.7055
18889TIP3    H178082   4.729   1.467  12.423  0.3051 -0.5102 -0.9476
18889TIP3    H278083   4.765   1.386  12.546 -1.1811  1.2455  0.6808
18890TIP3   OH278084   4.791   0.865   2.114  0.8254 -0.2793 -0.3078
18890TIP3    H178085   4.850   0.842   2.042  0.1783  0.4906 -1.0859
18890TIP3    H278086   4.732   0.930   2.078  0.8139  0.5028  1.0684
18891TIP3   OH278087   0.638   5.231   6.177  0.5111 -0.4198  0.2844
18891TIP3    H178088   0.610   5.200   6.263  0.4488 -1.3919 -0.0815
18891TIP3    H278089   0.609   5.322   6.174 -2.0529 -1.1986  0.1979
18892TIP3   OH278090   0.095   5.185  13.837 -0.6142  0.9786  0.0008
18892TIP3    H178091   0.049   5.136  13.769 -1.5256  1.3114  0.3722
18892TIP3    H278092   0.115   5.120  13.904 -1.8517  1.1003  0.5093
18893TIP3   OH278093   0.241   1.284   2.461  0.1533 -0.2362 -0.2437
18893TIP3    H178094   0.258   1.371   2.426 -0.3593 -0.2971 -0.6356
18893TIP3    H278095   0.328   1.250   2.483  0.3220  0.5682  0.3873
18894TIP3   OH278096   5.199   2.568   2.283  0.4059  0.1532  0.5118
18894TIP3    H178097   5.153   2.629   2.226 -0.3956 -0.8494  0.0478
18894TIP3    H278098   5.268   2.531   2.229 -0.0308 -0.4189  0.3391
18895TIP3   OH278099   4.796   4.113  16.124  0.5126 -0.4605 -0.1473
18895TIP3    H178100   4.829   4.047  16.185  1.3635 -0.5040 -0.6430
18895TIP3    H278101   4.702   4.098  16.120  0.3179  0.0692  1.7802
18896TIP3   OH278102   3.779   4.595   4.591  0.2012  0.3255 -0.3025
18896TIP3    H178103   3.782   4.687   4.565  0.3542  0.7021  1.0307
18896TIP3    H278104   3.785   4.547   4.508 -0.1280  1.5086 -1.0312
18897TIP3   OH278105   0.969   2.911   3.348  0.7949 -0.3182 -0.1118
18897TIP3    H178106   0.897   2.851   3.369 -0.3382  1.0350 -0.0971
18897TIP3    H278107   1.028   2.903   3.423 -0.8720  0.8931  1.3846
18898TIP3   OH278108   5.318   3.023   3.992  0.4347  0.0602  0.3805
18898TIP3    H178109   5.251   2.959   4.015  0.6400 -0.2480  0.1259
18898TIP3    H278110   5.341   3.002   3.901  2.4433 -1.2327  1.1419
18899TIP3   OH278111   3.383   0.878  15.016  0.4772 -0.1268  0.1488
18899TIP3    H178112   3.462   0.927  15.039  0.3416 -0.7058  1.9052
18899TIP3    H278113   3.415   0.806  14.961  0.9871  0.3942 -0.2539
18900TIP3   OH278114   4.108   2.061  11.910  0.4734 -0.2850  0.3358
18900TIP3    H178115   4.136   2.083  11.999  1.5716 -0.1477 -0.0326
18900TIP3    H278116   4.024   2.017  11.922 -0.2831  1.3755  1.2983
18901TIP3   OH278117   4.032   5.648  10.502  0.5359  0.1042 -0.6130
18901TIP3    H178118   4.096   5.594  10.547 -0.8094 -1.2045 -0.2102
18901TIP3    H278119   4.014   5.600  10.421 -0.7479 -0.1361 -0.2000
18902TIP3   OH278120   3.623   3.733   1.363  0.7463 -0.2635  0.2970
18902TIP3    H178121   3.712   3.758   1.338  0.2054  0.6544 -0.7367
18902TIP3    H278122   3.583   3.814   1.395  0.5352 -0.8454  1.5522
18903TIP3   OH278123   4.347   0.150  10.301  0.1256 -0.3293  0.1362
18903TIP3    H178124   4.348   0.193  10.387  0.1127 -0.1056  0.0241
18903TIP3    H278125   4.425   0.182  10.257  1.0519 -1.7564  0.7043
18904TIP3   OH278126   3.475   2.292   1.627 -0.1403 -0.0775 -0.1474
18904TIP3    H178127   3.551   2.233   1.620 -0.6986 -0.9073  0.7021
18904TIP3    H278128   3.471   2.315   1.719 -2.4517 -2.1181  0.3134
18905TIP3   OH278129   2.993   6.388  12.794  0.3909  0.1579  0.0429
18905TIP3    H178130   3.034   6.472  12.813  1.4514  0.2405 -2.3394
18905TIP3    H278131   2.905   6.410  12.765  0.6752  0.4815 -0.6045
18906TIP3   OH278132   2.969   3.202   3.626 -0.3021 -0.0576 -0.4655
18906TIP3    H178133   2.973   3.231   3.717 -2.7030  0.0398 -0.3740
18906TIP3    H278134   2.895   3.250   3.588  1.0161  0.3347 -2.6368
18907TIP3   OH278135   1.859   3.658  15.681 -0.8701 -0.0328 -0.3791
18907TIP3    H178136   1.811   3.582  15.647 -1.1843 -0.0278  0.0397
18907TIP3    H278137   1.883   3.708  15.603 -2.0317  0.2558 -0.5739
18908TIP3   OH278138   0.974   0.463  15.558  0.3850  0.9278 -0.0012
18908TIP3    H178139   1.015   0.548  15.569  0.2823  0.9958 -0.1507
18908TIP3    H278140   0.900   0.479  15.500  1.1772  0.4867 -1.1544
18909TIP3   OH278141   1.893   3.950   1.176 -0.2763 -0.1107 -0.3059
18909TIP3    H178142   1.965   3.924   1.119 -0.7998 -2.4596  0.0656
18909TIP3    H278143   1.843   3.870   1.191 -0.7958  0.6775  2.5422
18910TIP3   OH278144   1.730   1.493  16.458  0.1404  0.7942  0.2718
18910TIP3    H178145   1.660   1.553  16.483  0.0895  1.6600 -1.8170
18910TIP3    H278146   1.810   1.536  16.485 -0.0038  0.9164  0.5002
18911TIP3   OH278147   6.458   0.322   5.369  0.4362 -0.4124 -0.0274
18911TIP3    H178148   6.540   0.275   5.384 -0.0057 -0.6542  1.7661
18911TIP3    H278149   6.430   0.350   5.456 -1.5190 -0.5458 -0.5842
18912TIP3   OH278150   2.032   4.636  11.796 -0.2111  0.1964 -0.0626
18912TIP3    H178151   2.098   4.589  11.745 -1.6260 -0.8172 -0.9924
18912TIP3    H278152   2.076   4.716  11.825  1.0250  0.1487 -1.7586
18913TIP3   OH278153   0.414   6.184   0.319 -0.6658 -0.1742  0.3984
18913TIP3    H178154   0.480   6.115   0.312 -1.7032 -1.2095  0.5860
18913TIP3    H278155   0.464   6.265   0.330  0.5708 -0.8874  0.0900
18914TIP3   OH278156   4.901   4.361  12.636  0.1636  0.2605  0.3831
18914TIP3    H178157   4.848   4.299  12.686  1.0904  1.0453  2.3675
18914TIP3    H278158   4.990   4.327  12.643  0.1805 -0.2501 -1.7348
18915TIP3   OH278159   0.774   5.185   5.308  0.3876  0.4124  0.0365
18915TIP3    H178160   0.833   5.122   5.266  1.9833  1.7660  0.1729
18915TIP3    H278161   0.691   5.175   5.262  0.6372 -1.7357  0.0180
18916TIP3   OH278162   1.873   4.032   1.463  0.0244  0.1222 -0.2644
18916TIP3    H178163   1.913   4.119   1.470  0.2829  0.0761 -1.1297
18916TIP3    H278164   1.910   3.995   1.383  0.3838 -1.0435  0.4356
18917TIP3   OH278165   1.526   1.843   5.466  0.8823  0.3597 -0.1537
18917TIP3    H178166   1.590   1.796   5.521  0.8806  0.1204 -0.3591
18917TIP3    H278167   1.462   1.878   5.529  1.5454  1.1203  0.1182
18918TIP3   OH278168   2.525   3.588   0.178 -0.2994  0.3106  0.0321
18918TIP3    H178169   2.516   3.495   0.154  2.5361  0.0071  0.0085
18918TIP3    H278170   2.543   3.632   0.095  0.0543  0.6371  0.2834
18919TIP3   OH278171   3.277   2.572  14.002  0.4171  0.8466  0.2638
18919TIP3    H178172   3.195   2.621  13.999  0.9179  1.6503 -0.3015
18919TIP3    H278173   3.342   2.636  14.029  1.1909  0.6388 -1.0978
18920TIP3   OH278174   4.865   0.916  12.959 -0.3986 -0.3092  0.2642
18920TIP3    H178175   4.868   0.973  12.882 -0.4180 -0.4270  0.1761
18920TIP3    H278176   4.957   0.900  12.981 -0.3777 -1.4596 -0.6147
18921TIP3   OH278177   2.488   6.403   4.758 -0.3491 -0.0930  0.0922
18921TIP3    H178178   2.573   6.372   4.728 -1.0963 -2.1079 -0.0202
18921TIP3    H278179   2.473   6.484   4.710  1.8886  0.7347  0.7625
18922TIP3   OH278180   6.533   1.011  14.202  0.3051  0.8796  0.4429
18922TIP3    H178181   6.521   0.982  14.112  0.3015  0.2694  0.6420
18922TIP3    H278182   6.447   1.000  14.243  1.3019 -2.8775  1.6909
18923TIP3   OH278183   3.295   3.148   1.358 -0.3885 -0.7273 -0.2646
18923TIP3    H178184   3.353   3.224   1.350  0.0046 -0.6279  2.8950
18923TIP3    H278185   3.213   3.176   1.316 -0.2894  1.5135  0.9392
18924TIP3   OH278186   5.524   5.321  16.338 -0.2186 -0.3421 -0.3742
18924TIP3    H178187   5.571   5.281  16.411  1.7652  0.3251 -1.2467
18924TIP3    H278188   5.519   5.252  16.272 -2.8225 -1.2304  0.7176
18925TIP3   OH278189   2.563   4.156  12.053  0.6210 -0.0947 -0.1027
18925TIP3    H178190   2.504   4.199  12.114  1.8829 -1.1395  1.9301
18925TIP3    H278191   2.640   4.213  12.050  1.0093 -0.5990  0.1465
18926TIP3   OH278192   2.897   5.561  15.149 -0.6168 -0.0735 -0.7050
18926TIP3    H178193   2.984   5.521  15.154 -0.3558  0.2308 -2.4750
18926TIP3    H278194   2.861   5.552  15.237  1.1090 -0.4298 -0.0250
18927TIP3   OH278195   1.921   4.984   3.981 -0.3214 -0.2747 -0.1194
18927TIP3    H178196   1.939   4.890   3.980 -1.3591 -0.5007  0.8673
18927TIP3    H278197   1.977   5.018   4.051 -2.0789 -0.6407  1.5061
18928TIP3   OH278198   3.740   4.548   5.914 -0.1502  0.1093 -0.2415
18928TIP3    H178199   3.676   4.554   5.985 -1.2120 -0.6582 -1.1204
18928TIP3    H278200   3.696   4.498   5.846  0.9455  0.6319 -1.3579
18929TIP3   OH278201   5.882   3.380  15.662 -0.1846 -0.2463  0.3549
18929TIP3    H178202   5.823   3.441  15.620  0.5822  0.0569 -0.2933
18929TIP3    H278203   5.844   3.294  15.646 -0.0547 -0.1080 -0.6951
18930TIP3   OH278204   2.966   1.314   1.097  0.6543 -0.4179 -0.3510
18930TIP3    H178205   3.044   1.291   1.147 -0.9485 -1.3473  1.8026
18930TIP3    H278206   2.919   1.231   1.087 -1.1410  0.4938  0.3238
18931TIP3   OH278207   1.097   6.289   4.791 -0.0003  0.4632 -0.6920
18931TIP3    H178208   1.172   6.322   4.840 -0.7582  0.5966  0.3911
18931TIP3    H278209   1.134   6.257   4.709  0.9986  2.2114 -0.9454
18932TIP3   OH278210   0.915   4.426  12.070  0.0453  0.1710  0.0600
18932TIP3    H178211   0.849   4.480  12.026  1.8462  2.0435 -0.3959
18932TIP3    H278212   0.972   4.489  12.115  0.8904 -1.4753  1.3758
18933TIP3   OH278213   5.468   5.172  16.922 -0.1891  0.0447  0.1288
18933TIP3    H178214   5.414   5.220  16.859  0.1533  0.1295 -0.1048
18933TIP3    H278215   5.553   5.215  16.918  0.3451 -1.0607 -0.6512
18934TIP3   OH278216   3.033   5.356   4.668  0.3401  0.7356 -0.0283
18934TIP3    H178217   3.032   5.451   4.675  0.3099  1.0831 -3.7592
18934TIP3    H278218   2.957   5.334   4.615  1.0167 -1.2735 -0.2389
18935TIP3   OH278219   4.520   0.175   3.612 -1.0912  0.6523 -0.4840
18935TIP3    H178220   4.575   0.119   3.557  1.2055  2.6875 -0.3320
18935TIP3    H278221   4.493   0.118   3.684 -0.4602 -0.8066 -1.3735
18936TIP3   OH278222   3.668   3.476  15.856 -0.2749 -0.7966 -0.6168
18936TIP3    H178223   3.637   3.390  15.829  0.1650 -0.2279 -3.0053
18936TIP3    H278224   3.763   3.465  15.866 -0.4344 -1.0081  0.7921
18937TIP3   OH278225   1.444   3.782  12.057  0.4532  0.0953  0.4182
18937TIP3    H178226   1.422   3.741  11.974 -0.5808 -0.6413  1.0410
18937TIP3    H278227   1.512   3.845  12.035 -0.4303  0.5407 -1.1270
18938TIP3   OH278228   1.904   4.797  15.898  0.5244  0.0734 -0.0082
18938TIP3    H178229   1.930   4.705  15.906 -0.3174 -0.2110 -0.4258
18938TIP3    H278230   1.986   4.845  15.887  0.8885 -0.7647 -1.0414
18939TIP3   OH278231   0.688   2.335   0.296  0.4911 -0.1832 -0.2405
18939TIP3    H178232   0.715   2.374   0.213  2.4415 -0.2252  0.3536
18939TIP3    H278233   0.699   2.405   0.361 -0.4892 -0.3160  0.0790
18940TIP3   OH278234   2.795   5.396  12.438  0.0245  0.0763  0.0278
18940TIP3    H178235   2.878   5.361  12.408 -0.0300 -0.8527  0.9545
18940TIP3    H278236   2.747   5.417  12.358  1.3150  1.0361 -0.5042
18941TIP3   OH278237   3.723   1.263  14.704  0.0265 -0.4247 -0.1420
18941TIP3    H178238   3.814   1.270  14.734 -0.0155  0.2748 -0.1796
18941TIP3    H278239   3.690   1.353  14.706 -1.8285 -1.1071  3.4555
18942TIP3   OH278240   1.337   1.312  16.469  0.3402  0.2230  0.0573
18942TIP3    H178241   1.329   1.393  16.519 -1.4532 -0.0993  0.3153
18942TIP3    H278242   1.409   1.328  16.408  0.7271  1.6080  0.8657
18943TIP3   OH278243   5.593   6.282  14.304  0.0489 -0.0615 -0.4388
18943TIP3    H178244   5.596   6.191  14.335 -0.0759  0.0387 -0.1318
18943TIP3    H278245   5.529   6.282  14.233  1.4701 -0.6166 -1.7510
18944TIP3   OH278246   3.496   0.381   0.737  0.1554 -0.0420 -0.0704
18944TIP3    H178247   3.457   0.310   0.687 -1.1005  0.2496  0.4877
18944TIP3    H278248   3.445   0.385   0.818  0.8714  0.8175  0.3478
18945TIP3   OH278249   2.840   4.955  12.599 -0.4972 -0.1281  0.1794
18945TIP3    H178250   2.762   4.933  12.650 -0.8047 -0.7719 -0.5460
18945TIP3    H278251   2.833   4.899  12.521  0.3678  0.2676 -0.1800
18946TIP3   OH278252   6.510   6.445  16.117 -0.1887 -0.3036  0.8384
18946TIP3    H178253   6.519   6.381  16.047 -0.6523 -0.5267  0.9781
18946TIP3    H278254   6.473   6.522  16.075 -0.1266 -0.3100  0.7710
18947TIP3   OH278255   2.466   3.824   0.299  0.9700  0.2914 -0.5647
18947TIP3    H178256   2.496   3.737   0.273 -1.1069 -0.1354 -1.6389
18947TIP3    H278257   2.434   3.864   0.217 -0.6325  1.0138  0.4024
18948TIP3   OH278258   5.738   1.059   2.714 -0.6689  0.1122 -0.1769
18948TIP3    H178259   5.774   1.143   2.743 -2.0441 -0.3611  3.1150
18948TIP3    H278260   5.644   1.076   2.705 -0.6457 -0.5053 -1.7856
18949TIP3   OH278261   1.052   1.372   5.727  0.0118  0.0026 -0.2300
18949TIP3    H178262   0.986   1.380   5.796  0.8580 -1.3080  0.7304
18949TIP3    H278263   1.013   1.312   5.664 -0.2163  0.1993 -0.2809
18950TIP3   OH278264   5.555   5.598  13.447 -0.0676  0.4663 -0.9779
18950TIP3    H178265   5.630   5.606  13.507 -0.7245  1.3399 -0.2613
18950TIP3    H278266   5.556   5.506  13.420 -1.1555 -0.5836  2.2830
18951TIP3   OH278267   1.135   3.107   0.999 -0.1379  0.2002  0.8556
18951TIP3    H178268   1.073   3.142   0.935  0.8328 -1.0342 -0.7940
18951TIP3    H278269   1.168   3.184   1.045 -0.0200  1.2240 -0.8914
18952TIP3   OH278270   5.417   5.997  12.421 -0.2711 -0.3931 -0.1526
18952TIP3    H178271   5.330   5.970  12.448 -0.6731 -0.2372 -1.2839
18952TIP3    H278272   5.417   5.988  12.326  1.1916 -1.1278 -0.1064
18953TIP3   OH278273   4.652   1.289  12.870 -0.1800  0.6684 -0.0720
18953TIP3    H178274   4.603   1.276  12.789 -0.5919  1.1043  0.1027
18953TIP3    H278275   4.587   1.320  12.933  0.6142  2.9597 -0.3124
18954TIP3   OH278276   3.431   5.370  12.391 -0.3525  0.3449 -0.0871
18954TIP3    H178277   3.357   5.360  12.331  0.3581 -0.7463 -0.7765
18954TIP3    H278278   3.483   5.440  12.352  1.1625 -1.7016 -1.8437
18955TIP3   OH278279   4.757   3.612  13.038  0.1871  0.0715  0.3784
18955TIP3    H178280   4.676   3.601  12.989 -0.1387  1.6261  0.5660
18955TIP3    H278281   4.818   3.549  12.999 -0.5463  0.1991 -0.9705
18956TIP3   OH278282   1.654   5.372  12.270  0.1059  0.0468  0.2695
18956TIP3    H178283   1.612   5.406  12.191  0.6495  1.3428  0.5246
18956TIP3    H278284   1.596   5.302  12.300 -0.0723 -0.4971 -1.3024
18957TIP3   OH278285   1.545   4.689  14.686  0.5744 -0.4317  0.3889
18957TIP3    H178286   1.613   4.719  14.747 -0.2813  2.3019  0.0430
18957TIP3    H278287   1.462   4.711  14.729 -0.0648 -0.9089 -0.5789
18958TIP3   OH278288   5.594   1.829   0.563 -0.1714 -0.8131 -0.3031
18958TIP3    H178289   5.640   1.884   0.498  1.6981 -0.9806  0.8487
18958TIP3    H278290   5.535   1.775   0.510  2.1277 -1.7507 -2.0042
18959TIP3   OH278291   3.024   1.902   5.177 -0.1637  0.0372  0.1886
18959TIP3    H178292   2.929   1.888   5.179 -0.1704 -0.5380 -2.1986
18959TIP3    H278293   3.043   1.954   5.255 -2.3088 -0.6275  1.1854
18960TIP3   OH278294   4.394   3.462   5.211  0.3867 -0.2486  0.2546
18960TIP3    H178295   4.467   3.515   5.244  0.8605 -0.8909  0.2679
18960TIP3    H278296   4.420   3.438   5.122  1.0998 -2.0894  0.9320
18961TIP3   OH278297   3.091   6.671  11.098  0.4709 -0.8502  0.1386
18961TIP3    H178298   3.098   6.720  11.016 -0.5490 -1.6051 -0.4258
18961TIP3    H278299   3.005   6.696  11.134  1.1303 -0.1350  1.2447
18962TIP3   OH278300   3.232   2.723  15.493 -0.1877 -0.1322  0.9381
18962TIP3    H178301   3.328   2.728  15.496 -0.1718 -1.0729  2.5966
18962TIP3    H278302   3.203   2.782  15.562 -0.7790 -0.4732  0.9828
18963TIP3   OH278303   4.303   0.184   4.841  0.3755  0.5127 -0.4354
18963TIP3    H178304   4.230   0.226   4.888  0.6431 -1.6525  2.0427
18963TIP3    H278305   4.261   0.130   4.775 -0.2908 -0.5139  0.8044
18964TIP3   OH278306   6.039   1.061  10.904  0.5913  0.3291 -0.6112
18964TIP3    H178307   6.104   1.000  10.871 -2.2300 -2.1676 -1.8226
18964TIP3    H278308   6.020   1.119  10.830  0.5098  0.2220 -0.6746
18965TIP3   OH278309   2.286   0.507  14.842 -0.9671 -0.5480 -0.0246
18965TIP3    H178310   2.260   0.597  14.825  0.0126 -0.4711 -1.1603
18965TIP3    H278311   2.370   0.514  14.887 -0.5917 -0.9010 -0.6627
18966TIP3   OH278312   6.043   4.714   0.665  0.4610 -0.3995 -0.7428
18966TIP3    H178313   6.115   4.774   0.685 -0.4964  0.0636  1.5377
18966TIP3    H278314   5.966   4.771   0.661 -0.4802 -1.4316  1.5860
18967TIP3   OH278315   5.471   2.771  11.199  0.1394  0.1469 -0.3343
18967TIP3    H178316   5.473   2.739  11.108  0.2422 -1.2753  0.1475
18967TIP3    H278317   5.557   2.746  11.234 -0.2640 -0.1544  0.4326
18968TIP3   OH278318   0.486   5.065   1.826 -0.2334 -0.0306  0.1868
18968TIP3    H178319   0.540   5.055   1.748 -1.0830  1.4284 -0.6134
18968TIP3    H278320   0.456   4.977   1.846 -0.4602 -0.3488 -1.4731
18969TIP3   OH278321   1.931   0.269   0.511 -0.1930 -0.5344 -0.3411
18969TIP3    H178322   1.942   0.289   0.604 -0.0898 -0.6954 -0.3184
18969TIP3    H278323   1.997   0.322   0.467  1.0441 -1.8979 -0.1621
18970TIP3   OH278324   0.047   2.732  12.576 -0.0530  0.1273  0.5481
18970TIP3    H178325   0.010   2.772  12.497  1.3406 -0.8966 -0.6419
18970TIP3    H278326  -0.011   2.760  12.646 -0.5120  2.2058 -0.6352
18971TIP3   OH278327   4.781   6.055  16.296  0.1575  0.1373 -0.2684
18971TIP3    H178328   4.799   5.964  16.318  1.0770  0.5840  0.8635
18971TIP3    H278329   4.867   6.092  16.275  0.0493  1.2017  1.0781
18972TIP3   OH278330   0.751   5.599   2.761 -0.0788  0.3888 -0.4373
18972TIP3    H178331   0.662   5.614   2.729 -0.9722 -0.9265  1.3428
18972TIP3    H278332   0.775   5.682   2.802 -2.0565 -0.4316  2.5940
18973TIP3   OH278333   3.417   4.118   1.422  0.0047  0.5335 -0.2136
18973TIP3    H178334   3.479   4.185   1.391 -0.7313  1.1491 -0.3765
18973TIP3    H278335   3.467   4.067   1.486  0.7838  0.8120 -0.5850
18974TIP3   OH278336   5.724   0.297   4.629 -0.0189  0.5142 -0.5885
18974TIP3    H178337   5.770   0.351   4.565  0.2303 -2.2112 -2.8198
18974TIP3    H278338   5.790   0.277   4.695  0.9497 -0.1527 -1.7392
18975TIP3   OH278339   3.262   3.862  11.308 -0.5798  0.0200 -0.5343
18975TIP3    H178340   3.277   3.881  11.215  0.2362 -2.2668 -0.8824
18975TIP3    H278341   3.254   3.767  11.312 -0.4399  0.0965  1.7712
18976TIP3   OH278342   4.807   3.420   2.287 -0.5859  0.4790  0.2646
18976TIP3    H178343   4.852   3.445   2.207 -1.8373  0.2543 -0.5289
18976TIP3    H278344   4.747   3.493   2.305 -0.0972  0.6688  1.1724
18977TIP3   OH278345   4.065   4.134  12.095  0.4720 -0.0339  0.1215
18977TIP3    H178346   4.067   4.051  12.142 -0.1079 -0.4334 -0.5427
18977TIP3    H278347   4.049   4.109  12.004 -0.2562  0.8422  0.0008
18978TIP3   OH278348   3.789   0.945   2.277 -0.3694 -0.1717  0.2987
18978TIP3    H178349   3.703   0.977   2.249 -0.1464  2.2636  2.2950
18978TIP3    H278350   3.841   0.942   2.196 -1.8900 -0.3042 -0.6944
18979TIP3   OH278351   6.558   6.200  11.709 -0.1443 -0.6330 -0.1360
18979TIP3    H178352   6.588   6.176  11.622 -0.3338 -0.5337 -0.2299
18979TIP3    H278353   6.487   6.263  11.693 -0.3595 -0.8183  0.0823
18980TIP3   OH278354   2.700   6.137  16.906  0.7186  0.5408  0.4289
18980TIP3    H178355   2.760   6.157  16.977  2.3435 -2.0996 -0.1331
18980TIP3    H278356   2.743   6.173  16.828  2.0599 -2.1185 -0.1027
18981TIP3   OH278357   3.493   0.522  16.397 -0.0632 -0.3013  0.1142
18981TIP3    H178358   3.523   0.464  16.466 -0.6387  1.1758  1.6324
18981TIP3    H278359   3.496   0.468  16.318 -0.2419 -2.2763  1.4181
18982TIP3   OH278360   0.242   6.242   4.923 -0.3476 -0.3808 -0.3096
18982TIP3    H178361   0.327   6.237   4.967 -0.7666  0.6191  0.6247
18982TIP3    H278362   0.252   6.313   4.859 -1.3041  1.5791  1.6638
18983TIP3   OH278363   5.707   6.314  14.560 -0.3529  0.8729 -0.4706
18983TIP3    H178364   5.612   6.319  14.575 -0.8550 -0.4238 -2.8872
18983TIP3    H278365   5.716   6.323  14.465  2.0373  1.9313 -0.1646
18984TIP3   OH278366   2.506   3.259  14.719 -0.1412  0.8292  0.2410
18984TIP3    H178367   2.511   3.225  14.809  1.1883  1.8409  0.5567
18984TIP3    H278368   2.543   3.189  14.665  0.0728  0.6729  0.5882
18985TIP3   OH278369   6.322   4.889   6.783 -0.1868  0.0231 -0.2216
18985TIP3    H178370   6.299   4.824   6.716  0.0161  1.1971 -1.4676
18985TIP3    H278371   6.238   4.910   6.825  0.2426 -3.6192  2.6467
18986TIP3   OH278372   4.593   5.786  11.238  0.2559 -0.0586 -0.2066
18986TIP3    H178373   4.655   5.840  11.189 -0.1082  1.2027  0.6833
18986TIP3    H278374   4.519   5.845  11.257  0.1809 -0.6336  1.4294
18987TIP3   OH278375   6.359   6.781   2.808  0.4202 -0.4010 -0.4933
18987TIP3    H178376   6.313   6.749   2.885 -0.2596 -0.6865 -1.0184
18987TIP3    H278377   6.291   6.791   2.742  1.2660 -1.7566 -1.5726
18988TIP3   OH278378   1.595   6.564  11.952  0.8130 -0.0009  0.4792
18988TIP3    H178379   1.603   6.469  11.943  3.9874  0.2381  0.2424
18988TIP3    H278380   1.621   6.583  12.042 -1.9036  0.4890  1.2151
18989TIP3   OH278381   3.954   0.186   1.458  0.0992  0.1738  0.0668
18989TIP3    H178382   4.037   0.163   1.416 -0.1943  0.1617 -0.5145
18989TIP3    H278383   3.934   0.274   1.425 -1.0067 -0.5328 -1.2040
18990TIP3   OH278384   5.366   2.454  11.869 -0.1408  0.3014 -0.0700
18990TIP3    H178385   5.330   2.378  11.824 -0.1098  0.6465 -0.6818
18990TIP3    H278386   5.307   2.469  11.943 -0.9037  0.4982 -0.7180
18991TIP3   OH278387   0.888   6.309  12.875  0.8282 -0.6462  0.1073
18991TIP3    H178388   0.908   6.262  12.956 -0.3922 -1.5751 -0.1194
18991TIP3    H278389   0.809   6.360  12.895  1.7089  0.7367  0.1237
18992TIP3   OH278390   3.430   2.677  12.786 -0.4708  0.5696 -0.4627
18992TIP3    H178391   3.487   2.747  12.753 -0.8239  0.2845 -1.6953
18992TIP3    H278392   3.346   2.720  12.801 -0.1208  0.8555  0.7782
18993TIP3   OH278393   0.470   1.235  12.801  0.4447  0.6135  0.3323
18993TIP3    H178394   0.491   1.141  12.802  0.9968  0.7363  0.6671
18993TIP3    H278395   0.377   1.239  12.819  1.3563  0.3886  5.8490
18994TIP3   OH278396   6.232   0.075  13.518  0.8191 -0.0696  0.8424
18994TIP3    H178397   6.174   0.145  13.546  1.5985  0.0043  2.2982
18994TIP3    H278398   6.179   0.023  13.458 -0.3656  0.6805  1.2216
18995TIP3   OH278399   5.443   1.834   3.543 -0.5109  0.0924 -0.4973
18995TIP3    H178400   5.493   1.753   3.534 -0.2028  0.3274 -0.8984
18995TIP3    H278401   5.355   1.812   3.511 -0.8036 -0.4535  0.6599
18996TIP3   OH278402   0.196   0.700  13.785  1.1287  0.2419 -0.2680
18996TIP3    H178403   0.258   0.631  13.810  1.4221  0.7886  0.5311
18996TIP3    H278404   0.202   0.705  13.690  0.9094 -1.0248 -0.3653
18997TIP3   OH278405   1.583   2.606  11.498 -0.3599  0.0988 -0.0631
18997TIP3    H178406   1.505   2.575  11.544 -1.5074  2.2203 -0.5148
18997TIP3    H278407   1.561   2.600  11.405 -1.2450  3.6795 -0.1514
18998TIP3   OH278408   3.116   4.119  16.337  0.2860 -0.0905  0.1105
18998TIP3    H178409   3.044   4.182  16.334  0.5873  0.2046 -2.1714
18998TIP3    H278410   3.123   4.094  16.429 -0.3347  2.6348  0.9446
18999TIP3   OH278411   0.674   4.997  16.459  0.0146  0.3373  0.3764
18999TIP3    H178412   0.641   5.075  16.415 -0.0923 -0.2259 -0.5345
18999TIP3    H278413   0.766   5.016  16.476 -0.2076  0.9866  0.8865
19000TIP3   OH278414   3.410   5.935   0.868  0.1120  0.1497  0.4667
19000TIP3    H178415   3.386   5.878   0.794  0.4940  1.3214 -0.5839
19000TIP3    H278416   3.378   5.888   0.945 -1.7595 -0.3401 -0.5637
19001TIP3   OH278417   0.037   5.366   5.749  0.0387  0.7299 -0.2033
19001TIP3    H178418   0.114   5.409   5.787  0.4401 -1.1687  1.2138
19001TIP3    H278419  -0.038   5.410   5.791  0.3048  2.5803 -1.5881
19002TIP3   OH278420   4.684   0.708  16.532 -0.1151  0.5744  0.2256
19002TIP3    H178421   4.609   0.760  16.503  0.8345  0.6109 -2.2510
19002TIP3    H278422   4.661   0.680  16.621 -3.1602  0.3683 -0.5878
19003TIP3   OH278423   0.442   4.106  13.866 -0.2237  0.3312  0.0727
19003TIP3    H178424   0.471   4.132  13.778  0.3846 -1.2034 -0.2061
19003TIP3    H278425   0.379   4.173  13.891 -0.2307  0.9295 -1.4483
19004TIP3   OH278426   2.369   1.376  16.250  0.2746 -0.1504 -0.4388
19004TIP3    H178427   2.435   1.436  16.214  0.7106 -0.2724  0.1496
19004TIP3    H278428   2.288   1.400  16.206  0.9107 -0.6721 -1.9521
19005TIP3   OH278429   5.141   3.772  13.838 -0.7310 -0.4228  0.5326
19005TIP3    H178430   5.117   3.757  13.747  0.2665  0.7612  0.0643
19005TIP3    H278431   5.163   3.865  13.842  2.5076 -1.1688  1.2292
19006TIP3   OH278432   4.751   0.156  12.604  0.5882 -0.2447  0.1258
19006TIP3    H178433   4.783   0.244  12.585  2.0310 -0.7109  0.3518
19006TIP3    H278434   4.793   0.133  12.687 -0.0272 -1.0253  0.2179
19007TIP3   OH278435   3.828   1.070  13.881 -0.4450 -0.0489  0.2470
19007TIP3    H178436   3.767   1.103  13.948 -0.7956 -0.9380  0.3743
19007TIP3    H278437   3.772   1.020  13.821 -0.1111  0.6293 -0.6465
19008TIP3   OH278438   4.774   0.464  12.815 -0.1726 -0.2666  0.3580
19008TIP3    H178439   4.782   0.460  12.719  0.5017  0.8332  0.3564
19008TIP3    H278440   4.731   0.548  12.832  0.0758 -0.2776  1.0412
19009TIP3   OH278441   5.533   2.164  13.984  0.1558  0.8184 -0.6505
19009TIP3    H178442   5.529   2.153  14.079 -0.5725 -1.5106 -0.9368
19009TIP3    H278443   5.624   2.189  13.967 -0.5822  5.1275  0.9830
19010TIP3   OH278444   0.048   2.703  16.706 -0.3051 -0.4621 -0.0199
19010TIP3    H178445  -0.041   2.736  16.721 -0.3873 -2.4828  5.0739
19010TIP3    H278446   0.105   2.777  16.726 -0.7536  0.6942 -2.8243
19011TIP3   OH278447   0.242   2.616   0.256  0.3204 -0.7213 -0.1037
19011TIP3    H178448   0.166   2.610   0.198 -0.5994 -0.3389  1.0307
19011TIP3    H278449   0.254   2.527   0.290  0.1923 -0.7236 -0.0626
19012TIP3   OH278450   2.113   1.569  11.238  0.0069 -0.3791  0.6603
19012TIP3    H178451   2.104   1.617  11.155  0.6637 -1.3784 -0.0014
19012TIP3    H278452   2.197   1.524  11.230 -1.0913 -2.5057  0.8020
19013TIP3   OH278453   5.390   0.578   0.091 -0.0115  0.1840  0.6922
19013TIP3    H178454   5.369   0.497   0.045  0.8789  0.6129 -0.5006
19013TIP3    H278455   5.328   0.642   0.055 -1.0825 -0.0784  2.0329
19014TIP3   OH278456   0.420   5.973  16.862 -0.1663 -0.1454 -0.3852
19014TIP3    H178457   0.379   5.939  16.783 -1.5397 -0.4703  0.4476
19014TIP3    H278458   0.475   5.901  16.893 -0.8879 -0.5932 -0.1534
19015TIP3   OH278459   4.973   2.894   0.770 -0.0218  0.1226 -1.0468
19015TIP3    H178460   4.902   2.907   0.707 -1.0150  0.7164  0.1867
19015TIP3    H278461   4.945   2.819   0.823  1.0204 -0.6633 -1.5822
19016TIP3   OH278462   5.389   6.396   3.926 -0.3925  0.0867  0.1707
19016TIP3    H178463   5.371   6.326   3.864 -0.3380  0.1422  0.0922
19016TIP3    H278464   5.357   6.475   3.884  1.7544  0.4806 -0.8037
19017TIP3   OH278465   3.506   5.797   5.752 -0.0040  0.2976 -0.1070
19017TIP3    H178466   3.584   5.841   5.719  0.8669 -2.2303 -1.5651
19017TIP3    H278467   3.517   5.798   5.847  1.2342  1.0113 -0.2402
19018TIP3   OH278468   5.078   6.095  16.272 -0.2073 -0.4206  0.1436
19018TIP3    H178469   5.135   6.166  16.302 -0.0249 -0.6444  0.3300
19018TIP3    H278470   5.123   6.015  16.300  0.0031 -0.6396 -0.7874
19019TIP3   OH278471   4.642   1.522   3.723  0.3614 -0.1482 -0.1671
19019TIP3    H178472   4.647   1.466   3.801 -1.4146 -1.1266 -0.7336
19019TIP3    H278473   4.666   1.464   3.651 -0.6428  0.0441 -0.6597
19020TIP3   OH278474   3.708   2.035  15.952  0.0209  0.1398 -0.0736
19020TIP3    H178475   3.770   2.009  15.884  0.2085  1.7366 -0.5381
19020TIP3    H278476   3.703   2.130  15.945 -1.3532  0.1640  0.9523
19021TIP3   OH278477   6.520   0.466  13.143 -0.0151  0.1685  0.5629
19021TIP3    H178478   6.503   0.379  13.179 -0.1727 -0.7463 -1.6439
19021TIP3    H278479   6.583   0.451  13.072 -2.3679  1.3977 -1.8991
19022TIP3   OH278480   0.437   6.246   1.235  0.0821 -0.2665  0.2726
19022TIP3    H178481   0.351   6.252   1.276 -0.0946 -1.2477  0.0537
19022TIP3    H278482   0.426   6.185   1.162  1.4202 -2.0932  1.5287
19023TIP3   OH278483   1.478   5.392   2.727  1.0352 -0.3820  0.4144
19023TIP3    H178484   1.495   5.338   2.651 -0.6658 -0.0790 -0.1933
19023TIP3    H278485   1.466   5.480   2.692 -0.2792 -0.3284  0.9569
19024TIP3   OH278486   0.295   4.289  15.831 -0.3455  0.3534  0.0294
19024TIP3    H178487   0.253   4.204  15.842  1.7177 -0.6303  0.5844
19024TIP3    H278488   0.363   4.291  15.899  0.3847  1.9518 -0.7178
19025TIP3   OH278489   4.474   4.682   5.396 -0.6597 -0.3871  0.5577
19025TIP3    H178490   4.564   4.670   5.427 -0.0367  1.3498 -0.5023
19025TIP3    H278491   4.440   4.755   5.448 -0.8922  0.0329 -0.1646
19026TIP3   OH278492   0.993   6.418  16.927 -0.4239 -0.3455 -0.6931
19026TIP3    H178493   0.903   6.388  16.939 -0.7516  0.7217 -0.4666
19026TIP3    H278494   1.027   6.361  16.858 -0.8926 -1.5274  0.0192
19027TIP3   OH278495   2.000   0.430   3.538  0.4485 -0.1086 -0.1024
19027TIP3    H178496   2.018   0.473   3.455  0.0209 -0.5587 -0.4322
19027TIP3    H278497   2.046   0.483   3.603  1.4691 -0.2240 -0.7178
19028TIP3   OH278498   2.475   4.546  14.393  0.6141  0.0900  0.1294
19028TIP3    H178499   2.523   4.551  14.311  1.4497  0.4202  0.6327
19028TIP3    H278500   2.506   4.466  14.435  0.2666 -0.0217  0.1799
19029TIP3   OH278501   3.954   2.227   4.778 -0.2583 -0.2630 -0.6979
19029TIP3    H178502   3.903   2.235   4.697 -0.8275  0.7013 -0.2539
19029TIP3    H278503   4.045   2.233   4.750 -0.4128 -1.0000 -1.3847
19030TIP3   OH278504   0.432   2.904   4.255  0.0845 -0.2938  1.1053
19030TIP3    H178505   0.476   2.989   4.259  0.9880 -0.6806 -0.3339
19030TIP3    H278506   0.393   2.893   4.342  0.0459  1.5377  1.3391
19031TIP3   OH278507   1.409   4.224  16.207  0.2608 -0.0717 -0.3362
19031TIP3    H178508   1.432   4.317  16.202  1.4101 -0.2879  0.7338
19031TIP3    H278509   1.313   4.223  16.198  0.3835  1.0798 -1.9125
19032TIP3   OH278510   1.485   2.162   5.770  0.2332 -0.1292 -0.1847
19032TIP3    H178511   1.569   2.123   5.795  0.9216  0.8801 -0.8818
19032TIP3    H278512   1.508   2.232   5.709 -1.0232  1.2123  0.8604
19033TIP3   OH278513   6.531   3.746  14.519  0.1128 -0.0018  0.2568
19033TIP3    H178514   6.460   3.784  14.468 -1.4149 -1.8204  0.9648
19033TIP3    H278515   6.495   3.736  14.607  1.7577  0.4351  1.0027
19034TIP3   OH278516   3.157   4.665   5.282 -0.3275 -0.2806 -0.4031
19034TIP3    H178517   3.160   4.570   5.268 -0.7421 -0.1244 -1.5776
19034TIP3    H278518   3.090   4.696   5.222 -0.1815  0.7701 -0.0360
19035TIP3   OH278519   4.086   6.015   1.235 -0.6253 -0.4816 -0.5617
19035TIP3    H178520   4.011   5.980   1.283 -0.3497 -0.3318 -0.0202
19035TIP3    H278521   4.071   6.110   1.234 -0.5335 -0.4680 -0.6096
19036TIP3   OH278522   3.416   3.113  11.558 -0.2296  0.5693 -0.0240
19036TIP3    H178523   3.386   3.204  11.551 -0.5714  0.4231 -0.5172
19036TIP3    H278524   3.458   3.095  11.474  2.5470  1.2173  1.1685
19037TIP3   OH278525   0.145   0.250  16.448  0.5020 -0.1547 -0.3740
19037TIP3    H178526   0.206   0.192  16.494  2.3072  1.3183 -0.8459
19037TIP3    H278527   0.194   0.280  16.372 -1.1431  0.3810 -1.2291
19038TIP3   OH278528   4.789   2.956   4.458  0.1576 -0.2820  0.9354
19038TIP3    H178529   4.881   2.983   4.458 -0.0204  0.3401 -0.0549
19038TIP3    H278530   4.774   2.924   4.547  1.3800 -0.5621  1.0543
19039TIP3   OH278531   3.313   4.869  16.980  0.6402  0.2499  0.3599
19039TIP3    H178532   3.323   4.801  17.048  0.6101 -0.8244 -0.6860
19039TIP3    H278533   3.240   4.838  16.927 -0.3825  1.9016  0.7793
19040TIP3   OH278534   6.054   6.031  14.082  0.0339 -0.2846 -0.3479
19040TIP3    H178535   6.036   5.967  14.150 -0.0305  0.6355  0.5230
19040TIP3    H278536   6.113   6.094  14.124  0.1251  0.2085 -1.1954
19041TIP3   OH278537   3.947   5.475  17.033  0.1741  0.5292  0.2390
19041TIP3    H178538   4.030   5.518  17.056  1.2598 -1.3165 -0.1473
19041TIP3    H278539   3.972   5.386  17.009 -1.8586  0.1547 -0.5730
19042TIP3   OH278540   1.492   3.928  14.016 -0.3358  0.2546 -0.1101
19042TIP3    H178541   1.504   3.979  14.096 -1.7926  0.3488  0.0493
19042TIP3    H278542   1.459   3.991  13.952  0.4441  0.0914 -0.6852
19043TIP3   OH278543   1.634   2.975   2.068 -0.0657  0.0818 -0.1071
19043TIP3    H178544   1.672   3.032   2.134 -1.6435  0.9902  0.0470
19043TIP3    H278545   1.539   2.986   2.079 -0.3593 -1.0849 -1.3630
19044TIP3   OH278546   0.628   3.009   3.861  0.1005 -0.0622 -0.3502
19044TIP3    H178547   0.577   2.980   3.937  1.4047  1.4092  1.1055
19044TIP3    H278548   0.676   2.931   3.834  1.6792  0.0579  2.0111
19045TIP3   OH278549   1.391   0.696  12.327  0.2702  0.4311 -0.2258
19045TIP3    H178550   1.439   0.694  12.410 -0.2139  2.3309  0.1245
19045TIP3    H278551   1.301   0.720  12.352 -0.2552 -0.5821 -1.1329
19046TIP3   OH278552   6.266   5.794  13.920  0.2864 -0.0797 -0.4537
19046TIP3    H178553   6.341   5.791  13.861 -0.7297 -0.2176 -1.7702
19046TIP3    H278554   6.197   5.836  13.868 -0.2373  1.0323  1.0935
19047TIP3   OH278555   1.215   0.012  14.603 -0.5185 -0.1369  0.4002
19047TIP3    H178556   1.157   0.034  14.531  0.8671  0.5166 -0.5359
19047TIP3    H278557   1.274   0.087  14.611  1.4515 -1.5850  0.0343
19048TIP3   OH278558   2.907   2.347  15.355  0.4342  0.0219  0.6227
19048TIP3    H178559   2.815   2.330  15.376  0.3620  1.9682  2.0658
19048TIP3    H278560   2.927   2.428  15.402  3.1074 -0.7712  0.8984
19049TIP3   OH278561   5.664   4.459  13.926  0.5172  0.3204 -0.4319
19049TIP3    H178562   5.584   4.444  13.977 -0.3351 -0.2923 -1.9131
19049TIP3    H278563   5.732   4.476  13.991 -0.1803 -2.0796  0.9723
19050TIP3   OH278564   0.311   6.018  14.706  0.3029  0.0270  0.4192
19050TIP3    H178565   0.350   6.104  14.716 -1.6651  1.0258 -0.1396
19050TIP3    H278566   0.216   6.034  14.709 -0.1376 -1.8452 -1.5533
19051TIP3   OH278567   0.038   3.005  13.886  0.7517  0.1061 -0.0712
19051TIP3    H178568   0.056   2.912  13.881 -1.7252 -0.3785 -0.7519
19051TIP3    H278569   0.072   3.032  13.971 -0.9388 -2.0074  1.3086
19052TIP3   OH278570   4.001   3.674  13.039 -0.6255 -0.0303  0.4664
19052TIP3    H178571   3.956   3.653  13.122 -1.4086 -0.7684 -0.1410
19052TIP3    H278572   3.980   3.601  12.981  0.5251  0.1305 -0.1631
19053TIP3   OH278573   2.239   4.440   5.248 -0.3545 -0.4962  0.0191
19053TIP3    H178574   2.242   4.345   5.262 -1.7843 -0.3359  1.5769
19053TIP3    H278575   2.165   4.453   5.188  0.6883 -0.4647 -1.2849
19054TIP3   OH278576   1.183   4.068   4.131  0.6500 -0.3165  0.3830
19054TIP3    H178577   1.259   4.018   4.103 -0.2812 -0.6515 -1.6018
19054TIP3    H278578   1.165   4.037   4.220  0.9426 -2.4582 -0.2937
19055TIP3   OH278579   0.352   1.191   5.605 -0.7474  0.3248  0.1277
19055TIP3    H178580   0.398   1.236   5.534 -0.9683 -1.1692 -0.9907
19055TIP3    H278581   0.349   1.255   5.676  1.7971  0.9674 -0.2761
19056TIP3   OH278582   4.676   3.918   6.137 -0.0078 -0.0468 -0.5848
19056TIP3    H178583   4.754   3.928   6.191 -0.5589  0.6121  0.0997
19056TIP3    H278584   4.609   3.887   6.197 -0.1822 -0.9531 -1.2461
19057TIP3   OH278585   3.021   4.768  14.399  0.2339  0.1963 -0.2206
19057TIP3    H178586   3.036   4.750  14.492  0.3078  1.8763  0.0970
19057TIP3    H278587   3.002   4.861  14.395  2.4110  0.6104 -2.1476
19058TIP3   OH278588   5.170   5.937  12.399  0.1533 -0.6282 -0.3621
19058TIP3    H178589   5.107   5.983  12.344 -0.4676 -1.0137  0.0193
19058TIP3    H278590   5.182   5.852  12.356  0.1270 -0.6938 -0.2400
19059TIP3   OH278591   4.451   6.444   2.251 -0.1376 -0.0449 -0.6632
19059TIP3    H178592   4.473   6.369   2.306 -0.2812 -0.3622 -1.0393
19059TIP3    H278593   4.509   6.514   2.282 -0.5037 -0.0971  0.1739
19060TIP3   OH278594   5.154   5.796   4.170  0.4316  0.6342  0.6518
19060TIP3    H178595   5.122   5.758   4.088 -1.1268  1.8770  0.6761
19060TIP3    H278596   5.250   5.788   4.164  0.2332 -1.5430 -0.1702
19061TIP3   OH278597   6.433   6.588  14.857  0.2969  0.2754 -0.0558
19061TIP3    H178598   6.455   6.625  14.943 -0.2504 -1.5583  0.8859
19061TIP3    H278599   6.518   6.579  14.813  0.7664 -0.5659  1.0176
19062TIP3   OH278600   3.867   4.174  14.027  0.4532 -0.0840  0.2243
19062TIP3    H178601   3.909   4.096  13.991  0.7786  0.8092 -1.4144
19062TIP3    H278602   3.925   4.202  14.098  1.4581 -0.1282 -0.5670
19063TIP3   OH278603   5.029   3.091  14.509  0.3448  0.3156  0.1770
19063TIP3    H178604   5.039   3.124  14.420 -0.3921  1.1937  0.4171
19063TIP3    H278605   5.094   3.021  14.516  2.8161  2.5194  0.0481
19064TIP3   OH278606   6.078   4.366  11.505 -0.5719  0.8313 -0.6875
19064TIP3    H178607   6.114   4.345  11.420 -3.2395  0.3028 -1.7518
19064TIP3    H278608   6.044   4.283  11.538 -0.7726  1.2880  0.2925
19065TIP3   OH278609   3.503   3.160   3.847  0.1423  0.4205  0.0543
19065TIP3    H178610   3.486   3.137   3.939 -1.2148 -1.1120 -0.5553
19065TIP3    H278611   3.425   3.209   3.820  0.4847  0.7609 -0.3171
19066TIP3   OH278612   0.547   6.594   3.767 -0.0093 -0.0237 -0.2318
19066TIP3    H178613   0.523   6.510   3.729 -1.0117 -0.9160  2.2790
19066TIP3    H278614   0.472   6.618   3.822  0.4478  2.2856 -0.5624
19067TIP3   OH278615   4.340   6.285  11.498  0.3119 -0.0663  0.5399
19067TIP3    H178616   4.360   6.226  11.425  1.7652 -0.1148  0.9408
19067TIP3    H278617   4.333   6.371  11.458 -0.8177 -0.3666  0.0831
19068TIP3   OH278618   1.098   2.180  13.471 -0.4566  0.2626  0.0777
19068TIP3    H178619   1.040   2.105  13.486  0.0208  0.0141  0.7322
19068TIP3    H278620   1.052   2.254  13.511  0.3999 -0.2360  2.0830
19069TIP3   OH278621   5.833   5.212  15.388 -0.7450 -0.4615 -0.4573
19069TIP3    H178622   5.876   5.168  15.314  2.4889  0.5286  0.7212
19069TIP3    H278623   5.854   5.304  15.377 -1.2479 -0.1489  1.0419
19070TIP3   OH278624   6.719   4.606   1.606 -0.6547  0.4163  0.2711
19070TIP3    H178625   6.785   4.545   1.574 -0.8268  0.4879 -0.2262
19070TIP3    H278626   6.743   4.690   1.567  0.0155  0.8225  1.5550
19071TIP3   OH278627   4.038   5.475   5.070  0.3883  0.3276 -0.8769
19071TIP3    H178628   3.996   5.389   5.070  0.1275  0.4495  0.1420
19071TIP3    H278629   4.028   5.506   4.980 -0.6896 -0.1396 -0.9230
19072TIP3   OH278630   0.579   5.172   4.576 -0.3427  0.5885  0.3034
19072TIP3    H178631   0.666   5.133   4.565  0.0639  1.8718 -1.2040
19072TIP3    H278632   0.597   5.258   4.616 -0.9904  0.4413  0.9010
19073TIP3   OH278633   2.265   0.273   1.076 -0.5305 -1.1004 -0.7026
19073TIP3    H178634   2.350   0.258   1.035  0.6209 -0.0160  1.1771
19073TIP3    H278635   2.220   0.333   1.016  0.1540 -1.4339 -1.5597
19074TIP3   OH278636   3.049   5.463  13.182 -0.3540  0.5696 -0.4155
19074TIP3    H178637   3.025   5.370  13.181 -2.2896  1.0542 -0.5749
19074TIP3    H278638   2.971   5.508  13.215  0.6245  2.1278 -0.1758
19075TIP3   OH278639   2.579   6.637  13.538 -0.5042  0.2036 -0.0776
19075TIP3    H178640   2.658   6.584  13.535  0.0113  0.9673  0.0987
19075TIP3    H278641   2.562   6.661  13.446 -0.7399 -0.2610 -0.1593
19076TIP3   OH278642   2.408   6.429   2.482  0.9030 -0.0089 -0.5793
19076TIP3    H178643   2.323   6.424   2.438 -0.9199 -1.0599  2.9117
19076TIP3    H278644   2.402   6.506   2.538  3.1092  1.1700 -1.8748
19077TIP3   OH278645   0.492   1.126  16.335 -0.6043 -0.0925 -0.1691
19077TIP3    H178646   0.455   1.092  16.254  0.1750 -0.2101 -0.4791
19077TIP3    H278647   0.572   1.075  16.348  0.5724  1.5940 -0.6179
19078TIP3   OH278648   0.426   4.670   5.722 -0.3036  0.0566  0.1063
19078TIP3    H178649   0.469   4.678   5.807 -1.2830 -2.7030  0.9092
19078TIP3    H278650   0.334   4.685   5.741 -0.3241  1.0703 -0.7699
19079TIP3   OH278651   5.973   5.002  13.663 -0.2894  0.1957 -0.3765
19079TIP3    H178652   5.950   4.917  13.625 -0.4625  0.5632 -1.1019
19079TIP3    H278653   5.970   4.987  13.757  2.8767 -1.4836 -0.4449
19080TIP3   OH278654   5.727   1.074   0.675 -0.2315  0.2777 -0.1783
19080TIP3    H178655   5.650   1.018   0.672 -1.1778  1.6336 -2.0776
19080TIP3    H278656   5.759   1.066   0.765 -1.6943 -1.4778  0.2089
19081TIP3   OH278657   4.131   1.845  16.929 -0.2121  0.4378  0.2829
19081TIP3    H178658   4.197   1.778  16.912 -0.6857 -0.0955  0.5172
19081TIP3    H278659   4.178   1.928  16.922 -0.1478  0.1980 -2.4527
19082TIP3   OH278660   4.751   1.986   5.563  0.1216  0.0489 -0.0415
19082TIP3    H178661   4.786   1.952   5.480  1.8836  0.3404  0.5619
19082TIP3    H278662   4.826   1.987   5.622 -1.1045 -0.0478  1.5431
19083TIP3   OH278663   2.415   5.313   0.603  0.4851 -0.1736 -0.2217
19083TIP3    H178664   2.319   5.315   0.600  0.4441  0.7044  1.4229
19083TIP3    H278665   2.439   5.248   0.537 -1.2454 -0.4861 -0.5719
19084TIP3   OH278666   6.545   4.521  12.254  0.0463  0.2049 -0.3552
19084TIP3    H178667   6.560   4.489  12.165 -0.0791  0.7541 -0.5715
19084TIP3    H278668   6.539   4.441  12.306  0.6477 -0.1043 -0.7493
19085TIP3   OH278669   1.242   0.022  17.127 -0.2156 -0.0994 -0.1035
19085TIP3    H178670   1.201  -0.063  17.112 -0.3684  0.0541 -0.5704
19085TIP3    H278671   1.286   0.013  17.211 -0.5757 -0.5069  0.0420
19086TIP3   OH278672   1.181   4.261  11.129 -0.4357  0.2223  0.0116
19086TIP3    H178673   1.112   4.239  11.192 -0.9268  1.3168 -0.1421
19086TIP3    H278674   1.175   4.356  11.119 -0.1982  0.0794 -1.4998
19087TIP3   OH278675   2.745   2.666  12.736 -0.1285  0.1043  0.2341
19087TIP3    H178676   2.805   2.645  12.808  0.0435 -0.6394 -0.1165
19087TIP3    H278677   2.678   2.598  12.741 -0.2666  0.2139 -0.1380
19088TIP3   OH278678   1.031   1.490   4.502 -0.2430 -0.0562 -0.3706
19088TIP3    H178679   1.049   1.436   4.425 -0.6983  1.5655 -1.6279
19088TIP3    H278680   1.087   1.567   4.492 -0.8760  0.5277  0.5072
19089TIP3   OH278681   5.152   0.599  11.386 -0.5781  0.8347  0.3439
19089TIP3    H178682   5.082   0.664  11.377 -0.8552  0.5550  0.4475
19089TIP3    H278683   5.185   0.588  11.297 -0.1535  1.5254  0.4133
19090TIP3   OH278684   5.838   1.934   1.142  0.3523 -0.5635  0.4777
19090TIP3    H178685   5.819   1.999   1.074 -0.7661 -3.0443 -1.6633
19090TIP3    H278686   5.934   1.927   1.142  0.3936 -0.0634 -0.3912
19091TIP3   OH278687   1.678   4.543  12.300 -0.0722  0.5327 -0.1923
19091TIP3    H178688   1.699   4.610  12.235  1.2979 -0.0619 -0.3972
19091TIP3    H278689   1.656   4.592  12.379 -0.6024  1.2449 -0.7822
19092TIP3   OH278690   1.843   3.996   4.106 -0.5427  0.8670 -0.0910
19092TIP3    H178691   1.872   4.065   4.046  1.3682  0.1261 -0.0565
19092TIP3    H278692   1.847   4.037   4.192  1.6000  0.4699  0.0495
19093TIP3   OH278693   1.431   0.481   5.070 -0.2801  0.3735  0.2381
19093TIP3    H178694   1.519   0.501   5.037 -1.0769  0.7799 -1.7340
19093TIP3    H278695   1.446   0.423   5.145  1.6582  0.2792 -0.1860
19094TIP3   OH278696   3.035   6.471  13.959  0.2376  0.9638 -0.2462
19094TIP3    H178697   3.126   6.440  13.953  0.1650  0.6290  0.3254
19094TIP3    H278698   2.982   6.395  13.938  0.0706  0.9130  0.3635
19095TIP3   OH278699   2.114   0.559  10.606 -0.2977  0.1606 -0.1105
19095TIP3    H178700   2.092   0.652  10.594  0.0457  0.0735 -1.5017
19095TIP3    H278701   2.040   0.512  10.568  0.6025 -0.1285 -1.5264
19096TIP3   OH278702   0.406   3.574   2.569 -0.5527  0.1534 -0.7924
19096TIP3    H178703   0.482   3.616   2.529 -2.0306  2.2979 -1.5032
19096TIP3    H278704   0.426   3.481   2.569  1.4074  0.5491 -2.3649
19097TIP3   OH278705   1.649   2.216   1.227  0.0834 -0.1819 -0.3148
19097TIP3    H178706   1.739   2.185   1.241  0.2417  0.8473  1.0759
19097TIP3    H278707   1.605   2.201   1.310 -0.9780 -0.4538 -0.9150
19098TIP3   OH278708   3.063   0.874  16.353 -0.2464 -0.4068  0.4508
19098TIP3    H178709   3.061   0.779  16.361  0.4408 -0.3241  1.9037
19098TIP3    H278710   2.972   0.899  16.337 -0.1658 -1.4233 -1.6919
19099TIP3   OH278711   5.792   2.277  17.072  0.4725  0.0408  0.2643
19099TIP3    H178712   5.729   2.328  17.022  0.2519 -1.0723 -0.6003
19099TIP3    H278713   5.877   2.317  17.052  0.3743 -0.3225 -0.9247
19100TIP3   OH278714   1.476   4.366   1.328 -0.5365 -0.4155  0.0576
19100TIP3    H178715   1.440   4.403   1.248  0.6201  0.2721 -0.1534
19100TIP3    H278716   1.533   4.295   1.299  1.7457  1.3455  0.0912
19101TIP3   OH278717   2.029   3.816  16.162  0.1567 -0.2499  0.5593
19101TIP3    H178718   2.020   3.910  16.146 -1.6373 -0.2086  1.6684
19101TIP3    H278719   2.071   3.810  16.247 -1.4425 -0.4253  1.3560
19102TIP3   OH278720   6.057   2.791   4.868  0.5894  0.1231  0.3696
19102TIP3    H178721   6.035   2.827   4.954 -0.1329 -0.8492  0.5991
19102TIP3    H278722   6.144   2.826   4.849  1.4775 -0.9605  2.2470
19103TIP3   OH278723   1.577   1.398  14.399  0.2640  0.0869  0.2437
19103TIP3    H178724   1.634   1.374  14.472 -0.4382  1.6658  1.3353
19103TIP3    H278725   1.553   1.488  14.417 -1.3949 -0.1000 -0.9849
19104TIP3   OH278726   5.205   3.277  13.872  0.4675  0.4297 -0.1534
19104TIP3    H178727   5.275   3.281  13.807  0.7069 -0.7457  0.0224
19104TIP3    H278728   5.217   3.192  13.914  0.0025  0.9643  1.0713
19105TIP3   OH278729   0.576   0.526  10.444 -0.1254  0.1228  0.1531
19105TIP3    H178730   0.568   0.432  10.432  0.9763  0.0675 -0.1866
19105TIP3    H278731   0.667   0.546  10.421 -0.2286  1.2016  0.6336
19106TIP3   OH278732   4.657   6.753   3.521  0.7606  0.2483 -0.0835
19106TIP3    H178733   4.717   6.714   3.584  1.0792 -2.6009 -2.0653
19106TIP3    H278734   4.600   6.681   3.494  0.0773  1.6045 -2.4220
19107TIP3   OH278735   4.552   5.685   3.036  0.3601  0.6142 -0.1537
19107TIP3    H178736   4.584   5.604   2.998  1.0825  0.6748  0.3297
19107TIP3    H278737   4.470   5.660   3.080 -0.4008  0.5141 -1.5831
19108TIP3   OH278738   5.577   6.552  16.794 -0.4822  0.4437 -0.0413
19108TIP3    H178739   5.483   6.535  16.802 -0.5243  0.3281 -0.7507
19108TIP3    H278740   5.615   6.514  16.873 -0.9580 -0.0715 -0.0597
19109TIP3   OH278741   0.736   0.038  13.410  0.4038  0.0495 -0.4684
19109TIP3    H178742   0.831   0.050  13.406  0.4958 -0.8865 -1.2917
19109TIP3    H278743   0.705   0.051  13.321 -0.4232  1.6427  0.0315
19110TIP3   OH278744   1.085   1.225  12.684 -0.4196  0.2883 -0.3856
19110TIP3    H178745   1.099   1.133  12.708  0.6128  0.0488 -1.7772
19110TIP3    H278746   1.112   1.275  12.761 -3.4366 -0.6286  1.3485
19111TIP3   OH278747   3.851   2.322   0.994  0.1562 -0.0088  0.0794
19111TIP3    H178748   3.813   2.372   1.067  0.5143 -0.4953  0.6025
19111TIP3    H278749   3.911   2.261   1.036  3.5782  2.5299 -0.8884
19112TIP3   OH278750   6.630   6.657   4.905  0.2649 -0.1285 -0.4025
19112TIP3    H178751   6.709   6.604   4.897 -0.3823 -1.2442  0.3856
19112TIP3    H278752   6.653   6.724   4.970  0.8783  0.1744 -0.9234
19113TIP3   OH278753   3.205   6.038   2.432  0.4498 -0.3276  0.0066
19113TIP3    H178754   3.117   6.024   2.396  0.5139 -0.1634 -0.2115
19113TIP3    H278755   3.209   6.132   2.448  0.3174 -0.4367  0.7142
19114TIP3   OH278756   4.589   4.093  14.200 -0.2677  0.2222 -0.2514
19114TIP3    H178757   4.684   4.096  14.212  0.1933 -0.8914 -3.1918
19114TIP3    H278758   4.577   4.045  14.118 -3.3536  0.9199 -0.2561
19115TIP3   OH278759   1.176   6.421   5.835  0.3067 -0.1633  0.2425
19115TIP3    H178760   1.259   6.435   5.791 -0.0905 -0.3580 -0.5865
19115TIP3    H278761   1.153   6.330   5.815 -0.3344  0.0312  0.0631
19116TIP3   OH278762   1.801   2.180  15.618 -0.5589  0.5348 -0.0908
19116TIP3    H178763   1.735   2.246  15.641 -0.0441  0.8266  0.5543
19116TIP3    H278764   1.816   2.132  15.700 -0.2690  0.2050 -0.3372
19117TIP3   OH278765   1.583   2.218   2.890 -0.7559 -0.1845  0.0947
19117TIP3    H178766   1.640   2.142   2.878  0.6547  0.8767 -0.1883
19117TIP3    H278767   1.591   2.239   2.983  1.1041  1.2793 -0.3502
19118TIP3   OH278768   1.327   1.037  17.097  0.2516 -0.3292 -0.3701
19118TIP3    H178769   1.422   1.045  17.104  0.3429 -1.6795  0.1717
19118TIP3    H278770   1.314   0.980  17.021 -0.1679  0.6323 -1.0310
19119TIP3   OH278771   4.883   3.855  12.051 -0.0994 -0.2290  0.1901
19119TIP3    H178772   4.797   3.891  12.028  0.2980  1.7992  1.7494
19119TIP3    H278773   4.891   3.869  12.145  1.9772 -0.3454  0.0604
19120TIP3   OH278774   0.295   3.221   2.458  0.1235 -0.4245 -0.3450
19120TIP3    H178775   0.287   3.227   2.553  0.6526  0.2835 -0.3430
19120TIP3    H278776   0.207   3.239   2.425 -0.0028 -0.4238 -0.0074
19121TIP3   OH278777   6.399   6.696  14.474 -0.1233 -0.3526 -0.3113
19121TIP3    H178778   6.384   6.673  14.383 -0.5339 -0.8345 -0.1271
19121TIP3    H278779   6.390   6.791  14.476 -1.6587 -0.4775 -0.5018
19122TIP3   OH278780   5.710   5.142   0.377 -0.4606  0.3215 -0.7976
19122TIP3    H178781   5.805   5.134   0.367 -0.3582  0.6553 -0.1596
19122TIP3    H278782   5.683   5.202   0.307  0.0131  1.4060 -0.0632
19123TIP3   OH278783   6.315   4.552  14.583  0.4995  0.1917  0.4301
19123TIP3    H178784   6.226   4.526  14.562  1.0385 -2.3779  1.1281
19123TIP3    H278785   6.347   4.595  14.504 -1.6111  1.9002  0.4732
19124TIP3   OH278786   4.040   4.752   1.837  0.3492  0.1874  0.6460
19124TIP3    H178787   3.950   4.779   1.858 -0.4059 -0.6726 -1.3246
19124TIP3    H278788   4.084   4.835   1.816  0.4800  0.7888  3.1246
19125TIP3   OH278789   6.680   4.192   0.781  0.2786 -0.0159  0.2960
19125TIP3    H178790   6.622   4.119   0.802  0.0274  0.4427  1.2049
19125TIP3    H278791   6.640   4.234   0.705 -0.3901  0.0886  0.7052
19126TIP3   OH278792   4.534   4.606  13.015  0.2521  0.2581 -0.0710
19126TIP3    H178793   4.592   4.682  13.016  1.0759 -0.3420  3.6546
19126TIP3    H278794   4.451   4.639  12.979  1.7353  1.9797 -2.0292
19127TIP3   OH278795   2.515   5.928   1.388 -0.5495  0.3149  0.4319
19127TIP3    H178796   2.531   5.891   1.474 -0.1247 -0.2457  0.1153
19127TIP3    H278797   2.573   6.003   1.382  0.7910 -0.7309 -0.0700
19128TIP3   OH278798   5.518   2.306  16.428 -0.0598  0.4842  0.0312
19128TIP3    H178799   5.602   2.350  16.418  0.2933 -0.4921 -1.4957
19128TIP3    H278800   5.503   2.264  16.343 -1.2354 -0.8280  0.8657
19129TIP3   OH278801   1.984   1.964   1.057 -0.0087 -0.0926 -0.0319
19129TIP3    H178802   2.047   1.911   1.008  1.9882  1.7931  0.4103
19129TIP3    H278803   1.915   1.983   0.994 -0.0487 -1.9949 -0.6016
19130TIP3   OH278804   3.061   3.361  14.571 -0.5885  0.2860 -0.1485
19130TIP3    H178805   3.156   3.372  14.561 -0.8617  2.0422 -0.9597
19130TIP3    H278806   3.036   3.425  14.637 -1.1477 -0.4623  0.3690
19131TIP3   OH278807   5.205   2.759   0.185  0.4925  0.2828 -0.6187
19131TIP3    H178808   5.117   2.787   0.158 -0.3143 -1.4663  0.0628
19131TIP3    H278809   5.251   2.742   0.103  1.4254  4.6653 -1.0851
19132TIP3   OH278810   5.781   2.732   4.932 -0.0345  0.6611  0.0361
19132TIP3    H178811   5.872   2.705   4.928  0.3122  1.8642 -0.7020
19132TIP3    H278812   5.753   2.713   5.021  0.6288 -0.6674 -0.0338
19133TIP3   OH278813   5.475   1.243  15.324  0.4852 -0.1971  0.5569
19133TIP3    H178814   5.481   1.324  15.273 -0.4991 -0.5616 -0.1584
19133TIP3    H278815   5.557   1.197  15.306  0.6172  0.1890  0.1721
19134TIP3   OH278816   0.312   0.691   4.001  0.3823 -1.0033 -0.1249
19134TIP3    H178817   0.331   0.661   4.090  0.0721 -2.2079 -0.4546
19134TIP3    H278818   0.227   0.734   4.007  0.8765 -0.0882  0.3736
19135TIP3   OH278819   1.893   0.805  15.369  0.2720  0.2057 -0.2151
19135TIP3    H178820   1.893   0.815  15.274 -1.4098  1.7889 -0.0799
19135TIP3    H278821   1.927   0.717  15.384  0.4638 -0.0902 -2.2888
19136TIP3   OH278822   4.133   0.873   3.731  0.1763 -0.2033  0.7571
19136TIP3    H178823   4.049   0.830   3.721  1.6020 -2.7516 -0.6591
19136TIP3    H278824   4.168   0.838   3.813  1.1048 -1.3710 -0.1252
19137TIP3   OH278825   0.276   2.832   4.509 -0.1569  0.1784 -0.2294
19137TIP3    H178826   0.214   2.904   4.499  0.0766  0.1215 -2.1558
19137TIP3    H278827   0.258   2.798   4.597 -3.4127 -0.3509 -1.0232
19138TIP3   OH278828   4.706   5.748  17.075  0.3426 -0.6993  0.2757
19138TIP3    H178829   4.728   5.666  17.030 -0.2423 -0.1963 -0.9407
19138TIP3    H278830   4.634   5.785  17.024  1.1380  0.9786  0.3413
19139TIP3   OH278831   3.484   5.883   5.135 -0.0782  0.0071 -0.2998
19139TIP3    H178832   3.455   5.865   5.224 -0.6210 -1.4066 -0.7376
19139TIP3    H278833   3.457   5.805   5.085 -0.8358  1.2866 -1.9339
19140TIP3   OH278834   3.337   5.971  14.641  0.0061 -0.7833  0.0982
19140TIP3    H178835   3.301   5.995  14.726 -0.2906  0.3349 -0.3332
19140TIP3    H278836   3.293   6.029  14.579  0.4823 -1.3439 -0.7786
19141TIP3   OH278837   3.484   4.957  15.237  0.3841 -0.1096 -0.0253
19141TIP3    H178838   3.394   4.930  15.253  0.2901  0.3728  0.2528
19141TIP3    H278839   3.534   4.917  15.308  0.2882  0.1988  0.2158
19142TIP3   OH278840   4.565   0.652   3.774 -0.2789 -0.4630 -0.3961
19142TIP3    H178841   4.585   0.570   3.728  2.6298 -0.5799  0.9929
19142TIP3    H278842   4.646   0.702   3.770 -1.5797  1.7399  0.1133
19143TIP3   OH278843   4.852   1.700   2.540 -0.2755  0.6590 -0.5623
19143TIP3    H178844   4.762   1.719   2.567  0.4994  3.3863  0.3119
19143TIP3    H278845   4.886   1.642   2.607 -1.3675 -0.4075 -0.9098
19144TIP3   OH278846   4.213   2.504  16.479  0.1397  0.8077  0.5344
19144TIP3    H178847   4.216   2.410  16.498  0.0579  0.3336 -1.6855
19144TIP3    H278848   4.211   2.545  16.565 -1.1902 -1.2686  1.5451
19145TIP3   OH278849   0.062   1.457   4.566  0.1893 -0.1166  0.0183
19145TIP3    H178850   0.028   1.503   4.489 -0.5142 -0.9816 -0.2043
19145TIP3    H278851   0.069   1.366   4.538  1.0707 -0.2360  0.6100
19146TIP3   OH278852   5.270   3.410   1.725 -0.3432  0.0104  0.3043
19146TIP3    H178853   5.248   3.418   1.632 -1.7512  3.0825  0.8276
19146TIP3    H278854   5.185   3.399   1.769 -0.2681  3.8852  1.6241
19147TIP3   OH278855   6.160   3.750  17.015  0.3079  0.2302  0.4921
19147TIP3    H178856   6.211   3.670  17.007  1.5731  1.1410 -0.6292
19147TIP3    H278857   6.185   3.786  17.101 -0.2027 -0.5172  0.9600
19148TIP3   OH278858   6.786   1.011   4.878  0.1955  0.1953  0.3137
19148TIP3    H178859   6.815   1.057   4.956  0.7322  0.3199  0.0402
19148TIP3    H278860   6.736   1.076   4.829 -1.8913 -0.4456  1.5281
19149TIP3   OH278861   0.167   0.567  15.779 -0.1759 -0.2066 -0.0895
19149TIP3    H178862   0.239   0.602  15.726 -0.7866 -0.2084 -0.9466
19149TIP3    H278863   0.096   0.629  15.765  0.3269  0.9973  2.5179
19150TIP3   OH278864   2.519   5.566   5.501 -0.1680 -0.4939  0.1195
19150TIP3    H178865   2.445   5.509   5.522  0.4442 -0.5812  2.1308
19150TIP3    H278866   2.543   5.606   5.584 -0.1559  2.2186 -1.1399
19151TIP3   OH278867   6.360   2.918   6.379  0.4326 -0.7879  0.4969
19151TIP3    H178868   6.343   2.991   6.440  2.4628 -0.4268  0.6552
19151TIP3    H278869   6.452   2.929   6.354 -0.2724 -1.1670 -2.3506
19152TIP3   OH278870   2.353   2.736  16.249  0.0660 -0.4703 -0.1059
19152TIP3    H178871   2.341   2.642  16.237  0.1738 -0.7337  1.5940
19152TIP3    H278872   2.294   2.758  16.321 -0.4575  0.8973 -0.9328
19153TIP3   OH278873   2.920   3.476  14.352 -0.1491  0.8270  0.1805
19153TIP3    H178874   2.929   3.389  14.392 -0.2851  1.3881  1.4586
19153TIP3    H278875   2.975   3.533  14.407 -1.6007  1.9143  0.5353
19154TIP3   OH278876   0.792   2.702   2.151 -0.6202  0.3127  0.0420
19154TIP3    H178877   0.724   2.755   2.193 -0.7993  1.1224 -1.2771
19154TIP3    H278878   0.802   2.627   2.210 -1.6106  0.9164  1.0057
19155TIP3   OH278879   4.121   0.500   3.204 -0.1080 -0.3244 -0.7133
19155TIP3    H178880   4.072   0.489   3.285  2.0247  1.4844  0.8847
19155TIP3    H278881   4.169   0.418   3.194 -1.4265 -1.0903 -0.9169
19156TIP3   OH278882   4.113   0.950   0.358  0.0924  0.8401 -0.2818
19156TIP3    H178883   4.141   1.039   0.377  0.5972  1.0689 -2.0612
19156TIP3    H278884   4.036   0.937   0.413 -0.1164  2.4466 -0.1806
19157TIP3   OH278885   5.477   1.100   4.171 -0.4230 -0.4814 -0.3679
19157TIP3    H178886   5.459   1.020   4.123 -1.1965 -2.1685  2.6095
19157TIP3    H278887   5.570   1.094   4.195 -0.6837 -0.8816  0.5510
19158TIP3   OH278888   5.122   2.573  15.411  0.0640  0.1736 -0.6807
19158TIP3    H178889   5.087   2.518  15.341  0.2833  0.4965 -1.0466
19158TIP3    H278890   5.208   2.600  15.380  0.1416  0.3639 -0.3085
19159TIP3   OH278891   6.685   6.640  14.580 -0.5132 -0.7978  0.4157
19159TIP3    H178892   6.590   6.651  14.587 -0.2842  1.6138  0.2653
19159TIP3    H278893   6.718   6.648  14.670 -0.2943  0.4057  0.2437
19160TIP3   OH278894   1.538   0.381   5.608 -0.0518  0.2891 -0.3657
19160TIP3    H178895   1.520   0.474   5.595  1.5217  0.4949 -1.1002
19160TIP3    H278896   1.573   0.375   5.697  0.8406  0.5349 -0.7036
19161TIP3   OH278897   6.039   3.829  13.482  0.4422 -0.5015  0.0394
19161TIP3    H178898   6.094   3.775  13.539  2.0229  0.0942 -0.8849
19161TIP3    H278899   6.101   3.874  13.424 -0.8990  1.4952  0.0942
19162TIP3   OH278900   1.901   5.856   2.758  0.0001 -0.1225  0.3823
19162TIP3    H178901   1.931   5.816   2.676 -1.0997 -0.9972  0.3883
19162TIP3    H278902   1.876   5.945   2.733 -1.3560 -0.7266 -0.4698
19163TIP3   OH278903   6.775   5.652   2.670 -0.3972 -0.5651  0.0156
19163TIP3    H178904   6.707   5.621   2.729  0.8003 -2.1687  0.5874
19163TIP3    H278905   6.831   5.708   2.725 -0.1107 -0.8826  0.0504
19164TIP3   OH278906   5.556   6.509   1.589  0.1688  0.1614  0.6194
19164TIP3    H178907   5.529   6.426   1.550  0.5518  0.4760 -0.3173
19164TIP3    H278908   5.533   6.575   1.524  0.5202  0.7237  1.0585
19165TIP3   OH278909   1.765   3.083  13.342 -0.5305  0.3081  0.4037
19165TIP3    H178910   1.695   3.131  13.298 -0.3114  0.7170  0.5060
19165TIP3    H278911   1.794   3.141  13.412 -0.1880  0.0762  0.4536
19166TIP3   OH278912   0.196   1.785  16.522 -0.3252 -0.3901 -0.6145
19166TIP3    H178913   0.216   1.855  16.460 -0.9011 -1.9312 -2.6154
19166TIP3    H278914   0.270   1.785  16.583  0.6438  0.6783 -1.7615
19167TIP3   OH278915   6.692   0.428  16.404 -0.0703  0.4954 -0.4762
19167TIP3    H178916   6.766   0.375  16.434  0.3665  1.3012 -0.1432
19167TIP3    H278917   6.665   0.385  16.322 -0.1939 -0.6858  0.1728
19168TIP3   OH278918   0.501   3.890   0.120  0.2843  0.2841  0.2263
19168TIP3    H178919   0.474   3.947   0.192  0.7525 -1.0226  1.4581
19168TIP3    H278920   0.481   3.940   0.041 -0.8742  1.4653  1.2419
19169TIP3   OH278921   2.677   1.298  11.969  0.1878 -0.4433  0.4217
19169TIP3    H178922   2.598   1.253  11.999  0.4475 -0.6190  0.8529
19169TIP3    H278923   2.685   1.275  11.877 -1.2207  0.9689 -0.0717
19170TIP3   OH278924   4.900   5.763   3.319 -0.1591 -0.8974 -0.1368
19170TIP3    H178925   4.941   5.693   3.268  1.7199  0.2110 -0.2143
19170TIP3    H278926   4.857   5.818   3.253  0.1286 -0.8584 -0.2971
19171TIP3   OH278927   4.280   4.678  12.920  0.2980  0.4014  0.3193
19171TIP3    H178928   4.240   4.609  12.974  1.3325 -1.4697 -1.2337
19171TIP3    H278929   4.268   4.649  12.830  0.9391  2.1637 -0.3651
19172TIP3   OH278930   2.219   0.853  16.611  0.5318  0.1908 -0.1288
19172TIP3    H178931   2.218   0.853  16.706 -1.2880  1.4411 -0.1222
19172TIP3    H278932   2.228   0.761  16.586 -0.1332 -0.2455  1.2377
19173TIP3   OH278933   1.193   2.355   4.258 -0.5294 -0.2728 -0.0706
19173TIP3    H178934   1.238   2.286   4.307 -0.3945  0.3369  0.6716
19173TIP3    H278935   1.257   2.384   4.193 -0.2688 -0.2369  0.1993
19174TIP3   OH278936   2.256   2.388   4.405 -0.9066 -0.3323  0.3288
19174TIP3    H178937   2.303   2.335   4.470 -1.5622 -1.4042 -0.0615
19174TIP3    H278938   2.295   2.362   4.322 -0.5520  0.5300  0.2209
19175TIP3   OH278939   1.159   6.239  16.417 -0.0237  0.5976 -0.2085
19175TIP3    H178940   1.243   6.226  16.373 -0.0101  0.3897 -0.1246
19175TIP3    H278941   1.177   6.220  16.509  0.2355  2.2196  0.0937
19176TIP3   OH278942   1.543   1.681   4.734  0.0318 -0.0119 -0.1117
19176TIP3    H178943   1.630   1.703   4.768 -0.9085  1.0570  1.7021
19176TIP3    H278944   1.483   1.730   4.790 -1.6573  0.8759 -2.6453
19177TIP3   OH278945   0.034   6.079  14.772 -0.3483  0.2168 -0.4081
19177TIP3    H178946  -0.008   6.159  14.741  1.0299  0.8253 -0.7454
19177TIP3    H278947   0.041   6.091  14.867 -0.5774  0.2800 -0.3994
19178TIP3   OH278948   4.987   1.200  13.336 -0.2293 -0.8392  0.2674
19178TIP3    H178949   4.922   1.156  13.281 -2.7103  1.7456  0.9902
19178TIP3    H278950   4.936   1.264  13.386  3.1420  2.5800 -0.4681
19179TIP3   OH278951   1.668   5.595  13.081 -0.1452 -0.2585  0.3832
19179TIP3    H178952   1.686   5.677  13.035  1.8789 -1.3473 -0.8203
19179TIP3    H278953   1.650   5.621  13.172 -1.3563  1.6501 -0.3690
19180TIP3   OH278954   0.447   2.886   0.556 -0.4080  0.3853  0.0809
19180TIP3    H178955   0.464   2.819   0.622 -0.4170  0.1989 -0.1039
19180TIP3    H278956   0.516   2.873   0.491  1.1818  2.2465  1.3311
19181TIP3   OH278957   5.630   5.150   6.361 -0.0712 -0.2062  0.7095
19181TIP3    H178958   5.574   5.119   6.289  0.2825 -0.6414  0.6194
19181TIP3    H278959   5.647   5.073   6.414  0.3828 -0.0607  0.7801
19182TIP3   OH278960   6.329   4.844  16.958  0.2519  0.3240 -0.3171
19182TIP3    H178961   6.379   4.768  16.928  0.3921  0.4945 -0.5178
19182TIP3    H278962   6.395   4.902  16.996  0.1251  0.2760 -0.0221
19183TIP3   OH278963   0.282   6.211  15.581 -0.3158  0.1034  0.1939
19183TIP3    H178964   0.301   6.193  15.489 -1.4391 -1.2393  0.2030
19183TIP3    H278965   0.246   6.129  15.615 -1.9689  1.2185  1.2578
19184TIP3   OH278966   5.494   4.930   1.002  0.4751  0.0230 -0.0593
19184TIP3    H178967   5.556   4.943   1.074 -1.4463 -0.5069  1.7405
19184TIP3    H278968   5.529   4.856   0.953  0.6930 -0.9782  1.5793
19185TIP3   OH278969   2.415   5.319  13.072 -0.2404  0.1364  0.3195
19185TIP3    H178970   2.463   5.301  12.992  1.1621 -0.3178  1.2490
19185TIP3    H278971   2.386   5.410  13.063 -1.3686 -0.3634 -1.3323
19186TIP3   OH278972   4.380   0.790  14.642  0.0534  0.0525 -0.4107
19186TIP3    H178973   4.454   0.789  14.703  0.0208 -1.4257 -0.3670
19186TIP3    H278974   4.406   0.729  14.573  0.3912  2.2232 -2.2558
19187TIP3   OH278975   6.140   5.959  12.408 -0.0465  0.3435  0.9114
19187TIP3    H178976   6.137   6.002  12.493 -2.6478  2.4278 -0.1253
19187TIP3    H278977   6.058   5.910  12.403 -0.9038  1.8978 -1.1494
19188TIP3   OH278978   3.709   4.374  12.055 -0.2607  0.2012  0.3359
19188TIP3    H178979   3.754   4.448  12.097  0.6887 -0.3275  0.2561
19188TIP3    H278980   3.779   4.317  12.025 -0.9855 -0.5305  0.0124
19189TIP3   OH278981   6.670   5.829   1.860 -0.3734 -0.7938  0.5335
19189TIP3    H178982   6.672   5.739   1.892 -2.5324 -0.9340  0.3456
19189TIP3    H278983   6.642   5.881   1.936  1.0495 -0.2334  0.6980
19190TIP3   OH278984   4.394   3.634  12.096 -0.1355  0.7194 -0.3322
19190TIP3    H178985   4.447   3.556  12.110 -0.8204  0.2045 -0.5440
19190TIP3    H278986   4.424   3.696  12.162  0.8461  0.5021 -0.5680
19191TIP3   OH278987   0.145   3.139  13.677  0.1236 -0.7772 -0.5514
19191TIP3    H178988   0.240   3.136  13.686  0.1196  1.6719  0.7774
19191TIP3    H278989   0.112   3.100  13.757  0.0351  0.6451  0.1185
19192TIP3   OH278990   3.646   4.643  11.253 -0.5749  0.8868  0.2644
19192TIP3    H178991   3.712   4.640  11.322 -2.0358 -1.5620  1.6172
19192TIP3    H278992   3.564   4.661  11.299 -1.6153 -1.0589 -0.7665
19193TIP3   OH278993   3.543   5.952  15.358 -0.4014  0.2700 -0.0223
19193TIP3    H178994   3.594   5.904  15.422 -0.4377 -1.8941 -1.5593
19193TIP3    H278995   3.452   5.944  15.388 -0.0516  2.7799  1.8517
19194TIP3   OH278996   3.313   0.436  10.999 -0.5664  0.0715 -0.6366
19194TIP3    H178997   3.264   0.387  11.066 -0.0794 -1.5233 -1.4399
19194TIP3    H278998   3.283   0.399  10.916  0.7518  0.2520 -1.2011
19195TIP3   OH278999   5.535   5.159  16.090 -0.5825  0.1974  0.6592
19195TIP3    H179000   5.555   5.211  16.012 -0.9841 -0.7101 -0.0595
19195TIP3    H279001   5.619   5.144  16.133 -0.2134 -0.2765 -0.2267
19196TIP3   OH279002   1.807   4.007   2.976 -0.2811  0.3737  0.2889
19196TIP3    H179003   1.719   4.045   2.984  0.5301  2.4570 -0.6419
19196TIP3    H279004   1.807   3.968   2.889  0.1087  1.3771 -0.1596
19197TIP3   OH279005   2.823   0.177   1.449 -0.0378  0.0948 -0.2068
19197TIP3    H179006   2.797   0.086   1.434 -0.5857  0.3467 -0.7859
19197TIP3    H279007   2.910   0.184   1.411  0.0810 -0.2372  0.0051
19198TIP3   OH279008   5.669   0.954   1.610 -0.0055  0.0824 -0.1620
19198TIP3    H179009   5.590   0.972   1.660 -0.6629  0.0471 -1.1674
19198TIP3    H279010   5.708   0.877   1.652  0.5023  1.2136  1.4867
19199TIP3   OH279011   4.871   3.759   0.637 -0.0883  0.0599 -0.8497
19199TIP3    H179012   4.905   3.760   0.547  0.6899  0.7838 -0.5580
19199TIP3    H279013   4.800   3.696   0.635 -0.0796  0.0727 -1.9846
19200TIP3   OH279014   2.609   4.703   5.505  0.8848 -0.7310 -0.2099
19200TIP3    H179015   2.695   4.665   5.486  1.6100  1.5911 -1.8878
19200TIP3    H279016   2.553   4.673   5.433  1.8770  2.5402 -2.4590
19201TIP3   OH279017   6.667   0.313   1.544 -0.0925 -0.2656 -0.0349
19201TIP3    H179018   6.759   0.295   1.561  0.0530  0.7285  0.2639
19201TIP3    H279019   6.624   0.228   1.549  0.4642 -0.4444  2.1155
19202TIP3   OH279020   5.307   0.416  13.791  0.8839 -1.0801 -0.5341
19202TIP3    H179021   5.213   0.428  13.805  0.8188 -0.7922 -1.1867
19202TIP3    H279022   5.344   0.411  13.879  0.3112 -0.7598 -0.2714
19203TIP3   OH279023   3.436   2.477  13.367 -0.1988 -0.3237  0.1861
19203TIP3    H179024   3.381   2.401  13.345 -2.3635  1.4671 -0.7700
19203TIP3    H279025   3.380   2.532  13.422  0.6741  1.5035 -0.7150
19204TIP3   OH279026   6.161   0.089   5.615 -0.6947  0.0448 -0.5462
19204TIP3    H179027   6.206   0.055   5.537 -1.1544  1.8341 -1.6205
19204TIP3    H279028   6.068   0.077   5.595 -0.7890 -0.2989  0.1067
19205TIP3   OH279029   0.164   5.512   1.311 -0.2793  0.4421  0.4141
19205TIP3    H179030   0.245   5.540   1.269  0.2482 -0.8629  0.5284
19205TIP3    H279031   0.105   5.493   1.238  0.5892 -1.6798  0.2112
19206TIP3   OH279032   6.345   2.136   0.297 -0.3252  0.7601  0.1321
19206TIP3    H179033   6.402   2.102   0.228 -1.3730  0.9365 -0.8265
19206TIP3    H279034   6.279   2.188   0.251 -1.3546  0.4384  1.2089
19207TIP3   OH279035   3.197   6.481  16.214  0.4270  0.0018  0.8969
19207TIP3    H179036   3.204   6.387  16.230 -0.8144 -0.0953  0.9082
19207TIP3    H279037   3.105   6.502  16.232 -0.3213  0.4693 -3.1425
19208TIP3   OH279038   3.265   2.689   1.763  0.3682 -0.2567 -0.1395
19208TIP3    H179039   3.250   2.607   1.810 -0.7623  0.7708  1.3653
19208TIP3    H279040   3.304   2.663   1.680 -0.1098 -2.3188  0.2605
19209TIP3   OH279041   5.179   4.492   3.958  0.0098 -0.2065  0.3745
19209TIP3    H179042   5.183   4.588   3.958 -1.1390 -0.1544 -0.1490
19209TIP3    H279043   5.220   4.467   4.041  3.3653  0.5829 -0.9790
19210TIP3   OH279044   0.432   6.698  11.344  0.2817  0.3187 -0.1060
19210TIP3    H179045   0.381   6.634  11.295  0.9465 -1.5112  1.5159
19210TIP3    H279046   0.499   6.728  11.283  0.6086 -1.3219 -0.5737
19211TIP3   OH279047   3.527   0.860  14.574  0.3825 -0.3099 -0.2547
19211TIP3    H179048   3.580   0.881  14.651 -0.9380 -1.0427  0.8856
19211TIP3    H279049   3.582   0.802  14.522  1.8199  1.2917 -0.5641
19212TIP3   OH279050   0.514   2.451   2.143  0.0248 -0.0904  0.2529
19212TIP3    H179051   0.559   2.398   2.078 -0.2174  0.1073 -0.0796
19212TIP3    H279052   0.576   2.458   2.215 -0.1180 -1.2149  0.4974
19213TIP3   OH279053   0.758   5.695   1.127  0.1588 -0.1352 -0.1468
19213TIP3    H179054   0.714   5.679   1.211 -0.2040 -0.7727 -0.4558
19213TIP3    H279055   0.829   5.756   1.149 -0.2671  0.1290  0.5249
19214TIP3   OH279056   3.160   2.045   0.433  0.3204 -0.2469 -0.4432
19214TIP3    H179057   3.210   2.090   0.365 -1.7331  0.0700 -1.8037
19214TIP3    H279058   3.089   2.106   0.455  0.3795 -0.7749  1.2477
19215TIP3   OH279059   6.405   2.763  14.755  0.0963  0.2237  0.2557
19215TIP3    H179060   6.402   2.760  14.659 -2.1338  0.9460  0.2743
19215TIP3    H279061   6.376   2.851  14.777  0.6642  0.0850  1.6194
19216TIP3   OH279062   1.343   4.460   0.983 -0.1502  0.6590  0.4508
19216TIP3    H179063   1.362   4.535   0.927 -1.7691 -0.7053 -2.0416
19216TIP3    H279064   1.392   4.387   0.943 -1.3996 -0.3468  0.7159
19217TIP3   OH279065   0.429   0.341   1.667 -0.4262 -0.1267  0.5866
19217TIP3    H179066   0.431   0.248   1.690  0.9544 -0.4256 -0.6413
19217TIP3    H279067   0.521   0.364   1.651 -0.9128  1.0581 -0.6154
19218TIP3   OH279068   6.403   2.961   2.390 -0.4585  0.5960  0.4051
19218TIP3    H179069   6.484   2.922   2.358 -0.5899  0.1029  0.6692
19218TIP3    H279070   6.390   2.921   2.476 -1.1193  0.4830  0.2510
19219TIP3   OH279071   5.353   4.844  14.270  0.0163  0.1132 -0.0515
19219TIP3    H179072   5.446   4.828  14.253  0.8902  1.8250  2.8313
19219TIP3    H279073   5.337   4.932  14.237 -0.4712  0.0071 -0.0995
19220TIP3   OH279074   0.601   2.298   1.203  0.4455 -0.1257 -0.6723
19220TIP3    H179075   0.670   2.323   1.141  1.1373 -0.1622  0.0762
19220TIP3    H279076   0.527   2.275   1.148  0.7372  0.7955 -1.4620
19221TIP3   OH279077   2.329   2.243  16.693  0.3402 -0.0196  0.1427
19221TIP3    H179078   2.284   2.314  16.738 -0.2606 -1.5822  2.1196
19221TIP3    H279079   2.381   2.201  16.762  0.8700 -1.3354 -1.0330
19222TIP3   OH279080   0.511   2.238  11.273 -0.3326  0.4118  0.6737
19222TIP3    H179081   0.480   2.163  11.323  1.3047 -0.6849  0.0745
19222TIP3    H279082   0.431   2.279  11.241 -1.2285 -1.7370  0.0570
19223TIP3   OH279083   4.113   6.254  11.213  0.5898  0.2428  0.5654
19223TIP3    H179084   4.203   6.258  11.246  0.3782  2.3212  0.9359
19223TIP3    H279085   4.122   6.219  11.124  1.7243  0.0626  0.7389
19224TIP3   OH279086   5.712   1.112   5.352 -0.0893  0.3732 -0.4824
19224TIP3    H179087   5.741   1.038   5.298 -0.3197  0.3716 -0.6059
19224TIP3    H279088   5.648   1.157   5.298  1.6843  1.9726 -1.2812
19225TIP3   OH279089   1.101   2.657   1.513  0.0183  0.0515 -0.2945
19225TIP3    H179090   1.136   2.734   1.470  0.1901  0.2799  0.2486
19225TIP3    H279091   1.178   2.604   1.535 -0.0663 -0.0583 -0.2583
19226TIP3   OH279092   6.005   2.083  10.526 -0.5977 -0.8006 -0.2380
19226TIP3    H179093   6.083   2.119  10.483 -0.9699 -0.7929 -0.9116
19226TIP3    H279094   5.988   2.001  10.479 -1.5782 -0.3128 -0.7558
19227TIP3   OH279095   5.340   3.212  13.079  0.2745  0.4764  0.1512
19227TIP3    H179096   5.277   3.145  13.051  1.9687 -1.5975  1.2081
19227TIP3    H279097   5.290   3.270  13.136 -1.0533 -0.2332 -0.2702
19228TIP3   OH279098   0.359   3.473   4.123  0.2219 -0.7665 -0.2205
19228TIP3    H179099   0.279   3.509   4.084  0.9374 -1.0924 -2.0343
19228TIP3    H279100   0.406   3.549   4.155 -1.0582 -0.6154  1.3561
19229TIP3   OH279101   0.204   5.612   5.704 -0.3223  0.0085  0.7300
19229TIP3    H179102   0.191   5.698   5.665 -0.5820 -0.2358  0.2833
19229TIP3    H279103   0.208   5.551   5.630  0.4921 -0.2864  1.0045
19230TIP3   OH279104   5.384   3.707   3.504 -0.3319  0.0304 -0.0648
19230TIP3    H179105   5.477   3.711   3.481 -0.4707 -1.2370 -0.8710
19230TIP3    H279106   5.357   3.799   3.508  1.0480  0.4274  0.5968
19231TIP3   OH279107   0.565   1.852  10.772  0.1274 -0.0241 -0.0468
19231TIP3    H179108   0.513   1.853  10.691  0.5814 -2.5821 -0.4262
19231TIP3    H279109   0.645   1.898  10.750 -1.3560  2.7466  0.1311
19232TIP3   OH279110   0.130   4.382   5.708 -0.0740  0.1752 -0.1631
19232TIP3    H179111   0.060   4.381   5.774 -0.4823 -1.3685 -0.5932
19232TIP3    H279112   0.098   4.323   5.640  2.4263 -1.9683  0.4487
19233TIP3   OH279113   6.061   1.752   4.387  0.4368 -0.5525 -0.3577
19233TIP3    H179114   6.008   1.768   4.309  0.1806  1.3534  0.1775
19233TIP3    H279115   5.997   1.738   4.457  0.6568 -0.2092 -0.0889
19234TIP3   OH279116   0.954   5.305   0.937  0.0299 -0.8305  0.2436
19234TIP3    H179117   0.974   5.214   0.914 -0.3852 -0.6158 -0.9813
19234TIP3    H279118   1.036   5.339   0.972 -0.0683 -1.9550  1.6077
19235TIP3   OH279119   3.510   5.385   4.680  0.2419  0.2418  0.3183
19235TIP3    H179120   3.436   5.339   4.721  0.2899 -0.3855 -0.2897
19235TIP3    H279121   3.486   5.478   4.685  0.7389  0.2852  2.7277
19236TIP3   OH279122   1.115   2.552   1.897 -0.0936  0.0691  0.0175
19236TIP3    H179123   1.148   2.639   1.918  1.3903 -0.5328  0.2494
19236TIP3    H279124   1.063   2.564   1.818  1.0744  0.9778 -0.6331
19237TIP3   OH279125   0.193   3.547  14.546  0.5350 -0.2396  0.2579
19237TIP3    H179126   0.161   3.532  14.635  1.4330  0.4191  0.6985
19237TIP3    H279127   0.188   3.642  14.535 -1.4232 -0.4677 -1.1042
19238TIP3   OH279128   3.839   3.074  11.197 -0.5641  0.4809  0.5036
19238TIP3    H179129   3.884   2.994  11.169 -1.2516 -0.1603  1.2203
19238TIP3    H279130   3.905   3.143  11.187 -0.0270 -0.1320 -0.3121
19239TIP3   OH279131   6.524   3.395  13.398 -0.7176 -0.3802  0.4726
19239TIP3    H179132   6.482   3.479  13.386  2.0453  0.5914 -3.2063
19239TIP3    H279133   6.565   3.375  13.314 -0.9632 -5.2495  1.3198
19240TIP3   OH279134   5.797   3.689  13.610  0.1389 -0.1315  0.3155
19240TIP3    H179135   5.854   3.716  13.538 -0.4086  1.7556  0.5815
19240TIP3    H279136   5.837   3.725  13.689  0.3082 -1.5300  0.8955
19241TIP3   OH279137   4.239   4.696   5.272 -0.1851 -0.0317  0.3167
19241TIP3    H179138   4.326   4.661   5.288 -0.2566 -0.4396 -0.1578
19241TIP3    H279139   4.181   4.620   5.283 -0.3280 -0.1016 -0.8490
19242TIP3   OH279140   0.264   2.052  13.925  0.0743  0.0909 -0.2579
19242TIP3    H179141   0.268   1.957  13.933  0.0211  0.1126  0.0625
19242TIP3    H279142   0.242   2.082  14.013  3.1364  0.5844  0.4125
19243TIP3   OH279143   1.191   6.636   4.608  0.0691  0.3184 -0.0969
19243TIP3    H179144   1.180   6.714   4.661 -2.1088  0.6045 -0.9067
19243TIP3    H279145   1.115   6.635   4.550 -0.1997 -2.6523  0.2127
19244TIP3   OH279146   2.445   0.380  11.186  0.2963 -0.2649 -0.4868
19244TIP3    H179147   2.514   0.362  11.123 -0.7259 -0.0895 -1.6777
19244TIP3    H279148   2.433   0.475  11.182  0.9871 -0.1093  0.7942
19245TIP3   OH279149   1.916   1.279   2.562 -0.1134 -0.4826  0.3067
19245TIP3    H179150   1.864   1.352   2.528  0.1065 -0.3465  0.2557
19245TIP3    H279151   1.970   1.251   2.488  0.4092 -0.1460  0.5510
19246TIP3   OH279152   5.789   5.452   3.508 -0.3073 -0.2608 -0.7507
19246TIP3    H179153   5.744   5.393   3.449 -1.2634 -0.5176  0.2165
19246TIP3    H279154   5.774   5.415   3.595  0.0532  0.7692 -0.2414
19247TIP3   OH279155   2.860   0.771   5.429 -0.1964  0.3064  0.3007
19247TIP3    H179156   2.914   0.774   5.350  0.3292  0.7990  0.6774
19247TIP3    H279157   2.878   0.854   5.474 -2.6358  1.2912 -0.4688
19248TIP3   OH279158   1.584   0.178  13.639 -0.2827  0.2321  0.1133
19248TIP3    H179159   1.537   0.100  13.669  0.5724 -0.4412 -0.2790
19248TIP3    H279160   1.677   0.153  13.642 -0.0254  1.0930 -0.4123
19249TIP3   OH279161   3.701   5.989  12.523 -0.1379 -0.8797  0.2933
19249TIP3    H179162   3.673   5.906  12.562 -0.4711 -0.6767  0.4843
19249TIP3    H279163   3.675   5.981  12.431 -0.9452 -0.6445  0.4938
19250TIP3   OH279164   4.873   2.728  12.058 -0.0951 -0.0649 -0.4493
19250TIP3    H179165   4.958   2.743  12.098  0.1392 -1.1075 -0.5467
19250TIP3    H279166   4.869   2.633  12.042 -0.0483  0.3284 -3.1739
19251TIP3   OH279167   1.903   2.284  13.744 -0.3183  0.8070  0.3920
19251TIP3    H179168   1.809   2.267  13.739 -0.5023  1.9322 -0.1107
19251TIP3    H279169   1.920   2.344  13.671  0.9124  0.0594  0.0611
19252TIP3   OH279170   3.722   4.859   4.519  0.5265 -0.3000  0.1780
19252TIP3    H179171   3.686   4.862   4.431  2.2501  2.8070 -0.4961
19252TIP3    H279172   3.646   4.848   4.576 -1.2957  3.4366 -1.3453
19253TIP3   OH279173   0.648   6.535   2.478  0.1407 -0.0275 -0.2561
19253TIP3    H179174   0.636   6.550   2.571  1.0339 -1.4422  0.1034
19253TIP3    H279175   0.717   6.469   2.473 -2.3925 -2.6758 -1.8023
19254TIP3   OH279176   1.305   6.738   5.917  0.7924 -0.6989 -0.2215
19254TIP3    H179177   1.388   6.783   5.929 -0.1080  0.9135  0.1527
19254TIP3    H279178   1.247   6.804   5.880 -0.4733 -1.6643 -0.0093
19255TIP3   OH279179   2.844   2.635  15.801 -0.0577 -0.2949 -0.2594
19255TIP3    H179180   2.934   2.657  15.777 -0.1971 -1.2970 -1.7148
19255TIP3    H279181   2.792   2.709  15.769  0.1504 -0.0951 -0.1350
19256TIP3   OH279182   4.906   4.625  16.219 -0.2199 -0.7671 -0.5188
19256TIP3    H179183   4.817   4.601  16.245 -0.4061  0.6580  0.2080
19256TIP3    H279184   4.895   4.703  16.166  0.8094  1.2730  2.1622
19257TIP3   OH279185   2.483   2.051  13.682  0.5391  0.2468 -0.0441
19257TIP3    H179186   2.434   2.129  13.653  0.4013 -0.2747 -1.2433
19257TIP3    H279187   2.469   1.987  13.612  0.8118 -0.7978  0.8468
19258TIP3   OH279188   3.542   6.242  12.569  0.6097  0.3729 -0.3018
19258TIP3    H179189   3.559   6.153  12.598  0.0752  0.4682  0.3122
19258TIP3    H279190   3.447   6.254  12.579  0.4391  0.4839 -1.8886
19259TIP3   OH279191   5.083   3.729  14.798  0.1718  0.4167 -0.5938
19259TIP3    H179192   5.003   3.737  14.746  0.8281 -1.4728 -1.9182
19259TIP3    H279193   5.150   3.772  14.745  0.9177 -1.8307 -1.4851
19260TIP3   OH279194   1.769   0.627  15.679  0.9574 -0.3200  0.3785
19260TIP3    H179195   1.687   0.577  15.677  0.9048 -0.2655  1.2052
19260TIP3    H279196   1.782   0.650  15.771  0.4624  2.0555 -0.1106
19261TIP3   OH279197   3.791   3.885   6.109  0.0603  0.1168  0.6182
19261TIP3    H179198   3.854   3.817   6.133 -1.3367 -1.3039  0.3577
19261TIP3    H279199   3.748   3.908   6.191  2.8038  3.1043  1.2963
19262TIP3   OH279200   6.719   3.686   0.698  0.5209  0.5261 -0.0217
19262TIP3    H179201   6.801   3.700   0.745  0.4453  1.3413 -0.1239
19262TIP3    H279202   6.723   3.747   0.624 -0.3603  0.8670  0.2050
19263TIP3   OH279203   5.770   0.108  12.302 -0.3921  0.3401 -0.0077
19263TIP3    H179204   5.699   0.073  12.356  0.3137 -2.0486 -0.5541
19263TIP3    H279205   5.755   0.070  12.215 -0.7550  3.0764 -1.1898
19264TIP3   OH279206   3.944   0.017  14.455 -0.3735 -0.6948 -0.4745
19264TIP3    H179207   3.883  -0.031  14.510  0.3425  1.3054  2.1705
19264TIP3    H279208   3.892   0.087  14.415  0.0023  0.5524  1.1874
19265TIP3   OH279209   3.501   0.793   4.987 -0.2268 -0.5784 -0.5976
19265TIP3    H179210   3.454   0.756   5.062  1.7556 -1.5508  0.2018
19265TIP3    H279211   3.470   0.883   4.982 -0.4604 -0.5177  1.3644
19266TIP3   OH279212   4.464   6.570   0.319  0.4251  0.3351 -0.3452
19266TIP3    H179213   4.556   6.561   0.340  0.2368 -0.7358  0.0707
19266TIP3    H279214   4.453   6.662   0.295  1.5909  0.4669 -0.3881
19267TIP3   OH279215   0.046   2.083   4.373  0.2356  0.3483  0.2484
19267TIP3    H179216   0.079   2.006   4.326  0.0441  0.6483 -0.3773
19267TIP3    H279217  -0.008   2.129   4.309 -1.2103 -0.0051  1.1875
19268TIP3   OH279218   0.696   6.344  12.466  0.9757  0.0771 -0.0536
19268TIP3    H179219   0.749   6.372  12.540 -0.5169  0.2734  0.9597
19268TIP3    H279220   0.710   6.412  12.400  0.3621  1.2114  0.9705
19269TIP3   OH279221   2.148   6.189   2.927  0.4580 -0.5910 -0.2981
19269TIP3    H179222   2.218   6.204   2.991  0.0172  0.6703 -0.0834
19269TIP3    H279223   2.193   6.177   2.844  0.9919 -1.1470  0.0696
19270TIP3   OH279224   2.378   6.268   5.933  0.8389 -0.5285  0.1718
19270TIP3    H179225   2.373   6.178   5.965  2.3196 -0.7757 -0.2729
19270TIP3    H279226   2.312   6.315   5.984 -1.1724 -2.2147 -0.8038
19271TIP3   OH279227   0.267   4.937   2.505 -0.2597  0.2252 -0.0193
19271TIP3    H179228   0.213   4.862   2.529  1.2827 -0.9561 -0.1756
19271TIP3    H279229   0.357   4.904   2.510  0.5060  2.3668  1.0188
19272TIP3   OH279230   5.802   6.692   0.722  0.2719  0.6270 -0.4852
19272TIP3    H179231   5.777   6.604   0.694  0.0424  0.6869 -0.4690
19272TIP3    H279232   5.753   6.750   0.664  0.2166  0.7462 -0.3170
19273TIP3   OH279233   4.628   2.219   5.664 -0.0829 -0.2129 -0.0423
19273TIP3    H179234   4.618   2.196   5.756 -2.7278 -0.0718 -0.2586
19273TIP3    H279235   4.649   2.137   5.619  0.9032 -0.3278  0.6093
19274TIP3   OH279236   5.378   4.319  11.768  0.2299  0.4554 -0.3312
19274TIP3    H179237   5.455   4.333  11.714 -0.9022 -1.6021 -2.5330
19274TIP3    H279238   5.306   4.357  11.718 -0.1939  2.5674  1.8090
19275TIP3   OH279239   5.087   2.892   3.452  0.1660 -0.5833 -0.5622
19275TIP3    H179240   5.126   2.810   3.424  0.5489 -1.1462  1.5369
19275TIP3    H279241   5.007   2.867   3.498  0.7218  0.1317  0.8405
19276TIP3   OH279242   5.288   5.923  16.620 -0.3002 -0.8055  0.5985
19276TIP3    H179243   5.261   6.015  16.622  1.2216 -0.3338  0.1374
19276TIP3    H279244   5.259   5.887  16.703 -0.1512  0.3107  1.1339
19277TIP3   OH279245   5.469   6.440  12.227 -0.0476 -0.1176 -0.0218
19277TIP3    H179246   5.549   6.456  12.277 -0.7668 -0.9988  1.4782
19277TIP3    H279247   5.490   6.367  12.169 -0.4441 -2.0105  2.1346
19278TIP3   OH279248   6.653   2.077   5.793  0.1639 -0.2175 -0.0513
19278TIP3    H179249   6.653   2.153   5.850  1.6742  1.3331 -2.0208
19278TIP3    H279250   6.720   2.020   5.828 -0.7492 -0.5069  1.2443
19279TIP3   OH279251   0.059   6.636   3.515  0.0534  0.4720 -0.1332
19279TIP3    H179252  -0.036   6.632   3.514 -0.0411  2.3363  0.7868
19279TIP3    H279253   0.080   6.711   3.571  2.0295  1.2576 -1.8685
19280TIP3   OH279254   3.723   3.401   5.005  0.3125 -0.1141  0.2255
19280TIP3    H179255   3.792   3.393   4.939 -0.7897 -0.4153 -0.9106
19280TIP3    H279256   3.721   3.315   5.047  1.0580  0.0969  0.7197
19281TIP3   OH279257   1.924   2.710  12.633 -0.1540  0.3645 -0.7387
19281TIP3    H179258   1.874   2.756  12.566  0.7093  0.0293 -1.6302
19281TIP3    H279259   1.918   2.765  12.710  1.8751  2.6402 -2.1161
19282TIP3   OH279260   0.227   2.895  16.752 -0.1205  0.2307 -0.3736
19282TIP3    H179261   0.207   2.984  16.782  1.2949  0.4816 -0.1553
19282TIP3    H279262   0.259   2.906  16.663 -3.4017 -0.4273 -1.7005
19283TIP3   OH279263   5.090   2.030  12.741 -0.2217 -0.4244 -0.3995
19283TIP3    H179264   5.031   1.995  12.807  0.4211  0.2983  0.5716
19283TIP3    H279265   5.045   2.106  12.705  0.2661  0.3473  0.6029
19284TIP3   OH279266   5.911   0.685  12.745  0.1205 -0.4217  0.6855
19284TIP3    H179267   5.837   0.734  12.710  0.2282  0.5466  1.8060
19284TIP3    H279268   5.988   0.739  12.724  0.2323 -0.0627  1.9855
19285TIP3   OH279269   1.606   5.304  13.081  0.7041 -0.3207 -0.5531
19285TIP3    H179270   1.591   5.303  13.175 -2.5737 -0.3106 -1.0181
19285TIP3    H279271   1.643   5.390  13.064 -0.6521  0.4998  0.4891
19286TIP3   OH279272   4.001   2.343  13.085  0.3055 -0.0779  0.2207
19286TIP3    H179273   3.907   2.333  13.079  0.5239 -2.2519  0.2915
19286TIP3    H279274   4.023   2.321  13.175  1.0351 -0.9655 -0.1665
19287TIP3   OH279275   6.059   6.558  16.793  0.0828 -0.2470  0.1464
19287TIP3    H179276   5.992   6.545  16.860  0.4380  0.0846  0.5765
19287TIP3    H279277   6.022   6.520  16.713  0.2763 -2.0649  0.8914
19288TIP3   OH279278   1.188   2.933  14.596  0.3735 -0.5256  0.4628
19288TIP3    H179279   1.159   2.842  14.597  0.5260 -0.5750  0.3787
19288TIP3    H279280   1.153   2.970  14.677 -1.0719 -0.2282 -0.2737
19289TIP3   OH279281   2.732   1.647   1.080  0.2709 -0.4649 -0.1268
19289TIP3    H179282   2.650   1.694   1.093  0.9420  0.3999  1.0849
19289TIP3    H279283   2.783   1.703   1.021 -0.5195 -1.6525 -1.9934
19290TIP3   OH279284   1.308   1.497  14.584 -0.7253  0.1342  0.2444
19290TIP3    H179285   1.266   1.572  14.542  0.6702  0.7052 -0.1744
19290TIP3    H279286   1.282   1.504  14.676  0.1384  1.6947  0.3968
19291TIP3   OH279287   0.506   2.469  11.565 -0.0138 -0.3328  0.1906
19291TIP3    H179288   0.586   2.483  11.514 -0.2993  2.0358  0.3208
19291TIP3    H279289   0.453   2.410  11.512  1.3925 -1.1015 -0.3667
19292TIP3   OH279290   1.656   3.230   3.487 -0.0518  0.3730 -0.2149
19292TIP3    H179291   1.582   3.184   3.447 -1.3444  2.3637 -0.1882
19292TIP3    H279292   1.642   3.219   3.582 -0.2378  0.6454 -0.2117
19293TIP3   OH279293   0.426   0.625   0.314 -0.1383 -0.1402  1.0360
19293TIP3    H179294   0.454   0.606   0.225  0.7445  1.7589  0.8766
19293TIP3    H279295   0.498   0.595   0.369 -0.1234 -0.1471  1.0130
19294TIP3   OH279296   5.773   1.068  14.658  0.6079 -0.3442  0.3418
19294TIP3    H179297   5.824   1.093  14.734  1.2191 -0.7758  0.0725
19294TIP3    H279298   5.824   1.098  14.583 -0.4201  0.9050  0.1043
19295TIP3   OH279299   3.522   3.907  12.951 -0.3190  0.8550  0.4370
19295TIP3    H179300   3.500   3.886  13.041  0.4719  0.2636  0.5025
19295TIP3    H279301   3.608   3.950  12.956 -1.0821  2.4365  0.1279
19296TIP3   OH279302   4.980   0.534   0.953 -0.4644  0.0799 -0.4652
19296TIP3    H179303   4.914   0.474   0.919  0.3006 -0.7957 -0.4247
19296TIP3    H279304   4.996   0.596   0.882 -0.3216 -0.5421 -0.9750
19297TIP3   OH279305   5.003   4.049   2.184 -0.4577 -0.6623  0.1329
19297TIP3    H179306   4.943   4.074   2.254  0.1170 -1.4628  0.9215
19297TIP3    H279307   5.065   3.989   2.226  0.2045 -0.7355 -0.9394
19298TIP3   OH279308   4.369   1.890  16.548 -0.0499 -0.6111  0.0618
19298TIP3    H179309   4.362   1.921  16.639  1.3136 -2.9480  1.0153
19298TIP3    H279310   4.462   1.870  16.537  0.3693  2.5245 -2.8912
19299TIP3   OH279311   1.163   3.268  14.991 -0.0847 -0.3131 -0.2209
19299TIP3    H179312   1.093   3.212  14.957 -0.0899  0.6528 -1.8514
19299TIP3    H279313   1.118   3.349  15.017  0.3414  0.0942 -0.7444
19300TIP3   OH279314   3.685   3.976   2.229 -0.1228 -0.1322  0.4409
19300TIP3    H179315   3.725   4.027   2.159  0.1462 -1.7116 -0.5857
19300TIP3    H279316   3.591   3.997   2.222 -0.0029  0.3157  0.1133
19301TIP3   OH279317   6.531   5.607   6.096 -0.0535  0.3084  0.3515
19301TIP3    H179318   6.612   5.656   6.079 -1.1332  1.6062 -1.1663
19301TIP3    H279319   6.471   5.633   6.026 -1.6555 -0.9829  1.1906
19302TIP3   OH279320   4.834   1.551  13.115  0.1758 -1.0900 -0.1599
19302TIP3    H179321   4.772   1.599  13.060 -0.1347 -1.0857  0.1955
19302TIP3    H279322   4.782   1.520  13.189  0.9794  0.5065  1.0959
19303TIP3   OH279323   4.451   4.661   6.494  0.1832 -0.1329  0.0759
19303TIP3    H179324   4.476   4.592   6.432 -0.0251 -0.2199  0.0862
19303TIP3    H279325   4.355   4.654   6.500  0.1054  0.5039 -0.3320
19304TIP3   OH279326   0.953   4.135   5.404 -0.0849  0.2587 -0.3123
19304TIP3    H179327   0.926   4.049   5.436  0.3284  0.6832  1.2248
19304TIP3    H279328   0.915   4.197   5.466  0.1388  1.1448 -1.0489
19305TIP3   OH279329   6.151   6.715  13.309  0.1781 -0.3009 -0.1900
19305TIP3    H179330   6.074   6.663  13.331 -0.7471  0.1076 -2.3818
19305TIP3    H279331   6.218   6.650  13.286  0.2056 -0.6148  0.7402
19306TIP3   OH279332   2.622   4.465  14.158 -0.3606  0.2948  0.2839
19306TIP3    H179333   2.679   4.389  14.149 -1.0373 -0.1328 -0.4091
19306TIP3    H279334   2.571   4.467  14.077 -1.8911  0.2257  1.2167
19307TIP3   OH279335   4.279   6.706   2.817 -0.2743 -0.1078  0.4594
19307TIP3    H179336   4.206   6.739   2.765  0.4044  0.0670 -0.3987
19307TIP3    H279337   4.350   6.769   2.801 -0.2315  0.2603  2.0475
19308TIP3   OH279338   1.727   6.450   1.689  0.3912  0.8286  0.3079
19308TIP3    H179339   1.670   6.516   1.727  0.3302  0.8870  0.1121
19308TIP3    H279340   1.799   6.442   1.752  0.1063  0.6655  0.6146
19309TIP3   OH279341   3.711   3.020   2.946  0.2284 -0.1091 -0.0000
19309TIP3    H179342   3.751   3.050   2.864  1.7673  1.3556  1.2209
19309TIP3    H279343   3.785   3.015   3.007 -0.8578 -1.4285  1.2320
19310TIP3   OH279344   3.552   6.021  11.459  0.5569 -0.1312 -0.1266
19310TIP3    H179345   3.551   6.005  11.554 -1.1058  0.0560 -0.1029
19310TIP3    H279346   3.608   6.098  11.449  0.5490 -0.0054  0.7320
19311TIP3   OH279347   0.385   2.086   4.400 -0.0554  0.5524 -0.2065
19311TIP3    H179348   0.439   2.164   4.403  0.2619  0.3414 -0.4342
19311TIP3    H279349   0.317   2.102   4.466  0.7600  0.4688  0.6778
19312TIP3   OH279350   2.070   2.628   3.359  0.7198  0.2545 -0.6660
19312TIP3    H179351   2.103   2.561   3.300 -0.9700 -1.9887  0.8584
19312TIP3    H279352   2.108   2.607   3.444  1.5946  2.3061 -0.5133
19313TIP3   OH279353   0.646   0.604   4.311  0.2482 -0.0808  0.0900
19313TIP3    H179354   0.571   0.597   4.370  0.7037  0.3843  0.7220
19313TIP3    H279355   0.712   0.652   4.361  1.0392 -0.6457 -0.3956
19314TIP3   OH279356   5.807   1.443  15.630 -0.0575 -0.1388 -0.1975
19314TIP3    H179357   5.844   1.429  15.542  0.5062 -0.4641  0.0898
19314TIP3    H279358   5.848   1.524  15.660  0.3521 -0.4473  0.0809
19315TIP3   OH279359   1.612   6.640   2.125 -0.1587  0.2660 -0.1194
19315TIP3    H179360   1.622   6.607   2.215 -2.5328 -0.7074 -0.1821
19315TIP3    H279361   1.587   6.731   2.136 -1.2040 -0.0512  0.2587
19316TIP3   OH279362   1.069   5.848   0.116 -0.1806  0.3578 -0.0306
19316TIP3    H179363   1.067   5.910   0.042  2.0850  2.0837  1.2699
19316TIP3    H279364   1.149   5.797   0.101 -0.7520 -0.5879  0.1957
19317TIP3   OH279365   5.076   4.306   0.679 -0.3254 -0.0023  0.4623
19317TIP3    H179366   5.062   4.241   0.610  1.0902 -0.2470  0.3769
19317TIP3    H279367   5.093   4.254   0.758 -3.5066  0.2665  1.3759
19318TIP3   OH279368   2.400   3.290   4.906  0.0021  0.1848 -0.3161
19318TIP3    H179369   2.478   3.345   4.914  1.1258 -1.4380  0.2995
19318TIP3    H279370   2.359   3.317   4.824  2.3731 -0.3606 -1.7216
19319TIP3   OH279371   3.479   1.036   6.131  0.0499 -0.1985 -0.4984
19319TIP3    H179372   3.473   0.983   6.052 -1.7204  0.3509 -0.7508
19319TIP3    H279373   3.463   0.974   6.203 -0.6804 -0.2734 -0.7173
19320TIP3   OH279374   6.486   1.516  16.725 -0.7577  0.2446 -0.0997
19320TIP3    H179375   6.391   1.528  16.725 -0.9412 -1.0521 -0.8724
19320TIP3    H279376   6.500   1.435  16.773 -0.0717  0.2796 -0.2359
19321TIP3   OH279377   6.704   1.411   3.699 -0.4238  0.1212  0.6193
19321TIP3    H179378   6.609   1.428   3.697 -0.4223  0.0494  0.0365
19321TIP3    H279379   6.715   1.330   3.649  0.1329  1.0189 -0.7385
19322TIP3   OH279380   4.076   4.511  11.118 -0.0845 -0.3599 -0.1827
19322TIP3    H179381   4.047   4.424  11.089  0.5348 -0.2168 -1.2561
19322TIP3    H279382   4.124   4.494  11.199 -2.1405 -0.7256  0.9866
19323TIP3   OH279383   5.415   4.719   4.872  0.1539  0.2621 -0.1558
19323TIP3    H179384   5.379   4.712   4.784 -2.0087  0.6907  0.6458
19323TIP3    H279385   5.417   4.629   4.905  0.6517  0.1389 -0.5205
19324TIP3   OH279386   5.785   5.453  15.190  1.2695  0.0992 -0.2548
19324TIP3    H179387   5.847   5.492  15.128  0.6097  0.2416 -0.8333
19324TIP3    H279388   5.776   5.363  15.161  2.0602 -0.2285  0.5050
19325TIP3   OH279389   6.554   4.531  13.499 -0.2347  0.2865  0.3195
19325TIP3    H179390   6.466   4.567  13.510 -1.2438 -1.9545 -0.2383
19325TIP3    H279391   6.569   4.533  13.405  0.8926  1.9025  0.4932
19326TIP3   OH279392   1.790   5.761  13.784  0.0355 -0.6269  0.0249
19326TIP3    H179393   1.879   5.797  13.780 -0.2127  0.0032  0.1073
19326TIP3    H279394   1.794   5.682  13.730  0.4086 -0.0879 -0.7481
19327TIP3   OH279395   6.138   4.551  13.782 -0.0813  0.5481 -0.6075
19327TIP3    H179396   6.168   4.554  13.873 -0.2465  1.6570 -0.5917
19327TIP3    H279397   6.056   4.599  13.782  1.0289  2.5133 -1.7762
19328TIP3   OH279398   3.867   1.615   5.082  0.0531  0.5808  0.2901
19328TIP3    H179399   3.787   1.622   5.030  0.3644 -0.1547 -0.2812
19328TIP3    H279400   3.908   1.701   5.074 -0.7942  1.0411  0.7776
19329TIP3   OH279401   0.417   6.345  15.996 -0.3483 -0.6290 -0.4536
19329TIP3    H179402   0.459   6.378  16.076 -1.2813 -2.2831  0.7417
19329TIP3    H279403   0.334   6.308  16.026 -1.2439 -0.1763 -2.3708
19330TIP3   OH279404   1.762   0.101  14.994 -0.0443 -0.0303  0.5759
19330TIP3    H179405   1.723   0.037  14.935  0.2820  0.5342 -0.2656
19330TIP3    H279406   1.846   0.062  15.020  0.2811  0.1781 -0.1566
19331TIP3   OH279407   1.229   0.669  12.084  0.1691 -0.5556  0.0312
19331TIP3    H179408   1.244   0.623  12.167 -0.8240 -0.1754  0.4304
19331TIP3    H279409   1.270   0.754  12.095 -2.7746  0.7358  1.3693
19332TIP3   OH279410   4.398   6.752   4.161 -0.1447 -0.1827  0.5029
19332TIP3    H179411   4.465   6.685   4.153 -0.4391 -0.3902 -0.2434
19332TIP3    H279412   4.320   6.713   4.123 -0.1441  0.8334 -0.5630
19333TIP3   OH279413   0.625   3.267   2.999  0.1388 -0.2655  0.5103
19333TIP3    H179414   0.686   3.313   3.057 -0.4324 -1.3473  2.0033
19333TIP3    H279415   0.591   3.195   3.052 -1.4020 -0.5010 -0.7540
19334TIP3   OH279416   1.708   0.725   3.673  0.1376 -0.6788 -0.1664
19334TIP3    H179417   1.703   0.793   3.607  1.9177  1.3162  1.6572
19334TIP3    H279418   1.622   0.683   3.672 -1.1149  1.8227 -1.0827
19335TIP3   OH279419   3.693   0.023  10.400  0.0622 -0.0975 -0.5572
19335TIP3    H179420   3.763  -0.038  10.425  1.2924  0.9623 -1.3616
19335TIP3    H279421   3.615  -0.032  10.396  1.1431 -1.6434 -1.2438
19336TIP3   OH279422   1.527   1.641  14.710 -0.4796  0.0672  0.6473
19336TIP3    H179423   1.459   1.583  14.677  1.0452 -1.1548 -0.4235
19336TIP3    H279424   1.557   1.690  14.633  0.7225 -0.3281  0.8457
19337TIP3   OH279425   2.697   2.611  12.355  0.5536 -0.4498  0.0063
19337TIP3    H179426   2.630   2.650  12.412 -0.1481 -1.3010 -0.2319
19337TIP3    H279427   2.780   2.635  12.396  0.1563  1.5927 -0.3192
19338TIP3   OH279428   1.497   5.052  15.576 -0.5208  0.1758 -0.5294
19338TIP3    H179429   1.465   4.967  15.608 -0.9001  0.8615  0.9344
19338TIP3    H279430   1.423   5.111  15.586  1.0523  1.7123  2.6136
19339TIP3   OH279431   0.121   5.962   3.938 -0.1130  0.0079  0.4744
19339TIP3    H179432   0.142   5.873   3.965  0.6136  0.3563  1.0741
19339TIP3    H279433   0.114   5.957   3.842 -0.3651 -0.7482  0.5356
19340TIP3   OH279434   1.038   1.632  16.589 -0.7731 -0.0644  0.1159
19340TIP3    H179435   0.985   1.705  16.557  0.8973  0.8357 -0.6472
19340TIP3    H279436   1.017   1.559  16.530 -0.9748  0.3433 -0.3169
19341TIP3   OH279437   2.880   1.134  13.879 -0.3103  0.2826  0.2314
19341TIP3    H179438   2.841   1.121  13.965  0.8418 -0.2114  0.6814
19341TIP3    H279439   2.970   1.162  13.897  0.3917 -1.2524 -0.8224
19342TIP3   OH279440   5.949   6.330   4.587 -0.4145 -0.0263  0.1859
19342TIP3    H179441   5.942   6.280   4.506 -2.5765  0.3912  0.0601
19342TIP3    H279442   5.881   6.398   4.579  0.9297  1.4902  1.3240
19343TIP3   OH279443   2.779   5.737  13.657 -0.0931  0.0334  0.4183
19343TIP3    H179444   2.725   5.794  13.603  1.4235 -0.1156 -1.3387
19343TIP3    H279445   2.797   5.788  13.736 -0.2690  1.2888 -0.3312
19344TIP3   OH279446   2.368   5.322  12.058  0.3647  0.1461 -0.3622
19344TIP3    H179447   2.363   5.410  12.096 -0.7978  0.1554 -0.5080
19344TIP3    H279448   2.369   5.264  12.134  0.5473  0.2655 -0.2733
19345TIP3   OH279449   2.352   6.588  11.204 -0.6847  0.1520  0.1836
19345TIP3    H179450   2.425   6.526  11.208 -0.8174  0.0289  0.7478
19345TIP3    H279451   2.386   6.668  11.245 -0.2758  0.7020 -1.1996
19346TIP3   OH279452   5.688   6.301   6.761  0.0163  0.2363  0.6807
19346TIP3    H179453   5.746   6.373   6.737 -0.3342  0.3832  0.2668
19346TIP3    H279454   5.615   6.308   6.699 -0.4568  0.0792  1.2190
19347TIP3   OH279455   6.059   0.461  15.757  0.0214 -0.3823  0.4949
19347TIP3    H179456   6.064   0.557  15.754  2.5349 -0.4368  1.6262
19347TIP3    H279457   5.998   0.442  15.829 -2.5584  0.3320 -1.4185
19348TIP3   OH279458   6.704   3.506   0.956 -0.2852 -0.2071 -0.3901
19348TIP3    H179459   6.686   3.550   0.872 -1.0176 -0.9221 -0.6149
19348TIP3    H279460   6.683   3.414   0.939  0.2967 -0.4809  0.3662
19349TIP3   OH279461   6.125   1.009   0.352 -0.3685  0.1912  0.0345
19349TIP3    H179462   6.090   0.995   0.440  0.4161  1.9839  0.6643
19349TIP3    H279463   6.153   0.922   0.322 -0.8399 -0.4575  1.4604
19350TIP3   OH279464   1.108   2.645  14.548  0.3023 -0.2932 -0.7324
19350TIP3    H179465   1.171   2.625  14.479  0.4503 -0.5429 -0.5232
19350TIP3    H279466   1.090   2.561  14.590  1.0273  0.0273  0.2336
19351TIP3   OH279467   0.174   2.832  13.209  0.2571  0.0839 -0.4153
19351TIP3    H179468   0.177   2.819  13.114 -2.4683 -1.7144 -0.2997
19351TIP3    H279469   0.168   2.744  13.246  1.9448  0.7254  1.4913
19352TIP3   OH279470   1.887   5.223   0.338  0.1775 -0.4480  0.1777
19352TIP3    H179471   1.887   5.197   0.246  0.4964  1.5770 -0.4148
19352TIP3    H279472   1.814   5.285   0.345 -0.0988 -0.8922  1.3817
19353TIP3   OH279473   4.810   3.021  16.206 -0.3731 -0.1269 -0.1385
19353TIP3    H179474   4.825   3.027  16.300 -0.2674 -2.2653  0.0120
19353TIP3    H279475   4.835   3.107  16.172  1.9544 -0.1072  1.4897
19354TIP3   OH279476   3.693   3.730  15.295  0.0710 -0.4203 -0.2544
19354TIP3    H179477   3.729   3.706  15.381  1.2693  0.7802 -0.3922
19354TIP3    H279478   3.704   3.651  15.242 -1.6113 -1.4984  0.9697
19355TIP3   OH279479   4.819   4.197   1.103 -0.8060 -0.7731  0.3422
19355TIP3    H179480   4.891   4.146   1.141 -0.7902 -1.9436 -1.2105
19355TIP3    H279481   4.819   4.173   1.010 -0.9807  1.8654 -0.3752
19356TIP3   OH279482   1.984   2.899  16.896  0.5919  0.0456 -0.2158
19356TIP3    H179483   2.035   2.849  16.959  0.2485 -0.3748 -0.2689
19356TIP3    H279484   1.978   2.842  16.819 -1.4878 -0.6646  0.4395
19357TIP3   OH279485   6.068   0.442   2.260 -0.1356  0.1294 -0.4011
19357TIP3    H179486   5.999   0.487   2.210  0.0775  0.1088 -0.7155
19357TIP3    H279487   6.051   0.349   2.246  0.3579  0.1339 -1.0260
19358TIP3   OH279488   3.133   5.853   2.119 -0.0542 -0.2813 -0.3259
19358TIP3    H179489   3.139   5.947   2.136 -0.0978 -0.0419 -1.5718
19358TIP3    H279490   3.220   5.819   2.140 -0.2180 -0.0793  0.7328
19359TIP3   OH279491   4.883   1.148   4.085  0.8256 -0.2859  0.5479
19359TIP3    H179492   4.914   1.133   3.996  0.7830  0.8681  0.3333
19359TIP3    H279493   4.959   1.129   4.140  0.9561 -0.6468  0.2494
19360TIP3   OH279494   0.559   4.260   0.223  0.0628 -0.3712 -0.0474
19360TIP3    H179495   0.524   4.219   0.144 -0.1958 -0.4365  0.0988
19360TIP3    H279496   0.602   4.340   0.192  3.1898 -2.2499 -0.6968
19361TIP3   OH279497   6.355   0.043   3.973  0.1403  0.0593  0.9519
19361TIP3    H179498   6.441   0.079   3.997 -0.7348  2.0928  1.0679
19361TIP3    H279499   6.339  -0.024   4.039  1.5199 -0.1642  1.0842
19362TIP3   OH279500   6.511   6.146   0.037 -0.2668  0.1827  0.0366
19362TIP3    H179501   6.606   6.151   0.042 -0.3405  1.1358  0.6375
19362TIP3    H279502   6.483   6.134   0.128 -0.7218 -0.1410 -0.1407
19363TIP3   OH279503   0.895   0.909  12.517 -0.5101 -0.0162 -1.0161
19363TIP3    H179504   0.870   0.867  12.599  0.0741  0.0847 -0.7850
19363TIP3    H279505   0.982   0.875  12.498 -0.4660  0.2951 -1.3696
19364TIP3   OH279506   5.685   5.796  12.645  0.0971 -1.0355 -0.7965
19364TIP3    H179507   5.602   5.807  12.690  0.0626  1.5771 -1.4171
19364TIP3    H279508   5.703   5.702  12.649 -1.8774 -1.3563  1.0872
19365TIP3   OH279509   2.789   6.058   4.491  0.0046  0.3499 -0.2734
19365TIP3    H179510   2.742   6.075   4.410  0.3230  0.6794 -0.3878
19365TIP3    H279511   2.746   5.980   4.528 -0.2062  0.2641 -0.7027
19366TIP3   OH279512   1.592   1.285   4.866  0.1169 -0.4492 -0.2496
19366TIP3    H179513   1.519   1.347   4.856  0.8295  0.3867 -0.3533
19366TIP3    H279514   1.662   1.338   4.904  0.0626 -1.6834  1.6041
19367TIP3   OH279515   3.777   0.036   1.327  0.2469 -0.1710  0.0993
19367TIP3    H179516   3.825   0.085   1.394  0.4449 -0.3894  0.1166
19367TIP3    H279517   3.717   0.101   1.289  0.9786  0.2574 -0.3482
19368TIP3   OH279518   4.777   0.568   1.432  0.3759  0.0217 -0.6280
19368TIP3    H179519   4.858   0.602   1.470 -1.6054  1.9043  2.0062
19368TIP3    H279520   4.734   0.645   1.394 -1.5798 -0.4518  0.6007
19369TIP3   OH279521   0.035   2.973   5.986  0.7239 -0.0212 -0.4168
19369TIP3    H179522   0.042   2.894   6.039  2.7506  0.6373  0.3493
19369TIP3    H279523  -0.018   3.033   6.039 -1.3641 -1.0414 -1.2737
19370TIP3   OH279524   4.948   0.832  16.261  0.0119 -0.2726 -0.7388
19370TIP3    H179525   4.963   0.915  16.217  1.1801 -0.1889 -0.2253
19370TIP3    H279526   4.995   0.841  16.344  0.1593 -1.4414 -0.6903
19371TIP3   OH279527   0.434   1.932  12.289  0.4301 -0.2222 -0.2300
19371TIP3    H179528   0.359   1.929  12.348 -0.2773 -2.4526 -1.1868
19371TIP3    H279529   0.406   1.883  12.212  2.2877  0.3364 -1.2960
19372TIP3   OH279530   5.557   6.697  11.453 -0.2394 -0.0388  0.6600
19372TIP3    H179531   5.474   6.731  11.420  0.6142  0.4273 -1.1007
19372TIP3    H279532   5.546   6.601  11.451 -0.3624 -0.0144 -0.6535
19373TIP3   OH279533   2.887   1.818   0.917  0.3395 -0.3435  0.2675
19373TIP3    H179534   2.856   1.909   0.922  0.9927 -0.0783 -0.4855
19373TIP3    H279535   2.982   1.825   0.906  0.6017 -1.1460  1.8792
19374TIP3   OH279536   2.319   2.195   0.787 -0.4843 -0.3033 -0.0439
19374TIP3    H179537   2.335   2.202   0.881 -1.8479  1.7164  0.0722
19374TIP3    H279538   2.260   2.268   0.768  1.0318  0.2682 -2.7577
19375TIP3   OH279539   4.212   2.959   3.623 -0.4663 -0.2779  0.1387
19375TIP3    H179540   4.145   3.014   3.664 -0.5088  0.2707 -0.6597
19375TIP3    H279541   4.227   2.998   3.537 -1.0624 -1.9765 -0.7614
19376TIP3   OH279542   6.291   1.899   5.872 -0.0188  0.0225 -0.3217
19376TIP3    H179543   6.261   1.987   5.850 -1.1155  0.5813  3.1893
19376TIP3    H279544   6.341   1.910   5.952  0.9610 -2.3863 -0.5633
19377TIP3   OH279545   6.378   0.235   4.799  0.3994  0.3654  0.1272
19377TIP3    H179546   6.384   0.270   4.888  1.0689 -1.0257  0.6267
19377TIP3    H279547   6.467   0.242   4.764  0.0149  1.4912 -0.6705
19378TIP3   OH279548   3.077   5.275   1.303 -0.0937 -0.5211 -0.4838
19378TIP3    H179549   3.088   5.365   1.333  2.3738 -0.9171 -0.0800
19378TIP3    H279550   3.041   5.229   1.380  3.2666 -0.8722  0.9512
19379TIP3   OH279551   0.872   2.186  10.934 -0.2829 -0.3142  0.0102
19379TIP3    H179552   0.933   2.138  10.990  1.7958  2.4611  0.2494
19379TIP3    H279553   0.811   2.228  10.995  1.1660  1.6134  0.2003
19380TIP3   OH279554   4.870   0.359   3.555  0.1913  0.1551 -0.1026
19380TIP3    H179555   4.788   0.402   3.578  1.0945  0.6999  2.2616
19380TIP3    H279556   4.851   0.265   3.560 -0.3585  0.2780  0.0721
19381TIP3   OH279557   3.424   3.967   3.048 -0.2865 -0.1851  0.0733
19381TIP3    H179558   3.379   3.893   3.088  2.3096  0.2633  4.0972
19381TIP3    H279559   3.366   4.042   3.063 -0.9321 -0.6180 -0.2109
19382TIP3   OH279560   3.445   1.200  15.770  0.0788 -0.5203 -1.0456
19382TIP3    H179561   3.476   1.125  15.820  0.8200 -0.7883 -1.8937
19382TIP3    H279562   3.466   1.275  15.826  0.5488 -0.8427 -0.7790
19383TIP3   OH279563   6.607   6.486  12.914  0.0596 -0.8903 -0.6574
19383TIP3    H179564   6.598   6.397  12.881  2.9665 -1.1120 -0.9703
19383TIP3    H279565   6.654   6.533  12.845 -0.7581  0.7023 -0.1707
19384TIP3   OH279566   0.165   6.647   1.623 -0.3258  0.1760  0.4228
19384TIP3    H179567   0.110   6.573   1.596 -0.2622 -0.1421  1.1723
19384TIP3    H279568   0.206   6.618   1.704  1.6864  0.0400 -0.6022
19385TIP3   OH279569   3.086   4.456  15.186  0.0404  0.1044  0.3372
19385TIP3    H179570   3.158   4.488  15.132 -0.0167  1.7923  1.2458
19385TIP3    H279571   3.030   4.407  15.125  1.9437 -1.2597 -0.3655
19386TIP3   OH279572   6.395   3.844   4.387  0.6539  0.4902  0.5460
19386TIP3    H179573   6.476   3.862   4.433 -0.5786 -0.8302  3.3852
19386TIP3    H279574   6.328   3.890   4.437 -0.5921 -0.0378 -0.6016
19387TIP3   OH279575   4.446   6.370   5.736 -0.3523 -0.2309 -0.1456
19387TIP3    H179576   4.459   6.343   5.645 -0.8402  0.6775 -0.4915
19387TIP3    H279577   4.533   6.361   5.776  0.3881  1.4985 -1.2882
19388TIP3   OH279578   5.683   6.395   6.448 -0.3288  0.1794 -0.4518
19388TIP3    H179579   5.752   6.452   6.484  1.5599 -1.8729 -0.6857
19388TIP3    H279580   5.615   6.395   6.514  1.0566  0.1903  1.0067
19389TIP3   OH279581   5.885   3.807   3.279  0.2738  0.1617  0.2822
19389TIP3    H179582   5.965   3.820   3.228  0.9187  3.8559  2.0137
19389TIP3    H279583   5.915   3.767   3.360 -0.0796 -1.3083 -0.3097
19390TIP3   OH279584   6.294   4.712   4.481 -0.0853 -0.6297  0.2295
19390TIP3    H179585   6.334   4.698   4.395 -0.0498  0.1549  0.1171
19390TIP3    H279586   6.353   4.774   4.525 -0.2918 -0.7549  0.6853
19391TIP3   OH279587   1.158   4.980   4.904 -0.2308  0.7987 -0.2212
19391TIP3    H179588   1.222   4.918   4.869 -2.6819 -1.4350 -0.8821
19391TIP3    H279589   1.202   5.019   4.980  2.1421 -0.1984 -1.0376
19392TIP3   OH279590   0.001   2.546   2.394  0.5401  0.1742 -0.4348
19392TIP3    H179591   0.064   2.484   2.358  0.6455 -0.3357  0.6114
19392TIP3    H279592  -0.083   2.501   2.388  0.7629 -0.5093  1.2939
19393TIP3   OH279593   0.867   2.772  14.559  0.0409  0.3378 -0.1440
19393TIP3    H179594   0.884   2.789  14.652 -0.4132 -2.2944  0.4672
19393TIP3    H279595   0.951   2.743  14.524 -0.0347  0.3191 -0.3096
19394TIP3   OH279596   5.186   4.225   3.492  0.2716 -0.0103  0.2118
19394TIP3    H179597   5.225   4.310   3.511  2.5703 -0.9848  0.0063
19394TIP3    H279598   5.179   4.183   3.577  0.4137 -0.1517  0.1531
19395TIP3   OH279599   5.084   5.208  15.855  0.0359  0.1892  0.7805
19395TIP3    H179600   5.142   5.206  15.931  1.0666  1.8489  0.0521
19395TIP3    H279601   5.071   5.301  15.836 -2.1216 -0.1638  0.3525
19396TIP3   OH279602   2.587   2.903  12.192 -0.0512 -0.1622  0.2790
19396TIP3    H179603   2.653   2.966  12.163  1.3997 -1.7999 -0.0492
19396TIP3    H279604   2.637   2.827  12.221 -1.8497 -1.9926 -1.2610
19397TIP3   OH279605   0.361   2.303   4.751  0.1725  0.2673  0.5007
19397TIP3    H179606   0.443   2.271   4.712 -0.6267  0.3341 -1.3068
19397TIP3    H279607   0.294   2.245   4.716 -0.7648  1.2726  0.6188
19398TIP3   OH279608   1.750   3.225  12.192 -0.1305  0.1310  0.0328
19398TIP3    H179609   1.692   3.160  12.232 -1.3601  0.6567 -0.8703
19398TIP3    H279610   1.810   3.173  12.138 -0.0526 -0.3834  0.6088
19399TIP3   OH279611   0.925   1.380  13.667 -0.1148 -0.1664  0.0967
19399TIP3    H179612   0.956   1.467  13.644  0.4920  0.1621  2.0252
19399TIP3    H279613   0.911   1.336  13.584  1.9263  0.9603 -0.8540
19400TIP3   OH279614   6.517   0.789   5.283  0.0961  0.6374 -0.3253
19400TIP3    H179615   6.557   0.807   5.367  1.9518 -2.3096 -0.5034
19400TIP3    H279616   6.588   0.800   5.219 -0.1001 -1.5372 -0.9784
19401TIP3   OH279617   0.536   4.117  14.138 -0.1897 -0.8345  0.1740
19401TIP3    H179618   0.610   4.071  14.100  0.3438  0.3280 -0.2340
19401TIP3    H279619   0.489   4.153  14.063 -1.7543 -2.4271  0.3721
19402TIP3   OH279620   3.323   1.963   2.235 -0.1331 -0.2764  0.4210
19402TIP3    H179621   3.237   1.994   2.208  0.6127  1.9561  0.4821
19402TIP3    H279622   3.360   2.037   2.285  2.7332 -0.2654 -1.6000
19403TIP3   OH279623   0.841   3.899   1.742 -0.3163  0.2265 -0.2347
19403TIP3    H179624   0.853   3.961   1.814  0.0549 -0.2998  0.1532
19403TIP3    H279625   0.759   3.927   1.700  0.0026  1.1566 -0.2422
19404TIP3   OH279626   2.136   6.041   5.874 -0.0471  0.0173 -0.5393
19404TIP3    H179627   2.223   6.004   5.886  0.1496  0.2099 -1.3781
19404TIP3    H279628   2.091   5.978   5.818  0.0896  0.7434 -1.4659
19405TIP3   OH279629   0.923   1.044  14.305 -0.4938 -0.0287  0.8996
19405TIP3    H179630   0.925   1.127  14.257 -2.0892 -0.0877  0.6959
19405TIP3    H279631   1.002   0.998  14.277  0.0143  1.1087  0.4405
19406TIP3   OH279632   0.486   0.326  15.979  0.1707 -0.2087 -0.5363
19406TIP3    H179633   0.562   0.314  16.036 -0.3251  0.5983  0.3033
19406TIP3    H279634   0.449   0.238  15.969  1.1070 -0.5742 -0.8056
19407TIP3   OH279635   6.494   1.260  16.889 -0.3842  0.0027 -0.0133
19407TIP3    H179636   6.556   1.220  16.950  0.3760 -0.6550 -1.1941
19407TIP3    H279637   6.420   1.286  16.944  1.2079  1.4239  1.5444
19408TIP3   OH279638   3.939   3.126  17.167  0.4977 -0.4259 -0.1363
19408TIP3    H179639   3.990   3.051  17.195 -0.7661 -0.6375  1.6614
19408TIP3    H279640   3.863   3.128  17.225 -0.2472  1.3799 -1.0933
19409TIP3   OH279641   3.742   4.349  12.504 -0.2469 -0.1419  0.1815
19409TIP3    H179642   3.791   4.299  12.439  0.6453 -0.8101  1.3315
19409TIP3    H279643   3.657   4.306  12.510 -0.0686 -0.5231 -0.0204
19410TIP3   OH279644   3.710   2.631  16.930  0.4755 -0.3578 -0.1509
19410TIP3    H179645   3.684   2.582  17.007  1.7460  0.0845  0.5681
19410TIP3    H279646   3.677   2.579  16.856  1.4126 -2.0823  0.6003
19411TIP3   OH279647   5.559   3.346   1.915 -0.1451 -0.4580  0.1248
19411TIP3    H179648   5.503   3.274   1.885  0.0311 -1.5608  2.3441
19411TIP3    H279649   5.644   3.326   1.877  0.0929 -1.8714  1.3456
19412TIP3   OH279650   2.306   0.463  13.377 -0.2927  0.0889  0.6336
19412TIP3    H179651   2.336   0.454  13.468 -2.2534 -1.5562  1.1652
19412TIP3    H279652   2.379   0.432  13.325 -0.5351 -2.7487  1.8526
19413TIP3   OH279653   2.110   3.590  15.982  0.0248 -0.1907  0.1098
19413TIP3    H179654   2.114   3.622  15.892 -0.7609 -0.0395  0.1261
19413TIP3    H279655   2.111   3.670  16.036 -0.1052 -0.2571  0.2124
19414TIP3   OH279656   3.014   5.882  15.089 -0.3179  0.2843  0.0815
19414TIP3    H179657   3.041   5.811  15.031  0.9737 -1.1992  2.3922
19414TIP3    H279658   3.097   5.917  15.123 -1.0197  1.6308  0.4337
19415TIP3   OH279659   5.377   2.132  15.038  0.2359  0.4475 -0.0342
19415TIP3    H179660   5.459   2.180  15.039  0.1717  0.5748 -1.1289
19415TIP3    H279661   5.310   2.200  15.047  0.1014  0.6690 -2.5262
19416TIP3   OH279662   4.019   3.330  15.328  0.6241  0.5872 -0.6311
19416TIP3    H179663   4.081   3.282  15.382 -0.5080 -0.3381 -0.1409
19416TIP3    H279664   3.977   3.263  15.274 -2.8833  0.5967  1.9479
19417TIP3   OH279665   4.539   5.512   3.859 -0.4013 -0.3861 -0.1129
19417TIP3    H179666   4.507   5.594   3.822  0.9942  0.6634  0.9550
19417TIP3    H279667   4.617   5.491   3.808  1.0363  0.6147  1.6308
19418TIP3   OH279668   6.021   2.154  12.207  0.0749 -0.0269  0.2481
19418TIP3    H179669   5.972   2.187  12.132 -0.0317  0.0661  0.3576
19418TIP3    H279670   5.953   2.127  12.270  0.1356 -1.3077 -0.2076
19419TIP3   OH279671   0.590   3.595  14.931  0.6323 -0.2895  0.0220
19419TIP3    H179672   0.607   3.684  14.963  2.4271 -1.2919  1.9281
19419TIP3    H279673   0.494   3.589  14.929  0.4873  1.3913  0.6841
19420TIP3   OH279674   3.773   5.677   2.383  0.6464 -0.0332 -0.1545
19420TIP3    H179675   3.868   5.669   2.391  0.5377  0.6022  1.8630
19420TIP3    H279676   3.738   5.613   2.445 -0.2277  2.2394  1.7511
19421TIP3   OH279677   1.671   0.021   1.610 -0.1070 -0.2493  0.9563
19421TIP3    H179678   1.664   0.063   1.524 -2.9561  0.1542  1.3384
19421TIP3    H279679   1.622  -0.061   1.601  1.1415 -1.0888  1.6721
19422TIP3   OH279680   3.596   0.989  16.247 -0.3972  0.0314  0.0610
19422TIP3    H179681   3.544   0.947  16.316 -0.5355 -0.2884 -0.2375
19422TIP3    H279682   3.682   1.002  16.286 -0.4708 -0.1655  0.2902
19423TIP3   OH279683   2.170   3.986  12.157 -0.1213  0.3969  0.4056
19423TIP3    H179684   2.176   4.075  12.122 -1.1666  0.7260  1.0428
19423TIP3    H279685   2.188   3.995  12.250  0.4121 -0.1620  0.3626
19424TIP3   OH279686   5.489   6.643   5.501  0.5080  0.4233  0.4649
19424TIP3    H179687   5.581   6.631   5.479  0.3379 -2.2566  1.0339
19424TIP3    H279688   5.442   6.626   5.419  0.3412 -1.4932  0.9484
19425TIP3   OH279689   5.426   4.650  11.604  0.5563 -0.3193 -0.4853
19425TIP3    H179690   5.451   4.596  11.529 -0.5465 -2.5554  0.7239
19425TIP3    H279691   5.509   4.686  11.637  1.3913 -1.9129 -0.8320
19426TIP3   OH279692   5.749   5.320   4.770  0.0112 -0.2229  0.1621
19426TIP3    H179693   5.791   5.365   4.843 -1.6785  1.6143  0.0372
19426TIP3    H279694   5.822   5.278   4.722  1.7043  2.8672 -0.0687
19427TIP3   OH279695   3.267   3.961  14.102  0.5473 -0.4620 -0.1276
19427TIP3    H179696   3.295   4.051  14.123 -0.6526 -0.1908  0.3126
19427TIP3    H279697   3.176   3.956  14.131  1.2267 -2.4812  1.7899
19428TIP3   OH279698   0.660   5.036  12.668  0.4356 -0.7366 -0.3059
19428TIP3    H179699   0.705   5.072  12.591  0.5953 -0.4490 -0.0783
19428TIP3    H279700   0.574   5.077  12.666 -0.1521 -1.9778 -1.2595
19429TIP3   OH279701   5.067   6.450  15.951  0.3624  0.5058  0.6229
19429TIP3    H179702   4.983   6.453  15.905  0.6514 -0.9136 -0.0365
19429TIP3    H279703   5.125   6.507  15.899  0.3887 -0.2233 -0.1616
19430TIP3   OH279704   1.139   4.354  11.948  0.8637 -0.1405  0.3296
19430TIP3    H179705   1.055   4.362  11.993  0.3458  0.1860 -0.6807
19430TIP3    H279706   1.119   4.304  11.869  1.0734  2.2913 -1.2987
19431TIP3   OH279707   6.318   6.016   4.233  0.0786 -0.1565 -0.4758
19431TIP3    H179708   6.299   5.964   4.155 -1.3210  1.5317 -1.2790
19431TIP3    H279709   6.405   6.053   4.217  0.3682 -0.8955 -0.6274
19432TIP3   OH279710   5.449   1.329   2.757 -0.3114 -0.3047 -0.5144
19432TIP3    H179711   5.498   1.375   2.687  1.2228 -0.3006  0.5376
19432TIP3    H279712   5.464   1.236   2.739 -0.8340 -0.3309 -0.8254
19433TIP3   OH279713   6.058   6.466   1.266 -0.0359  0.2773  0.0740
19433TIP3    H179714   6.065   6.488   1.173 -0.3573 -0.6953 -0.1929
19433TIP3    H279715   6.134   6.410   1.284 -0.2223  0.0860  0.2789
19434TIP3   OH279716   4.415   2.260  15.659 -0.8044 -0.3959  0.2798
19434TIP3    H179717   4.367   2.333  15.699 -2.2995 -0.7284 -0.8369
19434TIP3    H279718   4.427   2.287  15.568  2.4250  0.2978  0.8729
19435TIP3   OH279719   1.179   4.016  14.572  0.2625  0.3488 -0.4026
19435TIP3    H179720   1.110   4.061  14.524 -1.0271 -1.7850 -0.6079
19435TIP3    H279721   1.196   4.072  14.648  0.2013  2.2261 -1.7542
19436TIP3   OH279722   5.738   5.525   2.009  0.2303 -0.2199  0.4860
19436TIP3    H179723   5.774   5.611   1.989  0.1506 -0.3151 -0.0737
19436TIP3    H279724   5.798   5.489   2.075  0.4664  0.1156  0.4546
19437TIP3   OH279725   2.251   3.539   5.210 -0.2141 -0.1851  0.1569
19437TIP3    H179726   2.218   3.517   5.298  1.0900  1.1211  0.9903
19437TIP3    H279727   2.177   3.522   5.152 -1.7714  0.9129  1.7677
19438TIP3   OH279728   5.254   5.164   3.752 -0.2375 -0.2599 -0.5495
19438TIP3    H179729   5.307   5.177   3.673 -2.0076  2.1449 -1.4052
19438TIP3    H279730   5.165   5.148   3.719 -1.0683  1.1486  0.9397
19439TIP3   OH279731   2.773   6.310   2.039  0.4721  0.2368  0.2968
19439TIP3    H179732   2.838   6.373   2.070  0.1492  0.5332  0.3783
19439TIP3    H279733   2.824   6.243   1.994  0.8430  0.4137  0.4486
19440TIP3   OH279734   0.998   2.984   4.629 -0.7543 -0.2564  0.0595
19440TIP3    H179735   0.909   3.019   4.622  0.1313  2.0179 -0.3273
19440TIP3    H279736   1.054   3.055   4.599  1.2374 -1.5328  0.6373
19441TIP3   OH279737   3.729   4.831   5.564  0.4430  0.0087 -0.0005
19441TIP3    H179738   3.668   4.904   5.577  0.9375  0.5091 -0.4641
19441TIP3    H279739   3.815   4.872   5.565  0.6150 -0.1902 -2.7886
19442TIP3   OH279740   4.307   6.682  16.760  0.3851  0.7451  0.4241
19442TIP3    H179741   4.369   6.676  16.832 -0.0414 -1.5481  0.6343
19442TIP3    H279742   4.332   6.612  16.699 -1.8840 -0.1793  0.4695
19443TIP3   OH279743   1.897   6.564  12.082  0.6020  0.0256 -0.1794
19443TIP3    H179744   1.817   6.574  12.133  0.8253 -1.0062  0.3813
19443TIP3    H279745   1.899   6.472  12.058  0.2279  0.6059 -2.5374
19444TIP3   OH279746   2.313   5.704   4.640  0.8804 -0.1667  0.3633
19444TIP3    H179747   2.331   5.656   4.721 -1.7643  0.2200  1.2341
19444TIP3    H279748   2.251   5.772   4.666  1.4046  1.1207 -1.6525
19445TIP3   OH279749   3.399   2.592  12.447 -0.5857 -0.1171  0.6012
19445TIP3    H179750   3.479   2.619  12.493 -0.5470 -0.1030  0.5246
19445TIP3    H279751   3.328   2.634  12.496 -0.4978  0.4532  0.2329
19446TIP3   OH279752   1.790   1.655   2.139  0.0634  0.3132 -0.2455
19446TIP3    H179753   1.729   1.643   2.213  2.1926 -0.8584  1.3845
19446TIP3    H279754   1.779   1.746   2.114 -1.3073  0.5173  0.9754
19447TIP3   OH279755   4.839   3.634  15.653  0.3706  0.5824  0.9525
19447TIP3    H179756   4.925   3.604  15.625  0.0384 -0.1319  0.6829
19447TIP3    H279757   4.792   3.652  15.571 -0.7524 -1.9329  0.9966
19448TIP3   OH279758   3.981   6.656   2.406 -0.4886 -0.1128  0.3425
19448TIP3    H179759   4.016   6.741   2.378 -0.4828  0.0879  0.9318
19448TIP3    H279760   3.918   6.678   2.475  0.0063 -0.6206  0.9679
19449TIP3   OH279761   3.560   2.226   0.177  0.4746 -0.2018  0.0373
19449TIP3    H179762   3.655   2.241   0.174  0.5405 -0.5794  0.2361
19449TIP3    H279763   3.536   2.243   0.268  0.1193  1.2763 -0.3210
19450TIP3   OH279764   2.456   0.610   4.195  0.1613 -0.1686 -0.8471
19450TIP3    H179765   2.406   0.607   4.113  0.1927  1.0626 -0.9080
19450TIP3    H279766   2.497   0.523   4.200 -0.0569 -0.3470 -1.9954
19451TIP3   OH279767   1.456   6.685  11.432  0.1659 -0.4207 -0.7485
19451TIP3    H179768   1.463   6.776  11.461  1.8214 -0.2454 -1.6423
19451TIP3    H279769   1.365   6.660  11.452 -1.1159  2.2423 -2.8971
19452TIP3   OH279770   4.691   2.985   5.717  0.1041 -0.2047  0.1281
19452TIP3    H179771   4.614   3.036   5.743  0.3131 -0.0524  0.4509
19452TIP3    H279772   4.761   3.050   5.710 -0.0246 -0.1827 -1.1613
19453TIP3   OH279773   1.976   5.887   4.013 -0.1315 -0.1017 -0.0012
19453TIP3    H179774   1.906   5.822   4.008 -1.5825  1.3700  0.9300
19453TIP3    H279775   1.996   5.907   3.922 -0.3283 -1.1415 -0.2870
19454TIP3   OH279776   3.706   0.753  13.937  0.0813  0.1911 -0.3988
19454TIP3    H179777   3.697   0.699  14.015 -0.2169  0.7812 -0.0249
19454TIP3    H279778   3.638   0.820  13.946  1.5381  1.6535 -0.0254
19455TIP3   OH279779   1.596   2.466   0.724 -0.3604 -0.0010  0.6247
19455TIP3    H179780   1.616   2.416   0.803 -0.0580 -0.0426  0.5220
19455TIP3    H279781   1.572   2.399   0.659  0.4659 -0.0409  0.3621
19456TIP3   OH279782   6.066   6.524   0.371  0.4688 -0.6094  0.5305
19456TIP3    H179783   6.099   6.441   0.335  0.8079  0.0942 -0.8078
19456TIP3    H279784   6.018   6.563   0.298 -0.1298  0.1393  1.3232
19457TIP3   OH279785   2.178   6.284  12.983 -0.2180  0.1021 -0.2745
19457TIP3    H179786   2.125   6.241  12.916  0.3210  0.4578 -0.9420
19457TIP3    H279787   2.215   6.361  12.938 -0.3055  0.6552  0.5926
19458TIP3   OH279788   5.374   4.335  16.282 -0.2697  0.1605 -0.2598
19458TIP3    H179789   5.371   4.329  16.377 -0.3583 -0.1722 -0.2857
19458TIP3    H279790   5.313   4.406  16.261 -1.9824 -1.2645 -0.2171
19459TIP3   OH279791   3.604   5.917  12.275  0.1641  0.0007 -0.5500
19459TIP3    H179792   3.628   5.929  12.183  0.6707  0.9367 -0.2957
19459TIP3    H279793   3.536   5.849  12.273 -0.3961  0.5753 -1.6920
19460TIP3   OH279794   3.325   4.456  12.960 -0.1764  0.2784  0.0191
19460TIP3    H179795   3.246   4.405  12.944 -0.0683  0.4618 -1.1138
19460TIP3    H279796   3.293   4.543  12.986 -0.3647 -0.4792  2.3974
19461TIP3   OH279797   3.758   2.746  15.965  0.0796  0.2862 -0.5072
19461TIP3    H179798   3.756   2.842  15.965 -2.2439  0.2689  0.5046
19461TIP3    H279799   3.773   2.722  16.056  1.5321 -0.3319 -0.8943
19462TIP3   OH279800   6.483   4.843   6.083  0.0357  0.4408 -0.5259
19462TIP3    H179801   6.426   4.771   6.110 -0.1989  0.4326 -1.0384
19462TIP3    H279802   6.554   4.800   6.034  0.5345  0.4398  0.1922
19463TIP3   OH279803   0.409   0.196  12.407  0.3848 -0.2562  0.3364
19463TIP3    H179804   0.504   0.187  12.416  0.4153 -0.3328 -0.0967
19463TIP3    H279805   0.373   0.123  12.457  0.5361  0.1858  1.1138
19464TIP3   OH279806   2.667   2.334   4.494  0.1336 -0.7754 -0.1003
19464TIP3    H179807   2.750   2.350   4.539  0.2895 -2.9482  0.4682
19464TIP3    H279808   2.610   2.406   4.522  1.8938  0.9247 -0.7583
19465TIP3   OH279809   2.572   0.731  12.392  0.4533  0.2533  0.2638
19465TIP3    H179810   2.518   0.684  12.329  0.7078  1.0624 -0.5686
19465TIP3    H279811   2.591   0.815  12.350  0.3185  0.9497  1.5714
19466TIP3   OH279812   6.122   0.601  14.664  0.1291  0.2934  0.0089
19466TIP3    H179813   6.081   0.539  14.724 -0.3631  0.4112 -0.1953
19466TIP3    H279814   6.061   0.676  14.662  1.2536  1.2619  1.1119
19467TIP3   OH279815   3.636   2.793   5.086 -0.6150  0.1636 -0.2001
19467TIP3    H179816   3.704   2.730   5.063 -0.2425  1.1350 -1.8258
19467TIP3    H279817   3.647   2.806   5.180  2.4348  1.4006 -0.6539
19468TIP3   OH279818   4.170   1.816   0.250 -0.3284 -0.4944 -0.1390
19468TIP3    H179819   4.134   1.793   0.164  0.7034  0.8012 -0.9405
19468TIP3    H279820   4.113   1.885   0.282  0.1226  0.0245 -0.4358
19469TIP3   OH279821   3.004   6.533  13.062  0.1767 -0.2843 -0.9264
19469TIP3    H179822   3.008   6.626  13.082  0.9730 -0.3763 -0.5821
19469TIP3    H279823   3.090   6.500  13.091 -0.0290 -1.0798 -1.2214
19470TIP3   OH279824   4.339   2.347  11.522 -0.2047 -0.2591 -0.1213
19470TIP3    H179825   4.306   2.288  11.589  0.9329  1.0546  1.6438
19470TIP3    H279826   4.303   2.433  11.546  1.8272  0.5890 -0.0215
19471TIP3   OH279827   2.028   2.149   5.617 -0.0938 -0.5430  0.1069
19471TIP3    H179828   2.097   2.163   5.682  0.1697  1.4731 -0.5673
19471TIP3    H279829   1.953   2.116   5.668  0.5633 -0.3301  1.2234
19472TIP3   OH279830   4.059   0.725  15.658  0.3920 -0.6300  0.2960
19472TIP3    H179831   4.129   0.739  15.594 -0.4182  1.0170 -0.2403
19472TIP3    H279832   3.997   0.667  15.614 -0.3431  0.7955 -0.5508
19473TIP3   OH279833   5.647   0.979   0.105 -0.3320 -0.5767 -0.0057
19473TIP3    H179834   5.562   0.999   0.143  0.5510  0.3311  1.5651
19473TIP3    H279835   5.694   1.062   0.108  1.5679 -1.6589  1.7307
19474TIP3   OH279836   3.418   3.234   6.025 -0.0595  0.1278  0.2358
19474TIP3    H179837   3.441   3.270   6.110  1.2281  2.6553 -1.1207
19474TIP3    H279838   3.327   3.260   6.011 -0.4981 -0.9040  1.1254
19475TIP3   OH279839   4.071   0.000  17.077  0.2604 -0.1413  0.2491
19475TIP3    H179840   4.144  -0.061  17.089  0.1726 -0.2394  0.2754
19475TIP3    H279841   4.114   0.083  17.055  0.3063 -0.7240 -1.9754
19476TIP3   OH279842   1.377   0.322   4.117 -0.3042  0.3326 -0.6608
19476TIP3    H179843   1.422   0.398   4.153  0.6277  0.4250 -1.9871
19476TIP3    H279844   1.284   0.338   4.135  0.0945  0.6047  1.2251
19477TIP3   OH279845   5.245   5.783   1.640 -0.2423  0.1035  0.3605
19477TIP3    H179846   5.296   5.703   1.627 -0.9288  0.1428 -3.3708
19477TIP3    H279847   5.154   5.755   1.632 -0.4669  1.2721 -1.6865
19478TIP3   OH279848   3.737   0.873   4.011  0.4211  0.2958  0.6808
19478TIP3    H179849   3.682   0.835   4.079 -0.1948 -0.4409 -0.2219
19478TIP3    H279850   3.678   0.928   3.960  0.8238  0.6340  0.5769
19479TIP3   OH279851   5.986   4.796   2.730  0.3039 -0.2911 -0.2898
19479TIP3    H179852   6.032   4.820   2.649 -0.2581  0.4237 -0.4005
19479TIP3    H279853   5.897   4.776   2.702 -0.5666  2.3952  0.4574
19480TIP3   OH279854   1.971   3.951   5.803 -0.2979  0.4375 -0.3579
19480TIP3    H179855   1.909   3.908   5.743 -0.3259  0.5898 -0.4365
19480TIP3    H279856   1.994   3.882   5.866 -1.5379  0.7385  0.4345
19481TIP3   OH279857   6.716   6.710   1.993  0.1696  0.3741  0.1763
19481TIP3    H179858   6.778   6.765   2.040 -1.9946  2.3007  0.8864
19481TIP3    H279859   6.697   6.759   1.913 -0.9824  0.1547  0.3126
19482TIP3   OH279860   4.488   6.768   1.907 -0.1675  0.1111  0.1475
19482TIP3    H179861   4.397   6.793   1.890 -1.4261 -3.0337  1.8934
19482TIP3    H279862   4.527   6.754   1.821 -1.3924  1.1855 -0.5938
19483TIP3   OH279863   6.378   5.965   5.855  0.1902 -0.1950 -0.4543
19483TIP3    H179864   6.460   5.992   5.898  0.2149  1.2884 -1.3898
19483TIP3    H279865   6.310   5.979   5.921  0.4632  0.3184 -0.2781
19484TIP3   OH279866   1.298   5.769  13.235 -0.1609 -0.7460  1.1277
19484TIP3    H179867   1.379   5.745  13.281  0.8009 -1.0008 -0.6371
19484TIP3    H279868   1.319   5.758  13.142 -1.7856  0.5624  0.5700
19485TIP3   OH279869   4.173   5.113  16.425  0.1178 -0.0640 -0.2199
19485TIP3    H179870   4.230   5.037  16.412  3.3882  2.0923  1.0004
19485TIP3    H279871   4.128   5.096  16.508 -0.1202 -1.2065 -0.5736
19486TIP3   OH279872   6.657   5.287  10.855 -0.2604 -0.0219 -0.0895
19486TIP3    H179873   6.751   5.275  10.846 -0.3487 -0.7085 -0.1425
19486TIP3    H279874   6.639   5.266  10.947 -0.7148 -2.4159 -0.6862
19487TIP3   OH279875   1.079   2.480   0.435  0.3765 -0.0957  0.2347
19487TIP3    H179876   1.065   2.525   0.519 -0.0127 -0.7601  0.5366
19487TIP3    H279877   1.014   2.409   0.436  1.2843 -0.9362 -0.0298
19488TIP3   OH279878   6.249   0.300  16.145  0.0365  0.4878 -0.2137
19488TIP3    H179879   6.223   0.372  16.089 -2.4151 -0.3044 -0.1357
19488TIP3    H279880   6.208   0.320  16.230 -0.3815 -0.8139 -0.1023
19489TIP3   OH279881   2.172   0.067  11.367  0.8171 -0.2446 -0.5023
19489TIP3    H179882   2.124   0.003  11.315  0.6924 -3.8486  3.7201
19489TIP3    H279883   2.105   0.110  11.420  1.3843  0.0973 -0.0501
19490TIP3   OH279884   1.826   5.744  14.130  0.2063  0.7374  0.8207
19490TIP3    H179885   1.801   5.667  14.079  0.2856 -0.0583  1.9831
19490TIP3    H279886   1.850   5.809  14.064 -3.0221  0.8862 -0.2940
19491TIP3   OH279887   3.635   0.069   3.961 -0.7759 -0.0172 -0.5394
19491TIP3    H179888   3.611   0.160   3.979 -0.5601  0.0146 -0.4136
19491TIP3    H279889   3.554   0.020   3.977 -1.1270  0.2567 -1.4367
19492TIP3   OH279890   1.589   0.583  15.081 -0.2894 -0.2484  0.3344
19492TIP3    H179891   1.550   0.509  15.126 -0.6951 -1.1373 -1.4400
19492TIP3    H279892   1.521   0.650  15.080 -0.3088 -0.2583  0.9515
19493TIP3   OH279893   2.256   4.579  16.163  0.3374 -0.1331 -1.0425
19493TIP3    H179894   2.211   4.517  16.220 -0.1598  1.7279  0.6539
19493TIP3    H279895   2.209   4.662  16.176  2.4663  1.1718 -1.4354
19494TIP3   OH279896   4.181   3.391  12.073 -0.1442  0.3643 -0.1300
19494TIP3    H179897   4.214   3.470  12.116 -0.3244  0.5191 -0.2718
19494TIP3    H279898   4.163   3.419  11.983 -0.6203  0.2746 -0.0665
19495TIP3   OH279899   1.584   5.314  15.563  0.6900 -0.2200  0.4943
19495TIP3    H179900   1.512   5.373  15.585  0.5308 -0.0172 -0.5439
19495TIP3    H279901   1.550   5.227  15.581 -0.0434 -0.1656 -0.5671
19496TIP3   OH279902   2.841   6.730  10.782  0.2345 -0.5415 -0.1846
19496TIP3    H179903   2.793   6.779  10.716  0.5088 -1.5281 -1.1335
19496TIP3    H279904   2.782   6.726  10.858 -0.3261  0.0475 -0.5862
19497TIP3   OH279905   4.359   3.266  14.976  0.1481  0.0803  0.0590
19497TIP3    H179906   4.273   3.234  14.950  0.0489  0.6949 -0.3768
19497TIP3    H279907   4.382   3.332  14.910  0.4164  0.7922  0.8473
19498TIP3   OH279908   1.198   2.631   0.671  1.1348  0.2634 -0.3436
19498TIP3    H179909   1.171   2.697   0.735  0.9300 -0.8417  0.7418
19498TIP3    H279910   1.270   2.671   0.624  1.1473  1.1839  0.4419
19499TIP3   OH279911   6.598   4.384   3.413 -0.0785 -0.0486 -1.0912
19499TIP3    H179912   6.557   4.355   3.331 -0.3064  1.2213 -1.4423
19499TIP3    H279913   6.692   4.384   3.394 -0.0857 -0.4642 -1.1244
19500TIP3   OH279914   2.619   0.870  15.119  0.3942  0.8110 -0.4557
19500TIP3    H179915   2.553   0.851  15.053  1.4041 -1.0189 -0.9659
19500TIP3    H279916   2.573   0.924  15.184 -1.6277 -0.4844 -0.7570
19501TIP3   OH279917   3.801   0.796  11.795  0.3719  0.4630  0.3836
19501TIP3    H179918   3.754   0.870  11.758  2.0589  1.7559  0.7376
19501TIP3    H279919   3.813   0.818  11.887 -1.1053 -1.3183  1.0211
19502TIP3   OH279920   5.689   3.216   5.167 -0.3896  0.1992 -0.6953
19502TIP3    H179921   5.731   3.215   5.253 -0.2762 -1.0739 -0.7501
19502TIP3    H279922   5.687   3.308   5.141 -0.8674  0.6464  0.8897
19503TIP3   OH279923   5.199   0.115   3.345 -0.4246 -0.8926  0.8590
19503TIP3    H179924   5.200   0.191   3.403  1.0676 -1.1279  1.1373
19503TIP3    H279925   5.220   0.151   3.259  0.3689 -1.0041  1.0064
19504TIP3   OH279926   1.533   5.777   5.314  0.1856  0.4003 -0.0264
19504TIP3    H179927   1.512   5.862   5.276 -1.2347 -0.6806 -1.7568
19504TIP3    H279928   1.629   5.774   5.316  0.2534  1.4364 -1.3719
19505TIP3   OH279929   0.050   2.422   3.223  0.3040 -0.0457 -0.8383
19505TIP3    H179930   0.015   2.443   3.136 -0.9868 -0.7004 -0.4858
19505TIP3    H279931  -0.022   2.439   3.283  1.9768  3.0108  0.4582
19506TIP3   OH279932   4.450   5.592  13.292 -0.0987  0.2376 -0.1049
19506TIP3    H179933   4.457   5.658  13.361 -1.7779 -0.2847  0.5870
19506TIP3    H279934   4.471   5.640  13.211 -1.3014  1.6323  0.3816
19507TIP3   OH279935   5.457   4.747   5.648  0.5918  0.3649 -0.2216
19507TIP3    H179936   5.401   4.700   5.710 -0.9260 -1.3678 -2.8050
19507TIP3    H279937   5.398   4.811   5.607  1.3911  0.9613 -0.4520
19508TIP3   OH279938   1.745   5.448  15.781  0.2143 -0.0022 -0.3786
19508TIP3    H179939   1.733   5.366  15.829 -0.1257  0.9123  1.1396
19508TIP3    H279940   1.734   5.424  15.689 -1.0723 -1.4387  0.1332
19509TIP3   OH279941   2.932   6.385   0.266  0.3150 -0.0984  0.4301
19509TIP3    H179942   2.838   6.398   0.256  0.0777 -0.5161  1.9523
19509TIP3    H279943   2.961   6.460   0.319  0.9455  0.3630 -0.5648
19510TIP3   OH279944   3.903   6.107  11.310 -0.6004 -0.1396 -0.1138
19510TIP3    H179945   3.818   6.134  11.275 -1.3239 -0.1049  1.6055
19510TIP3    H279946   3.966   6.162  11.264 -1.6415  0.8767 -0.3482
19511TIP3   OH279947   2.160   4.839  13.369 -0.2956  0.1754 -0.2646
19511TIP3    H179948   2.123   4.927  13.376 -1.1263 -0.3958  4.5877
19511TIP3    H279949   2.254   4.853  13.364 -0.4052  1.3979  0.7433
19512TIP3   OH279950   6.297   4.393   1.920  0.1502 -0.1255  0.2203
19512TIP3    H179951   6.204   4.378   1.906  0.0894  0.8835 -0.4919
19512TIP3    H279952   6.308   4.392   2.015 -0.8494  1.2514  0.3710
19513TIP3   OH279953   3.072   0.598  16.356 -0.5076 -0.3062  0.0657
19513TIP3    H179954   3.135   0.571  16.423  1.2087  2.2688 -0.4501
19513TIP3    H279955   3.104   0.558  16.276 -1.1338 -1.3128  0.3142
19514TIP3   OH279956   2.534   4.104   3.488  0.2782 -0.0416  0.9115
19514TIP3    H179957   2.567   4.177   3.436 -1.1313  0.3488  0.5307
19514TIP3    H279958   2.585   4.028   3.459 -2.0487 -0.3233 -2.7623
19515TIP3   OH279959   3.026   0.310  16.353  0.4148  0.2672 -0.0964
19515TIP3    H179960   3.002   0.383  16.411  1.0974  0.5111 -0.1162
19515TIP3    H279961   3.120   0.320  16.340  0.1703  0.5868 -1.7596
19516TIP3   OH279962   3.284   5.301   4.844  0.3921  0.0955  0.3186
19516TIP3    H179963   3.217   5.313   4.776 -0.7909  0.2517  1.4936
19516TIP3    H279964   3.298   5.389   4.879 -0.7146 -0.3174  1.8599
19517TIP3   OH279965   3.737   6.333  11.513  0.0748 -0.1991  0.2146
19517TIP3    H179966   3.651   6.368  11.489 -0.0207 -0.2440  0.4888
19517TIP3    H279967   3.721   6.284  11.594  0.8855  2.1789  1.8599
19518TIP3   OH279968   4.023   4.163   2.724  0.3040  0.3234  0.3762
19518TIP3    H179969   4.037   4.071   2.744  2.1188  0.4254 -0.3610
19518TIP3    H279970   4.062   4.175   2.637 -0.2726  1.7015  0.2969
19519TIP3   OH279971   4.814   6.419  12.745  0.2328 -0.5338 -0.6592
19519TIP3    H179972   4.845   6.507  12.724  1.0598 -0.0826  2.2314
19519TIP3    H279973   4.727   6.414  12.705  0.3557  1.4454 -1.2340
19520TIP3   OH279974   5.549   4.836  12.932  0.2308  0.7876 -0.0598
19520TIP3    H179975   5.626   4.779  12.930 -0.4947 -0.1802 -0.8225
19520TIP3    H279976   5.496   4.809  12.857 -1.1486  1.0255  0.7998
19521TIP3   OH279977   3.581   4.456   4.730 -0.0167 -0.0623  0.3104
19521TIP3    H179978   3.523   4.529   4.752 -0.7860  0.3053 -2.7255
19521TIP3    H279979   3.658   4.497   4.691  0.1164 -0.8026 -0.2160
19522TIP3   OH279980   4.787   6.459   2.266 -0.0634  0.1600 -0.0250
19522TIP3    H179981   4.866   6.495   2.307  1.0673 -0.4217 -1.6682
19522TIP3    H279982   4.742   6.536   2.230  1.5805  0.1247 -2.2088
19523TIP3   OH279983   3.320   5.232   1.232 -0.3245 -0.0186  0.3963
19523TIP3    H179984   3.370   5.156   1.265 -1.5178 -1.0706 -0.1977
19523TIP3    H279985   3.229   5.209   1.248 -0.6642  1.6322  0.8875
19524TIP3   OH279986   2.807   6.753   1.132  0.0593  0.4642  0.4322
19524TIP3    H179987   2.797   6.792   1.045 -1.0745 -1.1861 -0.1997
19524TIP3    H279988   2.890   6.788   1.164  0.3681  1.2943 -1.2058
19525TIP3   OH279989   4.310   1.070  12.677  0.0627  0.0437  0.3025
19525TIP3    H179990   4.338   1.160  12.660 -0.1829 -0.0668 -0.6749
19525TIP3    H279991   4.262   1.044  12.599 -2.2311  0.0111  1.6518
19526TIP3   OH279992   0.452   0.749  10.538 -0.1210 -1.1166  0.0776
19526TIP3    H179993   0.532   0.800  10.550 -0.1726 -1.6725  2.9656
19526TIP3    H279994   0.479   0.674  10.486  1.4171 -1.6817  1.6482
19527TIP3   OH279995   4.577   5.702  13.732 -0.4194 -0.2951  0.4454
19527TIP3    H179996   4.482   5.705  13.730 -0.3952  1.9834  1.1962
19527TIP3    H279997   4.601   5.753  13.810  1.4681  1.7182 -1.3612
19528TIP3   OH279998   2.555   0.735  14.643  0.3120 -1.0612 -0.0466
19528TIP3    H179999   2.516   0.781  14.717 -0.7604 -2.6095  0.3676
19528TIP3    H280000   2.647   0.762  14.644 -0.3996  1.4846 -0.1714
19529TIP3   OH280001   5.055   3.199  15.875 -0.0053 -0.3238  0.1307
19529TIP3    H180002   5.140   3.183  15.916 -0.7207 -1.5436  1.1777
19529TIP3    H280003   5.046   3.131  15.809 -0.8112 -1.1466  1.0641
19530TIP3   OH280004   2.543   2.386   4.927 -0.3580  0.1561  0.1509
19530TIP3    H180005   2.621   2.435   4.903 -0.5137  0.3812  0.1067
19530TIP3    H280006   2.552   2.371   5.021  0.0180 -0.3144  0.0446
19531TIP3   OH280007   0.306   2.043   1.651 -0.7783  0.6791  0.3313
19531TIP3    H180008   0.375   2.013   1.711 -1.3581 -2.1246 -0.3590
19531TIP3    H280009   0.277   2.126   1.689  1.1996  0.6520  2.0505
19532TIP3   OH280010   4.081   6.633   1.502  0.2202  0.1570  0.2120
19532TIP3    H180011   4.032   6.677   1.432  3.3614 -0.3325 -2.4322
19532TIP3    H280012   4.154   6.691   1.520  0.8279 -0.9359  1.3299
19533TIP3   OH280013   6.621   1.716   0.010 -0.1076  0.2449 -0.3285
19533TIP3    H180014   6.563   1.686  -0.060  1.3952 -1.6610 -0.7968
19533TIP3    H280015   6.617   1.647   0.076 -0.0655  1.1487  0.6331
19534TIP3   OH280016   6.186   4.997   4.393 -0.6009 -0.1744 -0.5292
19534TIP3    H180017   6.256   4.984   4.328 -0.7434 -0.4491 -0.6286
19534TIP3    H280018   6.105   4.990   4.342 -0.6803  1.2131 -0.6070
19535TIP3   OH280019   0.082   0.368  11.562  0.5518  0.2534 -0.2011
19535TIP3    H180020   0.021   0.340  11.494 -0.1631 -2.1545  1.4126
19535TIP3    H280021   0.162   0.319  11.544  1.0221  1.0749 -0.4242
19536TIP3   OH280022   4.311   4.694   3.385  0.1739 -0.2952  0.1290
19536TIP3    H180023   4.399   4.726   3.367  0.5296  0.1997  2.5944
19536TIP3    H280024   4.298   4.623   3.322  1.9555  0.2431 -0.8776
19537TIP3   OH280025   5.463   4.200  16.051  0.1193 -0.0555  0.0212
19537TIP3    H180026   5.426   4.250  16.124 -1.2734  1.0588 -1.4051
19537TIP3    H280027   5.460   4.109  16.080  0.8893  0.4980  1.9011
19538TIP3   OH280028   1.566   3.048  15.861 -0.4883  0.3850 -0.4569
19538TIP3    H180029   1.648   3.004  15.883 -1.7294 -0.5851  2.3962
19538TIP3    H280030   1.500   3.002  15.912 -2.8620  1.0143 -2.8731
19539TIP3   OH280031   3.186   0.562  15.678  0.5634 -0.7447 -0.0004
19539TIP3    H180032   3.117   0.499  15.698 -0.1925 -0.2447 -0.9939
19539TIP3    H280033   3.165   0.592  15.589  0.8007  1.0622  0.5543
19540TIP3   OH280034   5.745   4.979   6.600 -0.2901 -0.3429 -0.1375
19540TIP3    H180035   5.811   4.932   6.651 -0.8809 -2.4147 -1.2263
19540TIP3    H280036   5.785   5.064   6.582  1.5615 -1.0760  0.3505
19541TIP3   OH280037   2.941   6.356  15.205 -0.0502  0.2477  0.1793
19541TIP3    H180038   2.857   6.398  15.220 -0.3987 -0.8450  1.3177
19541TIP3    H280039   3.004   6.413  15.249 -0.4579 -0.0921  1.2221
19542TIP3   OH280040   0.964   5.600   0.237  0.2546 -0.2452 -0.2968
19542TIP3    H180041   0.961   5.514   0.279  0.4204 -0.3541 -0.5054
19542TIP3    H280042   1.030   5.590   0.168  0.8167  0.2601  0.1569
19543TIP3   OH280043   2.432   4.316   0.906 -0.0046  0.0644  0.1189
19543TIP3    H180044   2.419   4.230   0.866  1.4217  0.0534 -0.3310
19543TIP3    H280045   2.358   4.325   0.967 -0.9267 -0.8830 -0.8312
19544TIP3   OH280046   2.872   2.660  14.774  0.7141 -0.5345  0.1630
19544TIP3    H180047   2.897   2.681  14.864  0.9857 -0.7504  0.1405
19544TIP3    H280048   2.950   2.681  14.722  0.5094 -0.2759 -0.0398
19545TIP3   OH280049   0.869   5.992   4.286  0.4302  0.0457  0.4016
19545TIP3    H180050   0.881   5.934   4.360 -1.3444  0.1460  0.8053
19545TIP3    H280051   0.818   6.065   4.320 -1.7690 -0.6554 -1.2197
19546TIP3   OH280052   1.971   0.906  12.565 -0.2927 -0.6117 -0.2506
19546TIP3    H180053   2.023   0.851  12.506  0.3760 -1.3253  0.9790
19546TIP3    H280054   1.894   0.930  12.513  1.3347  0.6396 -2.1850
19547TIP3   OH280055   3.491   5.279  11.066  0.2794 -1.0023  0.2742
19547TIP3    H180056   3.527   5.210  11.121 -0.8765 -1.6336  0.2467
19547TIP3    H280057   3.520   5.360  11.108  0.4092 -1.4891  1.1448
19548TIP3   OH280058   5.239   2.906   1.179 -0.1615 -0.7587  0.8232
19548TIP3    H180059   5.222   2.921   1.086 -0.6443  1.1953  1.1953
19548TIP3    H280060   5.152   2.896   1.218  0.0776 -2.5716  0.9204
19549TIP3   OH280061   1.482   2.479   4.433 -0.5618 -0.7638 -0.1949
19549TIP3    H180062   1.398   2.509   4.467 -1.6364 -0.0669 -3.3034
19549TIP3    H280063   1.461   2.399   4.385  0.4083 -0.1379 -1.6904
19550TIP3   OH280064   1.118   4.342   1.442  0.4722  0.2706  0.2304
19550TIP3    H180065   1.123   4.435   1.419 -0.4463  0.1202 -0.5919
19550TIP3    H280066   1.180   4.300   1.384 -1.1295  0.0196 -1.3372
19551TIP3   OH280067   3.210   1.918  11.639 -0.6021 -0.2566 -0.3616
19551TIP3    H180068   3.201   1.869  11.557 -1.7276 -0.0301 -0.3831
19551TIP3    H280069   3.255   1.999  11.615 -0.8939 -0.2100 -0.7401
19552TIP3   OH280070   5.365   3.472   5.808 -0.2882 -0.0374  0.3401
19552TIP3    H180071   5.399   3.424   5.884 -0.1384 -0.1378  0.2112
19552TIP3    H280072   5.270   3.460   5.813 -0.1969 -1.0364 -0.1385
19553TIP3   OH280073   3.049   6.110   2.210 -0.0519  0.4948  0.3732
19553TIP3    H180074   3.064   6.171   2.138  0.1465  0.7763  0.6532
19553TIP3    H280075   2.973   6.146   2.256 -1.2932 -0.6464 -0.7434
19554TIP3   OH280076   5.814   0.804  11.703  0.0866 -0.4282 -0.4584
19554TIP3    H180077   5.839   0.871  11.766 -0.4963  0.0524 -0.7356
19554TIP3    H280078   5.769   0.851  11.634  0.0062 -1.0588 -0.8417
19555TIP3   OH280079   3.691   5.715   0.294  0.4613 -0.6454 -0.5392
19555TIP3    H180080   3.660   5.746   0.378 -0.2247 -1.4284 -0.5041
19555TIP3    H280081   3.737   5.633   0.314 -1.3375 -1.8347 -1.1475
19556TIP3   OH280082   4.963   5.820  16.738  1.2665  0.2127 -0.0578
19556TIP3    H180083   4.937   5.900  16.693  1.5090  0.9093  1.0459
19556TIP3    H280084   4.955   5.840  16.831  1.9431 -0.8369  0.2387
19557TIP3   OH280085   0.690   0.961   4.546 -0.2307 -0.0480  0.2082
19557TIP3    H180086   0.636   0.886   4.569 -1.8996  0.6348 -1.3596
19557TIP3    H280087   0.747   0.929   4.476 -0.8024  0.0733 -0.3201
19558TIP3   OH280088   2.911   0.177  11.735 -0.1470  0.7301 -0.9241
19558TIP3    H180089   2.887   0.121  11.662  1.7360  1.9630 -2.5520
19558TIP3    H280090   2.915   0.118  11.811  2.6132 -1.5197 -2.7376
19559TIP3   OH280091   5.668   6.080   0.850  0.7534  0.1230 -0.1713
19559TIP3    H180092   5.575   6.102   0.858  0.7866 -0.0262  0.7168
19559TIP3    H280093   5.713   6.164   0.849  0.6338  0.1855 -0.2363
19560TIP3   OH280094   3.190   2.291   2.578 -0.1402  0.0474 -0.6915
19560TIP3    H180095   3.226   2.332   2.657 -1.6949  0.0310  0.0495
19560TIP3    H280096   3.265   2.279   2.520  1.1096 -0.4729  1.0168
19561TIP3   OH280097   5.024   5.938   1.430 -0.1450 -0.1086  0.2835
19561TIP3    H180098   4.959   5.868   1.431  0.6584 -0.8587  2.1903
19561TIP3    H280099   5.102   5.898   1.392 -0.6820  0.7143 -1.7473
19562TIP3   OH280100   0.712   5.640  14.858 -0.3133  0.1750 -0.4787
19562TIP3    H180101   0.648   5.632  14.787 -0.2939 -2.2831 -0.2461
19562TIP3    H280102   0.793   5.667  14.814 -0.4322 -0.8173 -1.3311
19563TIP3   OH280103   2.711   4.214   0.602 -0.2356  0.3035  0.3145
19563TIP3    H180104   2.643   4.268   0.561 -1.7925 -1.1505  0.9418
19563TIP3    H280105   2.694   4.126   0.570  3.3708  0.3755 -2.1160
19564TIP3   OH280106   6.178   0.245   0.408  0.5165 -0.3191 -0.5464
19564TIP3    H180107   6.149   0.212   0.493  2.1763 -1.6877 -0.4976
19564TIP3    H280108   6.168   0.171   0.349  1.1787  0.0554 -1.1343
19565TIP3   OH280109   3.358   3.815   3.459 -0.6895 -0.2081 -0.8482
19565TIP3    H180110   3.430   3.757   3.487 -1.1895 -0.6608 -0.4827
19565TIP3    H280111   3.351   3.801   3.365  1.8609  2.2829 -1.4844
19566TIP3   OH280112   5.917   0.738   0.633 -0.2698 -0.4742 -0.3165
19566TIP3    H180113   5.956   0.825   0.628  1.4069 -1.0951  1.4820
19566TIP3    H280114   5.921   0.705   0.543 -0.0082  0.9051 -0.8225
19567TIP3   OH280115   1.506   0.447   2.009  0.1833 -0.3587  0.0490
19567TIP3    H180116   1.430   0.421   2.062 -0.1656  0.4424 -0.0450
19567TIP3    H280117   1.549   0.515   2.061  0.9534 -0.9584  0.1910
19568TIP3   OH280118   3.869   6.384  16.896  0.2989  0.5487  0.0668
19568TIP3    H180119   3.950   6.423  16.862  1.1348  0.9476  2.4016
19568TIP3    H280120   3.815   6.459  16.920  0.1528  0.2845  0.5731
19569TIP3   OH280121   5.570   6.060   4.803 -0.0334  0.3949 -0.2354
19569TIP3    H180122   5.536   6.074   4.715 -1.9695  1.5837  0.6697
19569TIP3    H280123   5.639   6.127   4.813 -0.5225  0.9423 -0.4954
19570TIP3   OH280124   4.394   4.879   3.706  0.2436 -0.2477 -0.0723
19570TIP3    H180125   4.394   4.851   3.797  2.0690 -1.5991 -0.4433
19570TIP3    H280126   4.365   4.970   3.708 -1.3516 -0.7819  1.6707
19571TIP3   OH280127   1.892   3.830  16.609  0.5866 -0.2911  0.2441
19571TIP3    H180128   1.819   3.820  16.670  1.4294  1.4841  1.5947
19571TIP3    H280129   1.907   3.741  16.576 -0.3395 -1.1847  2.0969
19572TIP3   OH280130   2.113   1.744  15.759  0.0217 -0.2461  0.4952
19572TIP3    H180131   2.192   1.794  15.781  0.5209 -0.8884  0.2011
19572TIP3    H280132   2.141   1.652  15.767 -0.8307 -0.4748  0.8491
19573TIP3   OH280133   2.985   4.867  16.527 -0.5086  0.6078  0.2134
19573TIP3    H180134   2.912   4.872  16.465 -0.3939 -0.7940 -0.0725
19573TIP3    H280135   3.049   4.931  16.496  0.5347 -1.6446 -2.4694
19574TIP3   OH280136   4.984   2.920   0.202 -0.2138  0.0578  0.0167
19574TIP3    H180137   4.973   2.995   0.143  0.7133  0.4024  0.2802
19574TIP3    H280138   4.991   2.960   0.289  2.7733 -0.1493 -0.0764
19575TIP3   OH280139   6.572   3.790   5.887  0.2607  0.5588  0.0105
19575TIP3    H180140   6.499   3.830   5.839 -2.1441 -3.5186  0.0700
19575TIP3    H280141   6.629   3.755   5.818  1.4420  2.3953  0.0096
19576TIP3   OH280142   5.417   3.619  11.378  0.1004 -0.4596  0.0889
19576TIP3    H180143   5.466   3.661  11.449 -1.2594 -0.0459  0.7972
19576TIP3    H280144   5.338   3.585  11.421  1.0163 -3.5181 -0.4831
19577TIP3   OH280145   6.648   4.817   0.321 -0.0302 -0.1581 -0.1509
19577TIP3    H180146   6.728   4.869   0.311 -1.2349  1.8225  0.3075
19577TIP3    H280147   6.591   4.871   0.376 -1.3851 -1.9074  0.2062
19578TIP3   OH280148   5.467   5.608   5.667 -0.3850 -0.2379 -0.6165
19578TIP3    H180149   5.427   5.530   5.706  1.7201 -0.9582  0.1707
19578TIP3    H280150   5.485   5.583   5.577 -1.5299  0.0270 -0.9224
19579TIP3   OH280151   3.493   5.204  13.110 -0.3613  0.6192 -0.8007
19579TIP3    H180152   3.518   5.288  13.073  1.8155  0.1907 -0.3609
19579TIP3    H280153   3.576   5.164  13.138 -1.3582 -1.6305 -0.9438
19580TIP3   OH280154   0.375   4.070  13.050 -0.2353 -0.4113  0.0710
19580TIP3    H180155   0.434   4.124  13.102 -1.4164  0.6560  0.3336
19580TIP3    H280156   0.392   3.981  13.079  0.8876 -0.0736  0.4877
19581TIP3   OH280157   5.904   4.572   3.991  0.0453  0.1231  0.1861
19581TIP3    H180158   5.838   4.520   4.036  0.2508 -0.2396  0.0679
19581TIP3    H280159   5.934   4.635   4.057  0.7456 -0.7682  0.7214
19582TIP3   OH280160   3.817   4.442  16.727  0.2298  0.2578  0.0863
19582TIP3    H180161   3.752   4.424  16.795 -0.4612  1.2409 -0.3075
19582TIP3    H280162   3.902   4.428  16.770 -0.2367 -2.5795  0.1672
19583TIP3   OH280163   0.851   5.260  11.907  0.3639 -0.5822  0.0224
19583TIP3    H180164   0.863   5.334  11.967  1.5150  0.2068 -1.1518
19583TIP3    H280165   0.760   5.267  11.879  0.1154 -0.3426  0.8755
19584TIP3   OH280166   4.735   0.186  10.287 -0.0564 -0.2323 -0.3456
19584TIP3    H180167   4.660   0.180  10.228 -0.3985 -0.1875  0.0848
19584TIP3    H280168   4.746   0.279  10.304  0.6881 -0.1672 -1.1655
19585TIP3   OH280169   1.066   2.029  13.159  0.4456  0.5954  0.9918
19585TIP3    H180170   1.098   1.970  13.091 -0.7732 -0.1289  1.0432
19585TIP3    H280171   1.109   1.999  13.239  0.8885  0.6489  0.7787
19586TIP3   OH280172   1.047   4.546   3.049  0.6751  0.2921 -0.3266
19586TIP3    H180173   0.992   4.613   3.090 -0.3005 -0.9245  0.3689
19586TIP3    H280174   1.069   4.486   3.120  0.3812 -0.8926 -1.2238
19587TIP3   OH280175   3.728   6.285  15.250 -0.1581  0.0675 -0.5301
19587TIP3    H180176   3.648   6.232  15.241  0.7872 -1.4142 -0.3531
19587TIP3    H280177   3.702   6.356  15.308 -1.4230 -0.2637 -0.6617
19588TIP3   OH280178   4.812   3.542   1.003  0.6378 -0.3443  0.4608
19588TIP3    H180179   4.898   3.500   1.007  0.2528 -1.1723  0.1785
19588TIP3    H280180   4.764   3.505   1.078  0.3298 -0.3327  0.2716
19589TIP3   OH280181   5.995   2.768  16.203 -0.9055  0.4047  0.0437
19589TIP3    H180182   5.931   2.703  16.175  0.4398 -0.7024 -0.5281
19589TIP3    H280183   6.000   2.758  16.298 -1.7373  0.6362  0.1104
19590TIP3   OH280184   2.605   0.752  15.558 -0.4541  0.0272 -0.0313
19590TIP3    H180185   2.535   0.742  15.623 -1.0145 -1.1121 -0.7773
19590TIP3    H280186   2.571   0.707  15.481  0.9180 -0.1329 -0.5498
19591TIP3   OH280187   4.258   1.434   3.430  0.3574  0.1907  0.5269
19591TIP3    H180188   4.309   1.478   3.498  0.9606 -0.6447  0.6256
19591TIP3    H280189   4.179   1.404   3.474  0.6276 -0.1223  0.8042
19592TIP3   OH280190   3.479   0.157   0.587  0.2567 -0.0965 -0.0189
19592TIP3    H180191   3.488   0.075   0.634  0.1208  0.8770  1.7466
19592TIP3    H280192   3.564   0.170   0.544  0.6673 -0.5751  0.6387
19593TIP3   OH280193   1.245   4.848   3.271  0.7600  0.4677  0.2355
19593TIP3    H180194   1.247   4.923   3.211 -0.5417 -1.0423 -1.7298
19593TIP3    H280195   1.155   4.843   3.301  0.6527 -0.7814 -0.2641
19594TIP3   OH280196   1.638   3.239   0.590  0.7610 -0.3038 -0.1006
19594TIP3    H180197   1.553   3.203   0.566 -0.0561  0.2568  1.8582
19594TIP3    H280198   1.699   3.166   0.577 -0.2204 -1.1096 -0.2760
19595TIP3   OH280199   1.929   2.663   5.457 -0.1148 -0.5717  0.4122
19595TIP3    H180200   1.994   2.597   5.482  0.7501 -0.6308 -1.8811
19595TIP3    H280201   1.897   2.635   5.372 -2.1420  0.2296  0.8738
19596TIP3   OH280202   0.319   3.089  17.038  0.7982  0.4983  0.0913
19596TIP3    H180203   0.294   3.099  17.130  0.7110  1.8496 -0.0647
19596TIP3    H280204   0.411   3.063  17.041  1.3538  2.4613  0.5324
19597TIP3   OH280205   0.317   3.408  13.922 -0.1913 -0.0914  0.4475
19597TIP3    H180206   0.344   3.396  14.013 -1.4594 -0.8288  0.7455
19597TIP3    H280207   0.279   3.495  13.920 -2.5615 -1.0562  1.2651
19598TIP3   OH280208   1.407   4.323   1.793  0.1722 -0.3041  0.0173
19598TIP3    H180209   1.492   4.283   1.771  0.9671 -0.0835  2.5623
19598TIP3    H280210   1.392   4.299   1.884 -1.8721  0.8388  0.0106
19599TIP3   OH280211   5.434   0.481   1.665  0.6266 -0.5482  0.0610
19599TIP3    H180212   5.351   0.472   1.619 -0.2142  0.5132  1.3216
19599TIP3    H280213   5.499   0.494   1.596 -0.6844  1.6423 -0.8201
19600TIP3   OH280214   6.165   2.657   0.485 -0.5135 -0.2004  0.4375
19600TIP3    H180215   6.221   2.586   0.516  0.1892  0.9902  1.9677
19600TIP3    H280216   6.173   2.725   0.552 -0.9056  1.4544 -1.1502
19601TIP3   OH280217   3.599   5.326   1.593  0.6789  0.3191 -0.2345
19601TIP3    H180218   3.539   5.386   1.636 -1.1207 -0.9974 -0.8451
19601TIP3    H280219   3.577   5.240   1.630  2.5218 -0.1117 -0.1077
19602TIP3   OH280220   1.190   4.356  12.360 -0.0236 -0.2437  0.0900
19602TIP3    H180221   1.148   4.430  12.315  0.7308  0.1186 -0.0431
19602TIP3    H280222   1.128   4.330  12.428 -0.8440 -0.3070 -0.6807
19603TIP3   OH280223   3.028   6.279   1.532 -0.2336  0.2831 -0.3747
19603TIP3    H180224   3.106   6.229   1.505 -0.1652  0.0701  0.2054
19603TIP3    H280225   3.063   6.348   1.588 -0.5891 -0.6641  1.0473
19604TIP3   OH280226   5.320   6.469  15.596 -0.1054  0.0195 -0.2787
19604TIP3    H180227   5.327   6.522  15.675 -0.8459 -1.2208  0.6399
19604TIP3    H280228   5.277   6.526  15.532 -0.6464  0.6028  0.6033
19605TIP3   OH280229   5.588   3.208   3.951  0.0946 -0.4698  0.3771
19605TIP3    H180230   5.665   3.152   3.955  0.8869  0.1986 -3.3649
19605TIP3    H280231   5.533   3.169   3.883 -0.8090  1.4713 -0.0495
19606TIP3   OH280232   2.930   1.891   2.372  0.9630  0.0399  0.2062
19606TIP3    H180233   2.835   1.904   2.380  0.7947 -0.6900 -0.4973
19606TIP3    H280234   2.953   1.837   2.447  0.8023  0.1465  0.3321
19607TIP3   OH280235   5.291   5.571   4.670 -0.0974  0.7646 -0.1272
19607TIP3    H180236   5.217   5.556   4.611 -0.2701 -0.0609  0.2868
19607TIP3    H280237   5.267   5.524   4.750  1.5986 -0.9225 -0.5523
19608TIP3   OH280238   0.383   2.799  12.711 -0.1051  0.4578  0.1759
19608TIP3    H180239   0.374   2.882  12.756 -0.9238  1.0551 -1.0634
19608TIP3    H280240   0.425   2.821  12.628 -2.0607 -0.0750 -0.9840
19609TIP3   OH280241   3.059   4.363   1.717  0.5895 -0.1676 -0.3351
19609TIP3    H180242   3.118   4.291   1.695  0.1357 -0.3873 -0.8473
19609TIP3    H280243   2.999   4.369   1.642  0.0203  0.1121  0.1339
19610TIP3   OH280244   6.663   3.252   0.810 -0.5886  0.2596 -0.6319
19610TIP3    H180245   6.696   3.165   0.787  0.3765  0.2892  0.5714
19610TIP3    H280246   6.727   3.313   0.775 -2.4576  0.6650 -3.5776
19611TIP3   OH280247   3.360   5.142  16.979 -0.1849 -0.1666  0.2693
19611TIP3    H180248   3.320   5.057  16.965  0.5682 -1.0425  3.1521
19611TIP3    H280249   3.303   5.186  17.043 -0.5428  1.4954 -1.1430
19612TIP3   OH280250   2.205   2.993   0.901  0.3450 -0.2493 -0.4119
19612TIP3    H180251   2.176   3.080   0.875  1.0457  0.3674  0.8299
19612TIP3    H280252   2.184   2.937   0.826  2.8110  1.5904 -2.5438
19613TIP3   OH280253   4.603   0.122  10.882  0.0152  0.6397 -0.0099
19613TIP3    H180254   4.606   0.107  10.977 -1.1326  0.0567 -0.0559
19613TIP3    H280255   4.581   0.214  10.873 -0.8074  0.4793  0.2990
19614TIP3   OH280256   4.080   3.869   2.075 -0.4814  0.7979 -0.5601
19614TIP3    H180257   4.053   3.893   2.164  0.2959 -1.1375  0.2311
19614TIP3    H280258   4.051   3.778   2.065  1.3577  0.2800 -1.4707
19615TIP3   OH280259   5.732   6.728   2.034  0.1511  0.0572 -0.4576
19615TIP3    H180260   5.800   6.715   1.967  0.2770  0.2480 -0.3686
19615TIP3    H280261   5.688   6.809   2.008  0.2755  0.1939 -0.2452
19616TIP3   OH280262   5.603   5.913  13.000  0.2409 -0.3041 -0.1044
19616TIP3    H180263   5.628   5.846  13.064 -0.4184  0.9621  1.5118
19616TIP3    H280264   5.561   5.863  12.929 -1.1150 -1.5491  1.5089
19617TIP3   OH280265   1.040   6.325  10.682 -0.1964  0.5243 -1.5027
19617TIP3    H180266   1.093   6.405  10.673  0.7200 -0.0919 -1.6777
19617TIP3    H280267   1.019   6.300  10.593  1.3712 -0.6398 -1.5636
19618TIP3   OH280268   5.847   2.963   1.926  0.0203 -0.2468 -0.1267
19618TIP3    H180269   5.778   3.017   1.888 -0.5145 -0.7471  0.1284
19618TIP3    H280270   5.828   2.874   1.895  1.8714 -0.0515 -1.9786
19619TIP3   OH280271   5.510   4.105  15.088  0.3460 -0.4418 -1.2418
19619TIP3    H180272   5.564   4.094  15.166 -1.5674 -1.6760 -0.0527
19619TIP3    H280273   5.558   4.168  15.034  3.6086 -2.4510 -0.8186
19620TIP3   OH280274   1.338   0.859   2.561 -0.5764  0.1222 -0.3709
19620TIP3    H180275   1.331   0.951   2.586 -1.0820  0.2927 -1.1245
19620TIP3    H280276   1.301   0.811   2.634  4.5260  0.2033  2.4829
19621TIP3   OH280277   4.902   6.425  16.764 -0.5470 -0.6816 -0.5076
19621TIP3    H180278   4.807   6.431  16.765 -0.5127  0.0959  1.8863
19621TIP3    H280279   4.920   6.332  16.750 -1.6975 -1.1973  1.3138
19622TIP3   OH280280   5.872   6.199  12.741  0.2017  0.3123 -0.5277
19622TIP3    H180281   5.804   6.201  12.808 -0.2507 -0.6690 -0.9377
19622TIP3    H280282   5.824   6.186  12.659  0.7310  1.8365 -1.0800
19623TIP3   OH280283   2.712   6.782   4.632 -0.4631 -0.0100  0.0527
19623TIP3    H180284   2.731   6.875   4.642  0.5498 -0.2806  0.6371
19623TIP3    H280285   2.732   6.744   4.717 -1.4545 -0.6755 -0.0013
19624TIP3   OH280286   5.810   1.647  12.634  0.2034  0.2536 -0.1361
19624TIP3    H180287   5.897   1.638  12.595  0.1790  1.9650 -0.6002
19624TIP3    H280288   5.823   1.626  12.727  0.7628 -1.1956 -0.5246
19625TIP3   OH280289   2.598   5.131  12.462 -0.4233  0.2369 -0.0251
19625TIP3    H180290   2.667   5.196  12.476 -1.9223  1.7726  0.5384
19625TIP3    H280291   2.621   5.058  12.519  0.4391  0.9617  0.5641
19626TIP3   OH280292   4.859   2.960   1.148  0.7073 -0.1363 -0.1072
19626TIP3    H180293   4.921   2.929   1.213 -0.5155  0.9878  1.6315
19626TIP3    H280294   4.788   2.897   1.150  0.4189  0.1899  0.0390
19627TIP3   OH280295   4.260   3.871  12.787  0.6312  0.6551  0.2536
19627TIP3    H180296   4.209   3.890  12.708  0.7836  0.6479  0.1528
19627TIP3    H280297   4.258   3.775  12.794  0.4100  0.6705  0.3971
19628TIP3   OH280298   0.461   0.721  16.986  0.3194 -0.0259 -1.0541
19628TIP3    H180299   0.554   0.713  16.966  0.5457 -0.2740  0.0712
19628TIP3    H280300   0.431   0.631  16.998  1.1295  0.2017  3.7992
19629TIP3   OH280301   3.298   4.528   3.478  0.1470  0.1951 -0.7677
19629TIP3    H180302   3.263   4.617   3.475  1.1204  0.5891 -0.7506
19629TIP3    H280303   3.349   4.525   3.559 -0.0242 -0.4250 -0.6869
19630TIP3   OH280304   3.990   5.878   5.333  0.3246 -0.4624 -0.4154
19630TIP3    H180305   3.905   5.851   5.299  0.2014 -1.8103  0.9049
19630TIP3    H280306   3.978   5.969   5.360 -0.9232 -0.8890  0.4793
19631TIP3   OH280307   1.959   2.919  16.182 -0.4474 -0.1403  0.0301
19631TIP3    H180308   1.915   2.999  16.212 -0.0683  0.1756 -0.2342
19631TIP3    H280309   2.045   2.950  16.152  0.3863 -0.9041  1.5944
19632TIP3   OH280310   6.684   4.795   3.994 -0.1190  0.2785 -0.2519
19632TIP3    H180311   6.672   4.709   4.035  0.2936  0.0422 -0.6322
19632TIP3    H280312   6.760   4.833   4.038  1.2190 -0.5715 -1.7911
19633TIP3   OH280313   3.785   4.151   3.125  0.5052  0.2461 -0.1164
19633TIP3    H180314   3.691   4.143   3.140  0.6647 -0.2222  0.6702
19633TIP3    H280315   3.801   4.095   3.049  0.1213  0.4621 -0.3594
19634TIP3   OH280316   0.523   2.481   1.462 -0.3315  0.5254  0.4472
19634TIP3    H180317   0.599   2.534   1.486 -0.5494  0.9538  0.2142
19634TIP3    H280318   0.539   2.457   1.371  1.0953 -2.1486  1.3538
19635TIP3   OH280319   3.724   3.060   4.819 -0.5538  0.2590  0.0206
19635TIP3    H180320   3.781   3.028   4.888  1.2602 -0.6037 -1.8118
19635TIP3    H280321   3.741   3.001   4.745 -0.2698  2.8946 -2.0710
19636TIP3   OH280322   4.151   2.542   2.681 -0.5546 -0.1397 -0.0668
19636TIP3    H180323   4.141   2.534   2.775 -0.2160  2.6071  0.2391
19636TIP3    H280324   4.228   2.489   2.660  0.0009  0.1007  1.3308
19637TIP3   OH280325   2.518   5.999   4.423 -0.4473 -0.2434 -0.5978
19637TIP3    H180326   2.454   5.932   4.399  1.4711 -1.7748 -1.6277
19637TIP3    H280327   2.517   6.060   4.349 -0.3649 -0.5562 -0.8614
19638TIP3   OH280328   1.081   5.508   5.265 -0.0297  0.0301  0.2266
19638TIP3    H180329   1.003   5.550   5.301 -0.7044  1.5316 -2.7487
19638TIP3    H280330   1.149   5.575   5.270 -0.2785  0.4578 -1.6777
19639TIP3   OH280331   1.080   6.250   3.481 -0.4370  0.1848  0.5083
19639TIP3    H180332   1.053   6.334   3.443  0.2826  0.4968  0.6683
19639TIP3    H280333   1.153   6.272   3.538 -1.0711 -0.3879  1.5449
19640TIP3   OH280334   6.448   0.244  14.694  0.5311 -0.2476 -0.0352
19640TIP3    H180335   6.358   0.222  14.718  0.1267  0.5595 -0.7812
19640TIP3    H280336   6.444   0.335  14.665  1.2327 -0.7581 -1.8434
19641TIP3   OH280337   3.551   1.792   1.106 -0.1412  0.4300  0.3128
19641TIP3    H180338   3.629   1.738   1.089  0.6580  1.6572 -0.0073
19641TIP3    H280339   3.480   1.746   1.061  0.4175 -0.6572  0.5239
19642TIP3   OH280340   0.311   5.886  15.974 -0.1941  0.0565 -0.3346
19642TIP3    H180341   0.372   5.888  16.048  0.0526 -0.8067 -0.5144
19642TIP3    H280342   0.288   5.794  15.964  0.4955  0.0463 -1.9276
19643TIP3   OH280343   4.426   5.237   5.649  0.1764  0.1379 -0.4222
19643TIP3    H180344   4.399   5.147   5.667  1.6636 -0.2962 -0.2357
19643TIP3    H280345   4.378   5.261   5.570 -0.0652 -0.9092 -0.6082
19644TIP3   OH280346   4.553   2.141  14.284 -0.4695  0.2631  0.0824
19644TIP3    H180347   4.481   2.132  14.221  0.9051 -0.3560 -1.4252
19644TIP3    H280348   4.540   2.068  14.345 -1.6187  0.6675  0.3243
19645TIP3   OH280349   3.477   3.809  17.216  0.6334 -0.0972 -0.0607
19645TIP3    H180350   3.558   3.816  17.265  0.3197  0.1304  0.4307
19645TIP3    H280351   3.436   3.895  17.225 -0.2319 -0.5829  0.6978
19646TIP3   OH280352   4.365   0.116  14.408  0.1407 -0.3618  0.3487
19646TIP3    H180353   4.381   0.042  14.466  0.4493 -0.6619 -0.1092
19646TIP3    H280354   4.359   0.192  14.466  1.0227 -0.5714  0.7251
19647TIP3   OH280355   0.161   2.718   4.137 -0.0132 -0.3650 -0.3336
19647TIP3    H180356   0.114   2.770   4.203 -1.3237 -0.9477 -0.7869
19647TIP3    H280357   0.174   2.779   4.064 -1.2921 -0.5821 -0.7511
19648TIP3   OH280358   1.598   2.876  10.884 -0.3092  0.1725  0.2050
19648TIP3    H180359   1.606   2.953  10.826  2.7006 -0.4021 -0.1922
19648TIP3    H280360   1.549   2.813  10.832 -1.5054  1.2622 -0.0278
19649TIP3   OH280361   2.768   3.945   3.456  0.6578 -0.2431 -0.2817
19649TIP3    H180362   2.766   3.901   3.541  0.8847  1.7091  0.7626
19649TIP3    H280363   2.841   4.006   3.462  0.5398  0.0713 -1.8068
19650TIP3   OH280364   0.794   3.316  15.677 -0.3092 -0.0621  0.1361
19650TIP3    H180365   0.862   3.312  15.609 -1.1944  0.2677 -0.7924
19650TIP3    H280366   0.791   3.228  15.713  2.2316  0.5036  1.8290
19651TIP3   OH280367   5.966   5.558   4.067  0.2646  0.1186 -0.1898
19651TIP3    H180368   6.040   5.589   4.014 -0.2072  2.0240  0.2303
19651TIP3    H280369   5.893   5.615   4.041 -0.1706  0.5517  1.9184
19652TIP3   OH280370   6.101   3.419   1.711  0.3391 -0.0268  0.3781
19652TIP3    H180371   6.081   3.512   1.719  0.1721  0.0585 -0.8253
19652TIP3    H280372   6.182   3.416   1.659  1.0048 -0.5149  1.4324
19653TIP3   OH280373   3.806   0.041  14.004  0.1128 -0.2948  0.2850
19653TIP3    H180374   3.812   0.130  14.040  0.7326 -0.8422  1.6066
19653TIP3    H280375   3.736  -0.000  14.055 -0.8915 -0.2452 -1.0468
19654TIP3   OH280376   0.284   2.211   5.804 -0.4009 -0.1010  0.1416
19654TIP3    H180377   0.228   2.181   5.875  0.9506 -1.4861  0.6376
19654TIP3    H280378   0.281   2.141   5.738 -1.1410  0.8837 -0.8886
19655TIP3   OH280379   1.236   3.463  12.392  0.1065 -0.0529 -0.4741
19655TIP3    H180380   1.287   3.457  12.311 -0.7526  0.3492 -1.0635
19655TIP3    H280381   1.182   3.384  12.392  0.2873 -0.1766 -0.1649
19656TIP3   OH280382   5.511   2.783   2.053 -0.5291 -0.1816 -0.3319
19656TIP3    H180383   5.581   2.724   2.027  1.2712  0.9268  1.8114
19656TIP3    H280384   5.504   2.846   1.981  1.7776  0.6177  0.1020
19657TIP3   OH280385   4.063   3.205   0.763  0.0758  0.3238 -0.1944
19657TIP3    H180386   3.970   3.222   0.781  0.8018  1.5431  2.7233
19657TIP3    H280387   4.095   3.286   0.723  0.4097  0.8168  1.0448
19658TIP3   OH280388   6.543   2.613   3.957 -0.2764 -0.2148  0.0874
19658TIP3    H180389   6.447   2.617   3.955 -0.3767 -2.4064 -0.5454
19658TIP3    H280390   6.563   2.591   4.048 -0.3592  0.2635  0.2256
19659TIP3   OH280391   3.898   3.076   1.823 -0.2473  0.0998  0.2906
19659TIP3    H180392   3.899   3.094   1.729  0.5829  0.0780  0.2871
19659TIP3    H280393   3.828   3.012   1.835 -0.3777  0.1287 -0.3091
19660TIP3   OH280394   6.757   1.163   3.556 -0.1160 -0.2009  0.3642
19660TIP3    H180395   6.753   1.218   3.477 -0.3062  1.6799  1.6478
19660TIP3    H280396   6.814   1.090   3.531 -0.4448  0.1774 -1.6149
19661TIP3   OH280397   4.129   0.104  16.758  0.1120  0.0630  0.0562
19661TIP3    H180398   4.157   0.137  16.844 -1.5738 -0.6028  0.8912
19661TIP3    H280399   4.178   0.023  16.747 -0.7416 -0.6176  1.0848
19662TIP3   OH280400   4.231   1.978   5.417 -0.7056 -0.4362 -0.2012
19662TIP3    H180401   4.154   1.960   5.471 -1.1311  0.9088 -0.3489
19662TIP3    H280402   4.263   2.063   5.447  0.0741 -0.4789 -0.8909
19663TIP3   OH280403   1.407   0.413  14.057 -0.3736  0.6398  0.1731
19663TIP3    H180404   1.312   0.409  14.049 -0.3258  0.2684 -0.2186
19663TIP3    H280405   1.424   0.495  14.103 -0.8938  0.6153  0.4067
19664TIP3   OH280406   3.266   5.990   3.812 -0.4480  0.1950 -0.2488
19664TIP3    H180407   3.334   6.017   3.874 -0.6638 -0.7652  0.4273
19664TIP3    H280408   3.293   5.903   3.783  0.0045  0.9156 -2.0374
19665TIP3   OH280409   1.514   3.620   4.362 -0.1803 -0.0627 -0.1225
19665TIP3    H180410   1.598   3.649   4.327 -0.2005 -1.4854 -1.4012
19665TIP3    H280411   1.525   3.620   4.457  2.4336 -3.5856 -0.3398
19666TIP3   OH280412   6.349   5.109  15.817  0.5321  0.0734  0.4927
19666TIP3    H180413   6.307   5.183  15.773  0.4823  0.9389  1.9298
19666TIP3    H280414   6.326   5.033  15.765 -0.0351  0.9776 -0.6031
19667TIP3   OH280415   4.245   4.145   5.554 -0.5690  0.0715  0.4763
19667TIP3    H180416   4.263   4.164   5.462 -1.9919 -0.5401  0.0504
19667TIP3    H280417   4.154   4.171   5.566 -0.8258 -1.1726  1.3422
19668TIP3   OH280418   5.846   4.249   2.979  0.2399  0.0431 -0.1500
19668TIP3    H180419   5.891   4.298   2.910  1.2770 -0.2238  0.3299
19668TIP3    H280420   5.870   4.157   2.962 -0.2595 -0.1176  0.0080
19669TIP3   OH280421   5.560   5.336  13.366  0.3553 -0.0212  0.2501
19669TIP3    H180422   5.624   5.278  13.407 -0.6696 -3.2211 -2.4908
19669TIP3    H280423   5.475   5.305  13.399 -0.1723  0.3313 -0.7645
19670TIP3   OH280424   4.378   1.203   6.014  0.2015 -0.1928 -0.1150
19670TIP3    H180425   4.390   1.108   6.011  1.7740  0.0194 -0.5834
19670TIP3    H280426   4.438   1.238   5.948 -1.2480  1.0526 -0.8173
19671TIP3   OH280427   2.110   5.839   3.598  0.0382 -0.0491  0.0027
19671TIP3    H180428   2.153   5.876   3.521 -0.8543  0.3559 -0.3012
19671TIP3    H280429   2.163   5.763   3.621  0.3824 -0.0891 -0.9272
19672TIP3   OH280430   5.534   2.245   2.985 -0.1120  0.9675 -0.3166
19672TIP3    H180431   5.454   2.207   3.022 -0.4133  2.0789  0.1901
19672TIP3    H280432   5.531   2.221   2.892 -1.3924  1.5819 -0.4435
19673TIP3   OH280433   5.737   2.472   3.396  0.0106  0.0778  0.0009
19673TIP3    H180434   5.654   2.429   3.376  1.5914 -2.4331 -1.4802
19673TIP3    H280435   5.737   2.551   3.343 -0.6588 -0.8782 -1.4417
19674TIP3   OH280436   0.866   5.000   4.936 -0.3447 -0.3036 -0.1985
19674TIP3    H180437   0.948   4.958   4.910 -0.7893 -1.4360  0.2034
19674TIP3    H280438   0.887   5.045   5.018  0.1276  0.2409 -0.6168
19675TIP3   OH280439   2.170   4.085   1.790  0.4944  0.1816  0.2100
19675TIP3    H180440   2.203   4.037   1.866 -0.5166 -0.3572  0.3181
19675TIP3    H280441   2.075   4.089   1.804  0.6046  2.6844  0.4791
19676TIP3   OH280442   1.977   2.901  14.922 -0.1382  0.0067  0.2074
19676TIP3    H180443   2.001   2.810  14.904  1.3673 -0.2688  3.2770
19676TIP3    H280444   2.059   2.950  14.910 -1.0502  1.0591 -1.9151
19677TIP3   OH280445   0.301   5.340  15.926 -0.1885  0.3540  0.0791
19677TIP3    H180446   0.211   5.356  15.955 -0.1326  1.7015 -0.4549
19677TIP3    H280447   0.292   5.295  15.842 -0.3511 -0.5851  0.5885
19678TIP3   OH280448   0.529   4.571  11.546  0.3487 -0.2667  0.1768
19678TIP3    H180449   0.461   4.568  11.479 -0.3672 -0.7508  0.9302
19678TIP3    H280450   0.567   4.658  11.537 -0.4942  0.0760 -0.1144
19679TIP3   OH280451   5.610   5.237  12.027 -0.3726 -0.3074  0.4788
19679TIP3    H180452   5.673   5.166  12.041  0.1180  0.3370  1.6174
19679TIP3    H280453   5.538   5.217  12.086 -0.6097 -0.2969  0.1938
19680TIP3   OH280454   2.609   1.994  12.232  0.6159 -0.2762  0.0810
19680TIP3    H180455   2.662   2.061  12.276 -1.2896  0.0863  1.9162
19680TIP3    H280456   2.577   1.939  12.304 -0.2813 -1.3544 -1.1299
19681TIP3   OH280457   5.653   6.415   0.669  0.1834  0.0942 -0.0195
19681TIP3    H180458   5.682   6.407   0.760  1.2857  0.0008 -0.3754
19681TIP3    H280459   5.624   6.326   0.646  0.8659 -0.1100 -0.0859
19682TIP3   OH280460   1.200   4.669   6.500 -0.1539 -0.1071 -0.3885
19682TIP3    H180461   1.266   4.602   6.518 -1.1404 -1.3235 -1.1476
19682TIP3    H280462   1.208   4.731   6.572  0.5134 -1.2746  0.5645
19683TIP3   OH280463   2.766   5.509   3.954  0.3361  0.4776 -0.0933
19683TIP3    H180464   2.674   5.486   3.938 -0.0636  2.0779 -0.1601
19683TIP3    H280465   2.778   5.594   3.912  2.0030  0.0404 -0.5404
19684TIP3   OH280466   2.109   1.326   3.473  0.1054 -0.5443  0.4316
19684TIP3    H180467   2.181   1.341   3.534  0.6913 -0.6014 -0.2462
19684TIP3    H280468   2.060   1.253   3.511  0.5917 -0.7241  0.7144
19685TIP3   OH280469   2.445   4.574   5.342  0.7703  0.3511  0.2242
19685TIP3    H180470   2.514   4.514   5.313  0.7702 -0.6134  2.1415
19685TIP3    H280471   2.364   4.524   5.331  0.5470  0.8157 -0.2702
19686TIP3   OH280472   1.893   5.161  13.864 -0.0272  0.3000  0.5063
19686TIP3    H180473   1.822   5.174  13.926 -1.2457  1.1392 -1.0413
19686TIP3    H280474   1.953   5.101  13.909 -2.6838 -2.0657  1.0357
19687TIP3   OH280475   0.833   5.132   0.480  0.3552 -0.6432  0.3718
19687TIP3    H180476   0.787   5.144   0.563 -0.5968  0.8210 -0.3446
19687TIP3    H280477   0.809   5.044   0.452 -0.5633 -0.5700  0.9013
19688TIP3   OH280478   3.103   3.255  11.507 -0.1541  0.4114  0.0953
19688TIP3    H180479   3.033   3.296  11.456  0.5503  0.7336 -0.6238
19688TIP3    H280480   3.131   3.180  11.454  0.3888  0.5794  0.1403
19689TIP3   OH280481   5.852   4.892   0.184  0.1380 -0.1310  0.1547
19689TIP3    H180482   5.893   4.808   0.164  0.6586  0.3451 -0.8074
19689TIP3    H280483   5.913   4.958   0.150 -2.1326  0.5635 -2.7837
19690TIP3   OH280484   4.773   4.726   3.147 -0.4499  0.5426  0.4478
19690TIP3    H180485   4.866   4.709   3.129 -0.0495  0.1759  2.6842
19690TIP3    H280486   4.730   4.715   3.062  1.2991 -1.0551 -0.2824
19691TIP3   OH280487   1.577   4.126   4.001  0.0144 -0.0066 -0.6620
19691TIP3    H180488   1.507   4.067   3.977 -0.9655  0.1658  1.6759
19691TIP3    H280489   1.636   4.074   4.056 -0.6617  1.0416  1.1048
19692TIP3   OH280490   2.706   3.288  15.554 -1.0797 -0.2049 -0.5770
19692TIP3    H180491   2.667   3.231  15.620 -1.8004 -1.2834 -1.9092
19692TIP3    H280492   2.700   3.376  15.591 -1.5747 -0.7867  0.7341
19693TIP3   OH280493   6.506   3.346   4.600 -0.4783 -0.5525 -0.3849
19693TIP3    H180494   6.439   3.385   4.656 -0.5196 -1.8080  0.4569
19693TIP3    H280495   6.457   3.301   4.531 -0.4823 -0.8283 -0.2016
19694TIP3   OH280496   2.904   5.912  12.220  0.0854  0.0636 -0.3538
19694TIP3    H180497   2.941   5.866  12.145 -0.1115 -1.5013  0.4893
19694TIP3    H280498   2.915   6.005  12.199 -1.8644 -0.3010 -3.2916
19695TIP3   OH280499   0.167   0.987   1.843  0.6650  0.2325 -0.2291
19695TIP3    H180500   0.185   1.033   1.761 -0.5717  1.3784  0.1181
19695TIP3    H280501   0.168   0.894   1.819 -0.0298  0.5684 -1.6321
19696TIP3   OH280502   0.995   6.756   4.084 -0.1961 -0.6304  0.1940
19696TIP3    H180503   0.924   6.805   4.042 -1.0085 -0.6119  1.5570
19696TIP3    H280504   0.977   6.664   4.063 -1.4972 -0.7594  1.8003
19697TIP3   OH280505   1.305   1.100  11.636  0.1431  0.5428  0.0371
19697TIP3    H180506   1.357   1.124  11.560  0.8887  0.8389  0.6381
19697TIP3    H280507   1.249   1.176  11.651  0.9684  1.0415  0.6176
19698TIP3   OH280508   5.419   6.060   6.343  0.1460 -0.2009  0.4648
19698TIP3    H180509   5.387   6.004   6.414  0.7568  1.3558  2.0195
19698TIP3    H280510   5.402   6.149   6.373 -0.1376  0.4747 -1.6401
19699TIP3   OH280511   4.288   1.852   1.072  0.7809  0.0218  0.2298
19699TIP3    H180512   4.300   1.924   1.133  1.1249 -0.8688  1.2316
19699TIP3    H280513   4.228   1.886   1.006 -0.0234  0.8186  1.3528
19700TIP3   OH280514   6.777   6.109  14.043 -0.1436  0.4375 -0.1472
19700TIP3    H180515   6.757   6.085  14.133 -0.5879  0.6781 -0.1808
19700TIP3    H280516   6.831   6.188  14.051  2.9878 -1.6472  0.0316
19701TIP3   OH280517   1.487   6.115   0.071  0.0081 -0.0379  0.5761
19701TIP3    H180518   1.465   6.208   0.064  0.5376  0.1910  1.6937
19701TIP3    H280519   1.445   6.087   0.153  1.3775 -0.3186  1.1962
19702TIP3   OH280520   0.561   1.613  12.408 -0.0504  0.4901 -0.3045
19702TIP3    H180521   0.495   1.618  12.477  0.6152  0.5271  0.3394
19702TIP3    H280522   0.570   1.519  12.391  0.8412  0.3723  0.7120
19703TIP3   OH280523   5.176   1.056  11.759 -0.5904  0.0579 -0.0577
19703TIP3    H180524   5.258   1.029  11.718 -1.7265 -0.8242 -1.8401
19703TIP3    H280525   5.149   1.133  11.709 -0.5530  0.7063  0.9132
19704TIP3   OH280526   6.779   5.926   2.490 -0.2141 -0.3800  0.3360
19704TIP3    H180527   6.812   5.949   2.577  0.1547 -1.2761  0.4368
19704TIP3    H280528   6.694   5.885   2.506 -0.0532 -0.7336  0.2943
19705TIP3   OH280529   4.916   4.291   4.989  0.3399 -0.1516 -0.4564
19705TIP3    H180530   4.996   4.262   4.945 -0.1988 -1.3654 -0.6454
19705TIP3    H280531   4.935   4.382   5.014  1.3035 -0.0031 -1.6322
19706TIP3   OH280532   0.375   0.546   3.044  0.0795  0.1726 -0.0021
19706TIP3    H180533   0.467   0.568   3.058  0.1200 -0.7311  1.1740
19706TIP3    H280534   0.340   0.530   3.131 -1.0625 -0.0278 -0.4871
19707TIP3   OH280535   2.779   1.639   0.572  0.3014  0.2467 -0.1629
19707TIP3    H180536   2.757   1.576   0.641 -2.5744 -1.4703 -2.5033
19707TIP3    H280537   2.703   1.697   0.567  1.4619  1.7886 -0.3660
19708TIP3   OH280538   3.514   5.070  15.766 -0.2077 -0.0768 -0.4901
19708TIP3    H180539   3.521   4.975  15.758  2.0637  0.1722 -2.1001
19708TIP3    H280540   3.420   5.087  15.768 -0.6551 -2.4738  1.8372
19709TIP3   OH280541   0.805   5.249   4.311 -0.1780  0.0957 -0.1395
19709TIP3    H180542   0.772   5.323   4.362  0.6530 -0.5142  1.3100
19709TIP3    H280543   0.894   5.275   4.286 -0.5108  0.3067 -1.1299
19710TIP3   OH280544   0.710   5.665   4.638 -0.0832  1.1425  0.2729
19710TIP3    H180545   0.615   5.677   4.638 -0.5738 -2.1132 -0.3550
19710TIP3    H280546   0.729   5.628   4.724  0.5606  1.4901  0.2785
19711TIP3   OH280547   6.511   3.531  14.042  0.1204 -0.2236  0.8456
19711TIP3    H180548   6.582   3.523  14.105  3.0516 -1.9254 -2.4811
19711TIP3    H280549   6.439   3.480  14.080  2.5355 -3.0131  1.8897
19712TIP3   OH280550   6.222   4.392  13.391 -0.6115  1.1426 -0.2464
19712TIP3    H180551   6.178   4.362  13.471  0.9036  1.2628  0.6610
19712TIP3    H280552   6.203   4.325  13.326 -1.2694  0.6775  0.4150
19713TIP3   OH280553   5.626   5.887  15.662  0.0220  0.7493  0.1432
19713TIP3    H180554   5.618   5.906  15.755  0.5916  2.3832 -0.1370
19713TIP3    H280555   5.676   5.960  15.626 -0.8584  0.5201 -1.5859
19714TIP3   OH280556   4.151   0.383  13.968 -0.6380  0.0875  0.3711
19714TIP3    H180557   4.108   0.358  14.049  0.8627 -1.8700  0.6270
19714TIP3    H280558   4.128   0.313  13.906 -1.5706  1.4312 -0.8290
19715TIP3   OH280559   4.750   5.335   5.318 -0.3988  0.2457  0.4497
19715TIP3    H180560   4.725   5.387   5.395 -2.5072  0.3432 -0.2686
19715TIP3    H280561   4.690   5.261   5.318 -1.4340  1.0501 -1.9507
19716TIP3   OH280562   2.915   0.407  14.711 -0.0254 -0.6397  0.7458
19716TIP3    H180563   2.911   0.413  14.806  1.0433 -0.1671  0.7716
19716TIP3    H280564   2.889   0.493  14.679  2.4713  0.1444  0.7156
19717TIP3   OH280565   1.131   5.030   2.794 -0.2260 -0.3517 -0.0611
19717TIP3    H180566   1.123   4.942   2.757 -1.1647 -0.5112  0.4950
19717TIP3    H280567   1.220   5.058   2.772 -0.8557 -0.3003 -2.7539
19718TIP3   OH280568   4.476   3.054   0.888  0.1464  0.2725 -0.3062
19718TIP3    H180569   4.548   3.116   0.879  0.6578 -0.1696  0.7724
19718TIP3    H280570   4.470   3.037   0.982 -0.8116 -0.3475 -0.4742
19719TIP3   OH280571   1.288   6.487  15.371 -0.2821 -0.3485 -0.5368
19719TIP3    H180572   1.218   6.451  15.317  1.1771 -0.7957 -2.1493
19719TIP3    H280573   1.312   6.416  15.430 -1.3032 -0.1280  0.1598
19720TIP3   OH280574   1.452   4.255   5.464 -0.1504 -0.6179 -0.2482
19720TIP3    H180575   1.501   4.227   5.541  0.5635  1.4748  0.1015
19720TIP3    H280576   1.360   4.235   5.485 -0.0430  0.5381  1.4467
19721TIP3   OH280577   0.464   2.925  15.974  0.1922 -0.6339  0.0915
19721TIP3    H180578   0.426   3.002  15.933 -0.4528 -1.0841 -0.1661
19721TIP3    H280579   0.432   2.851  15.922 -0.5323 -1.1955  1.3195
19722TIP3   OH280580   0.052   4.606  16.711 -0.1418 -0.1787 -0.0872
19722TIP3    H180581   0.091   4.639  16.630 -0.8452 -3.7265 -1.9651
19722TIP3    H280582  -0.042   4.605  16.694 -0.2574 -1.4392  0.5741
19723TIP3   OH280583   5.162   3.799  11.576 -0.0473 -0.0087  0.5228
19723TIP3    H180584   5.091   3.780  11.637 -0.7683 -1.7497 -0.7949
19723TIP3    H280585   5.190   3.713  11.545  0.3688  0.8315 -1.5051
19724TIP3   OH280586   4.140   1.775  15.186 -0.2013 -0.1320 -0.5866
19724TIP3    H180587   4.057   1.813  15.212  0.2245  0.2882  0.1607
19724TIP3    H280588   4.116   1.701  15.130 -1.0301  1.7970 -2.8897
19725TIP3   OH280589   4.456   0.578  13.754  0.3476  0.3781  0.3139
19725TIP3    H180590   4.408   0.593  13.673  3.8408  0.3995 -1.8559
19725TIP3    H280591   4.440   0.486  13.775  1.7666 -0.4566 -2.0717
19726TIP3   OH280592   0.787   3.649  11.421 -0.1856  0.1571 -0.3522
19726TIP3    H180593   0.751   3.616  11.339  0.3471 -1.4612  0.0316
19726TIP3    H280594   0.855   3.711  11.394  0.4509 -0.8693 -1.1576
19727TIP3   OH280595   4.758   6.439   0.686 -0.1324  0.3765  0.3863
19727TIP3    H180596   4.694   6.492   0.638 -1.8479 -2.0876 -0.0828
19727TIP3    H280597   4.836   6.440   0.629  0.1832  3.0629  0.7936
19728TIP3   OH280598   6.239   1.602   2.651 -0.0569 -0.5156  0.7919
19728TIP3    H180599   6.268   1.517   2.685  1.8522 -0.6210 -1.0491
19728TIP3    H280600   6.198   1.582   2.567 -0.0182  0.3475  0.5657
19729TIP3   OH280601   3.710   0.686  14.874 -0.0296  0.4145 -0.4948
19729TIP3    H180602   3.704   0.741  14.952  1.1891 -0.4546  0.2251
19729TIP3    H280603   3.627   0.638  14.872 -0.4143  1.0723 -0.2147
19730TIP3   OH280604   2.994   5.345   3.948  0.1055  0.0632 -0.0279
19730TIP3    H180605   3.003   5.340   4.043  0.1245  0.5520 -0.0058
19730TIP3    H280606   2.899   5.349   3.933  0.1650  1.9343  0.0614
19731TIP3   OH280607   3.028   0.914  13.161  0.1308 -1.3614  0.1653
19731TIP3    H180608   2.975   0.955  13.093  0.7176 -1.4310 -0.3457
19731TIP3    H280609   2.975   0.919  13.240 -0.2325 -0.5527 -0.1238
19732TIP3   OH280610   1.818   2.323   4.242 -0.1539 -0.4076 -0.7034
19732TIP3    H180611   1.896   2.281   4.207 -0.1919 -1.1609  0.0953
19732TIP3    H280612   1.841   2.345   4.332  0.2142  2.2167 -1.4188
19733TIP3   OH280613   1.618   0.656   6.168  0.7535  0.0588  0.2016
19733TIP3    H180614   1.607   0.659   6.073 -1.0139 -0.9842  0.3576
19733TIP3    H280615   1.538   0.615   6.200  1.3192  0.4389  2.1538
19734TIP3   OH280616   6.374   0.349   2.429  0.0311  0.3725 -0.7200
19734TIP3    H180617   6.452   0.295   2.444 -0.5195 -0.1868  0.1675
19734TIP3    H280618   6.311   0.319   2.495 -1.0865  0.5312 -1.6940
19735TIP3   OH280619   2.818   5.529  15.417 -0.7381 -0.2841  0.3879
19735TIP3    H180620   2.858   5.610  15.449  0.3190 -1.1564  1.3090
19735TIP3    H280621   2.739   5.518  15.471 -0.7206 -0.0248  0.4660
19736TIP3   OH280622   2.504   2.372   3.505  0.1889 -0.0982 -0.1606
19736TIP3    H180623   2.474   2.427   3.433  0.8359 -0.7142 -0.9164
19736TIP3    H280624   2.427   2.321   3.530  0.2426 -0.7006 -1.1875
19737TIP3   OH280625   1.727   4.620  12.000 -0.1872 -0.0096 -0.2741
19737TIP3    H180626   1.758   4.706  11.970  1.1978 -0.0614  0.9764
19737TIP3    H280627   1.634   4.633  12.018 -0.1178  1.0790 -0.6479
19738TIP3   OH280628   4.595   6.226   6.209  0.1888 -0.0617 -0.7025
19738TIP3    H180629   4.561   6.136   6.216  0.9415 -0.3524 -0.7498
19738TIP3    H280630   4.654   6.235   6.283  1.2818 -0.1230 -1.5573
19739TIP3   OH280631   6.119   0.668   6.374 -0.2214 -0.1669 -0.0672
19739TIP3    H180632   6.087   0.715   6.450 -0.9304  0.2228 -0.6005
19739TIP3    H280633   6.166   0.593   6.410 -1.7977 -0.8003  0.7178
19740TIP3   OH280634   1.595   6.369  12.320  0.3239 -0.0149 -0.6380
19740TIP3    H180635   1.526   6.304  12.331  0.6886  0.1528  3.6817
19740TIP3    H280636   1.675   6.317  12.309  0.0617 -0.2611 -1.3798
19741TIP3   OH280637   0.394   6.147  17.125  0.1270  0.6656 -0.3171
19741TIP3    H180638   0.363   6.087  17.057 -0.4877 -0.2062  0.7420
19741TIP3    H280639   0.452   6.208  17.077 -0.9420  0.5668 -1.7706
19742TIP3   OH280640   2.777   0.042  11.199  0.1166  0.0165  0.2875
19742TIP3    H180641   2.784   0.091  11.117 -0.7241 -0.1717  0.1007
19742TIP3    H280642   2.698  -0.012  11.189  1.3683 -1.8425  0.2491
19743TIP3   OH280643   4.325   5.137   3.650 -0.0077  0.2434  0.0443
19743TIP3    H180644   4.250   5.184   3.686 -0.4213 -1.7111  1.8145
19743TIP3    H280645   4.357   5.194   3.580 -1.6108  2.2787  0.8999
19744TIP3   OH280646   4.580   6.406   4.649  0.1543  0.6204  0.0632
19744TIP3    H180647   4.494   6.404   4.608  0.1868 -1.4478  0.0637
19744TIP3    H280648   4.632   6.342   4.600  1.0404  0.2205  1.4770
19745TIP3   OH280649   3.493   4.076   1.915 -0.3510 -0.0472  0.5346
19745TIP3    H180650   3.589   4.080   1.919 -0.2634 -0.5212 -0.8816
19745TIP3    H280651   3.474   3.988   1.881 -1.2229  0.7068 -0.9912
19746TIP3   OH280652   2.847   4.093  15.641 -0.4504  0.3516 -0.0380
19746TIP3    H180653   2.909   4.094  15.568  0.0751 -0.0624  0.3976
19746TIP3    H280654   2.902   4.081  15.719 -1.2151 -1.5498  0.2109
19747TIP3   OH280655   0.843   5.912  15.414  0.6509 -0.3982  0.4770
19747TIP3    H180656   0.802   5.830  15.387 -1.7265 -0.1396  3.0615
19747TIP3    H280657   0.833   5.970  15.339  1.2462 -2.0413 -0.9256
19748TIP3   OH280658   2.466   0.674  13.128  0.0280  0.1431  0.3174
19748TIP3    H180659   2.477   0.651  13.221 -0.9416  0.1887  0.4450
19748TIP3    H280660   2.388   0.730  13.126  0.1652  0.3110 -0.5029
19749TIP3   OH280661   2.261   1.732  15.448 -0.1821 -0.2858 -0.1289
19749TIP3    H180662   2.272   1.810  15.503 -1.4851 -1.0061  1.1834
19749TIP3    H280663   2.187   1.753  15.392  1.2256  0.4981 -1.7426
19750TIP3   OH280664   0.900   0.636  13.934  0.1192 -0.4657 -0.2012
19750TIP3    H180665   0.909   0.725  13.901  1.2934 -0.6015 -0.2591
19750TIP3    H280666   0.814   0.607  13.902 -0.6953  0.9734  0.6116
19751TIP3   OH280667   4.801   5.425  14.735 -0.2022  0.1357  0.7733
19751TIP3    H180668   4.830   5.376  14.813  1.1994 -1.9407 -0.9930
19751TIP3    H280669   4.731   5.371  14.698  0.4056  0.1601 -0.4269
19752TIP3   OH280670   3.476   6.739   4.679 -0.1729  0.2247 -0.4468
19752TIP3    H180671   3.385   6.722   4.703 -0.5433  2.8560  0.2397
19752TIP3    H280672   3.527   6.700   4.750 -0.7289 -1.5144 -0.9807
19753TIP3   OH280673   3.308   5.067   2.595 -0.0621  0.5041 -0.4185
19753TIP3    H180674   3.349   5.096   2.677 -2.1427  0.0760  0.8040
19753TIP3    H280675   3.338   4.977   2.584 -2.2745 -0.5243  1.5835
19754TIP3   OH280676   4.893   5.448   0.959  0.1898  0.5203  0.2123
19754TIP3    H180677   4.883   5.354   0.975 -0.2837  0.7039  1.0089
19754TIP3    H280678   4.938   5.480   1.037 -0.0439  1.0297  0.1369
19755TIP3   OH280679   5.833   5.219   6.214  0.4919 -0.3231  0.3627
19755TIP3    H180680   5.762   5.203   6.277  0.6531 -0.4825  0.5017
19755TIP3    H280681   5.842   5.314   6.212  0.6017 -0.3294  0.7027
19756TIP3   OH280682   3.963   4.432  14.650  0.2714  0.0179 -0.1432
19756TIP3    H180683   3.880   4.479  14.643  1.1632  2.0075  2.0743
19756TIP3    H280684   4.024   4.496  14.686  1.8619 -2.4744  1.7429
19757TIP3   OH280685   4.722   3.934  15.859  0.1282  0.0451  0.2736
19757TIP3    H180686   4.700   3.844  15.883  1.5337 -0.4443 -0.2341
19757TIP3    H280687   4.686   3.945  15.771  3.2099 -1.3036 -1.2499
19758TIP3   OH280688   4.034   1.322   4.599 -0.1082  0.1180  0.6255
19758TIP3    H180689   4.093   1.321   4.675 -1.3243  0.9093  1.5943
19758TIP3    H280690   3.994   1.235   4.600  1.2184 -0.5194 -0.1947
19759TIP3   OH280691   6.592   5.309   2.560 -0.1185  0.0264  0.1154
19759TIP3    H180692   6.590   5.400   2.531  4.5281 -0.0194 -0.8474
19759TIP3    H280693   6.583   5.258   2.479  0.5868 -0.3064  0.2433
19760TIP3   OH280694   2.930   5.400   4.241  0.6844  0.2560 -0.3173
19760TIP3    H180695   2.992   5.372   4.308 -2.6942  1.1102  3.3666
19760TIP3    H280696   2.955   5.491   4.222 -0.2284  1.0895  2.2401
19761TIP3   OH280697   2.970   3.188   4.438 -0.1716  0.2524  0.0693
19761TIP3    H180698   2.898   3.226   4.488  0.8779  2.9887 -0.4205
19761TIP3    H280699   2.928   3.156   4.357 -1.0065  0.8720  0.2428
19762TIP3   OH280700   2.388   3.480  14.975 -0.0694 -0.5661 -0.0754
19762TIP3    H180701   2.339   3.420  15.031  2.2914 -2.6554 -0.1455
19762TIP3    H280702   2.344   3.477  14.890 -0.2224 -1.9054  0.0464
19763TIP3   OH280703   5.312   1.147   3.580 -0.0833 -0.2659  0.3476
19763TIP3    H180704   5.267   1.203   3.643  0.3977 -0.2091  0.6434
19763TIP3    H280705   5.381   1.203   3.544  0.3936 -0.6616  0.6388
19764TIP3   OH280706   0.329   2.276   3.141  0.5078  0.2776  0.2782
19764TIP3    H180707   0.290   2.354   3.182  2.6497  0.8935  1.1787
19764TIP3    H280708   0.316   2.206   3.205  0.5739  0.3977  0.4220
19765TIP3   OH280709   4.610   3.611  17.113  0.0186 -0.3524 -0.1510
19765TIP3    H180710   4.687   3.648  17.071  0.3693 -0.1148  0.6942
19765TIP3    H280711   4.645   3.557  17.184 -0.4289 -3.1818 -2.0232
19766TIP3   OH280712   5.657   2.384   2.118 -0.1026 -0.2078 -0.2714
19766TIP3    H180713   5.676   2.327   2.043 -0.8766 -1.5467  0.5329
19766TIP3    H280714   5.739   2.430   2.135  1.0561 -2.3859  0.1636
19767TIP3   OH280715   5.825   4.920   2.939 -0.2080 -0.3205  0.0996
19767TIP3    H180716   5.773   4.848   2.974  0.6171  0.0010  2.0068
19767TIP3    H280717   5.884   4.879   2.876 -1.1490 -1.0065 -0.3446
19768TIP3   OH280718   5.981   1.449  16.092  0.5918 -0.3122 -0.1607
19768TIP3    H180719   5.910   1.440  16.155 -0.5636 -0.3230 -1.4589
19768TIP3    H280720   5.993   1.361  16.055  1.1028 -0.2566 -0.1353
19769TIP3   OH280721   2.471   1.079  13.385 -0.7438 -0.2631 -0.2613
19769TIP3    H180722   2.495   1.044  13.471 -1.5719 -1.7668 -0.6264
19769TIP3    H280723   2.408   1.016  13.350 -2.2479  1.6042 -0.9591
19770TIP3   OH280724   1.988   2.165  16.110 -0.1764  0.0916 -0.2390
19770TIP3    H180725   1.993   2.075  16.141 -1.3824 -0.7055 -2.2292
19770TIP3    H280726   2.079   2.191  16.097  0.1720 -0.9602  0.0287
19771TIP3   OH280727   3.044   3.988  14.965  0.1416  0.3874  0.7263
19771TIP3    H180728   3.025   3.933  15.041  0.4860 -1.3734 -0.4346
19771TIP3    H280729   3.055   3.926  14.893  3.0628  1.7955 -0.1066
19772TIP3   OH280730   4.681   3.399   1.205 -0.1334 -0.1465  0.2883
19772TIP3    H180731   4.605   3.424   1.256 -0.0826  0.6194 -0.0042
19772TIP3    H280732   4.700   3.309   1.231 -1.4667 -0.5241 -0.0489
19773TIP3   OH280733   0.517   3.177   4.201 -0.4554 -0.3391  0.3601
19773TIP3    H180734   0.534   3.246   4.264  0.5605  1.0257 -1.3478
19773TIP3    H280735   0.443   3.208   4.149  0.4915 -0.1552 -0.9133
19774TIP3   OH280736   0.898   1.194   1.848  0.8299 -0.0698 -0.2718
19774TIP3    H180737   0.986   1.200   1.811  0.8814  1.3096  0.0548
19774TIP3    H280738   0.910   1.144   1.929  1.0822 -1.0502 -0.8984
19775TIP3   OH280739   0.168   1.674  15.549  0.5607  0.2235 -0.3775
19775TIP3    H180740   0.149   1.630  15.466  2.7430  2.6670 -2.2403
19775TIP3    H280741   0.108   1.748  15.551  2.0370  1.4518 -0.8711
19776TIP3   OH280742   3.675   1.389   1.266 -0.2180  0.4793  0.4288
19776TIP3    H180743   3.729   1.465   1.244  1.1325 -0.0835  1.6890
19776TIP3    H280744   3.616   1.379   1.192  1.9046  0.6817 -1.3457
19777TIP3   OH280745   5.511   1.832   2.345 -0.5135  0.3770  0.5105
19777TIP3    H180746   5.530   1.906   2.402  2.1453 -0.2630  0.4873
19777TIP3    H280747   5.457   1.774   2.399 -0.5501  1.1732  1.3492
19778TIP3   OH280748   3.429   3.554  14.050  0.2269  0.0811 -0.0275
19778TIP3    H180749   3.517   3.572  14.081  0.1884  0.2653 -0.0260
19778TIP3    H280750   3.373   3.572  14.125  0.0837  1.0451 -0.3631
19779TIP3   OH280751   6.208   4.889  13.440 -0.2192  0.5857 -0.0646
19779TIP3    H180752   6.132   4.885  13.383  0.9056  0.2887 -1.5612
19779TIP3    H280753   6.211   4.803  13.482 -1.7838  1.2350  1.4479
19780TIP3   OH280754   0.489   4.380   2.328  0.0031 -0.2543  0.2557
19780TIP3    H180755   0.578   4.360   2.301  0.6000 -0.2470  2.1280
19780TIP3    H280756   0.441   4.299   2.315  0.5370 -0.5621  0.1915
19781TIP3   OH280757   1.331   1.041   4.963 -0.1249  0.3170  0.1309
19781TIP3    H180758   1.363   1.122   5.003  0.7785  0.5674 -1.0840
19781TIP3    H280759   1.316   0.982   5.038  0.0979  1.2855  0.9479
19782TIP3   OH280760   6.030   4.363   1.880 -0.2852 -0.0445 -0.5118
19782TIP3    H180761   5.992   4.384   1.965  1.9587 -0.4236  0.6069
19782TIP3    H280762   6.003   4.435   1.823 -1.4812  0.4079  0.5969
19783TIP3   OH280763   1.503   3.198   1.085  0.4753 -0.0232 -0.4475
19783TIP3    H180764   1.408   3.191   1.075  0.4097 -1.2861  0.7683
19783TIP3    H280765   1.515   3.270   1.147  0.4258  1.5544 -2.2561
19784TIP3   OH280766   5.564   5.309  11.769  0.4104  0.2387 -0.0384
19784TIP3    H180767   5.569   5.283  11.861 -1.0106  0.6096  0.1564
19784TIP3    H280768   5.493   5.373  11.766 -0.7699 -1.1209 -1.7200
19785TIP3   OH280769   4.369   5.331  13.381  0.0534  0.1990  0.6457
19785TIP3    H180770   4.346   5.360  13.470 -0.1408  1.1229  0.3094
19785TIP3    H280771   4.389   5.413  13.335  1.3499 -0.3844  0.1727
19786TIP3   OH280772   3.013   6.042  15.747  0.3750  0.2518 -0.3339
19786TIP3    H180773   3.048   6.048  15.658  2.2250 -0.0566  0.3640
19786TIP3    H280774   3.069   6.099  15.799  0.3467 -0.8689  0.9520
19787TIP3   OH280775   3.978   4.185   2.230 -0.6532 -0.4087 -0.0023
19787TIP3    H180776   4.044   4.122   2.256 -0.0053  0.1491 -0.2940
19787TIP3    H280777   3.927   4.141   2.163  0.1504 -0.4182 -0.6084
19788TIP3   OH280778   6.241   3.496  16.682  0.8184 -0.0978  0.0824
19788TIP3    H180779   6.288   3.558  16.738  1.0278 -0.7074  0.5842
19788TIP3    H280780   6.234   3.417  16.735 -2.0574  0.4344  0.5939
19789TIP3   OH280781   2.909   5.484  13.628 -0.2032  0.6098  0.2164
19789TIP3    H180782   2.873   5.436  13.553 -0.0643  0.4572  0.2464
19789TIP3    H280783   2.886   5.575  13.612 -1.0132  0.4587  0.4578
19790TIP3   OH280784   6.639   1.391   3.398  0.1924  0.0824 -0.0472
19790TIP3    H180785   6.577   1.463   3.390  0.6047  0.4743  0.2530
19790TIP3    H280786   6.724   1.431   3.382  0.2760 -0.6666 -1.5923
19791TIP3   OH280787   4.132   6.075  12.225 -0.3554  0.2248 -0.2545
19791TIP3    H180788   4.086   6.131  12.162 -1.2288 -2.3073 -1.9420
19791TIP3    H280789   4.072   6.068  12.300 -0.2476  1.4946 -0.0419
19792TIP3   OH280790   1.949   3.301   2.468  0.2147  0.6570 -0.1245
19792TIP3    H180791   1.872   3.245   2.482  0.0416  1.0047  0.3038
19792TIP3    H280792   2.004   3.285   2.545 -0.5924  2.3314  0.8066
19793TIP3   OH280793   4.248   5.605  15.910  0.5093  0.9099  0.1448
19793TIP3    H180794   4.212   5.587  15.997  1.0141  0.8338  0.3377
19793TIP3    H280795   4.302   5.683  15.923  1.0543  0.5544  0.0242
19794TIP3   OH280796   5.770   6.310  14.054  0.2615  0.0330 -0.2481
19794TIP3    H180797   5.771   6.340  14.145 -1.0093 -1.4098  0.2630
19794TIP3    H280798   5.733   6.384  14.005  2.3542  1.3892  0.1641
19795TIP3   OH280799   6.752   4.272   5.531  0.1248 -0.3618  0.5310
19795TIP3    H180800   6.672   4.228   5.502 -0.0712 -0.7332  1.6168
19795TIP3    H280801   6.811   4.267   5.456 -1.2068  0.7659 -0.6376
19796TIP3   OH280802   5.514   5.475   2.420 -0.1483  0.0410 -0.3922
19796TIP3    H180803   5.561   5.451   2.500  0.5383 -2.1244 -1.4097
19796TIP3    H280804   5.574   5.534   2.373  0.1451 -0.0223 -0.0940
19797TIP3   OH280805   6.013   4.537  17.148  0.2157 -0.0627  0.0985
19797TIP3    H180806   5.967   4.503  17.071 -1.7078 -1.2629  1.7023
19797TIP3    H280807   6.038   4.626  17.125 -1.8636  0.1876 -1.3025
19798TIP3   OH280808   0.635   5.579  16.180  0.3939 -0.5164  0.2557
19798TIP3    H180809   0.552   5.531  16.175 -0.4472  1.0437 -1.7157
19798TIP3    H280810   0.669   5.559  16.267 -0.9918 -2.9010  0.2950
19799TIP3   OH280811   2.900   6.343   4.439 -0.4548 -0.3936 -0.5689
19799TIP3    H180812   2.922   6.250   4.445 -0.3324 -0.5107 -2.4777
19799TIP3    H280813   2.804   6.346   4.441 -0.5835 -0.8496 -3.3979
19800TIP3   OH280814   2.730   3.748  12.345  0.2721  0.5438 -0.5471
19800TIP3    H180815   2.795   3.814  12.368  0.2547  0.6146 -0.7019
19800TIP3    H280816   2.781   3.667  12.333  0.2694  0.4862 -0.1711
19801TIP3   OH280817   1.572   4.942   3.596 -0.7326  0.1366 -0.1857
19801TIP3    H180818   1.558   5.022   3.546 -1.9548  0.5780  0.8262
19801TIP3    H280819   1.562   4.872   3.532 -1.7700  0.7118 -0.6802
19802TIP3   OH280820   3.871   4.210  17.040 -0.3524  0.5169 -0.5588
19802TIP3    H180821   3.950   4.259  17.017  0.0471  0.9842  1.6231
19802TIP3    H280822   3.896   4.161  17.119 -2.4826  1.3488  0.6797
19803TIP3   OH280823   6.018   3.696   3.884 -0.9580  0.7414 -0.3269
19803TIP3    H180824   5.970   3.630   3.935  0.4272 -0.0481 -0.0157
19803TIP3    H280825   6.007   3.777   3.933  0.0270  0.0685  1.0380
19804TIP3   OH280826   3.561   3.404  15.450  0.2558  0.2150 -0.0791
19804TIP3    H180827   3.475   3.408  15.408  0.4084 -0.0902 -0.4157
19804TIP3    H280828   3.545   3.358  15.532  0.4238 -1.4497 -0.9574
19805TIP3   OH280829   6.496   3.851  13.525  0.2233 -0.3128  0.2109
19805TIP3    H180830   6.483   3.778  13.465  0.4122 -1.8761  2.0062
19805TIP3    H280831   6.440   3.831  13.600  1.1769  0.7846  1.2405
19806TIP3   OH280832   5.412   3.153  17.168 -0.3281 -0.1918  0.3492
19806TIP3    H180833   5.324   3.166  17.205 -0.5002 -0.7065  0.1109
19806TIP3    H280834   5.469   3.204  17.226 -0.6852 -0.4450  0.9328
19807TIP3   OH280835   1.938   2.961   4.796 -0.1196  0.5934  0.5213
19807TIP3    H180836   1.986   2.938   4.716  1.1905 -0.2867  1.5529
19807TIP3    H280837   1.855   2.997   4.764  0.9963  1.6704 -1.2806
19808TIP3   OH280838   0.293   3.602   1.499  0.3534 -0.2529  0.3139
19808TIP3    H180839   0.309   3.684   1.545  1.5272  0.8239 -1.9108
19808TIP3    H280840   0.198   3.590   1.501  0.1267  1.4959  0.0870
19809TIP3   OH280841   4.074   6.246   3.128  0.3203 -0.2478  0.0193
19809TIP3    H180842   4.079   6.164   3.178 -0.6650  0.1148  0.7334
19809TIP3    H280843   4.095   6.314   3.192 -2.1469  0.3279  0.2621
19810TIP3   OH280844   5.837   0.771   5.496 -0.4112 -0.2481 -0.1583
19810TIP3    H180845   5.856   0.711   5.568  2.7871  1.0793  0.1802
19810TIP3    H280846   5.773   0.832   5.531 -0.9775 -1.3020  0.6476
19811TIP3   OH280847   3.119   0.879  13.606 -0.4215  0.0443 -0.3416
19811TIP3    H180848   3.178   0.849  13.536 -0.3736  1.8253 -1.0969
19811TIP3    H280849   3.031   0.861  13.572 -0.3795  0.0560 -0.4595
19812TIP3   OH280850   2.503   2.482  16.973 -0.3043  0.3410 -0.0150
19812TIP3    H180851   2.482   2.506  16.883  0.2873  3.0526  0.5277
19812TIP3    H280852   2.481   2.559  17.025  1.2457 -0.4470  1.8929
19813TIP3   OH280853   2.858   0.199  12.425 -0.0615 -0.2907 -0.1453
19813TIP3    H180854   2.944   0.176  12.461 -0.2343 -0.1224  0.3826
19813TIP3    H280855   2.866   0.290  12.398 -0.1237 -0.2268  0.0537
19814TIP3   OH280856   5.721   1.548   3.990  0.3702 -0.4337  0.3174
19814TIP3    H180857   5.745   1.565   3.899 -0.4172 -0.9204  0.0082
19814TIP3    H280858   5.726   1.452   3.999  1.6033 -0.3152  1.1254
19815TIP3   OH280859   3.941   6.474   1.674  0.3460  0.1674  0.2747
19815TIP3    H180860   3.909   6.538   1.738 -1.5321 -0.0505 -0.4117
19815TIP3    H280861   4.013   6.520   1.629 -0.6532  1.6261  0.1274
19816TIP3   OH280862   0.736   0.484   1.722  0.1833 -0.0160 -0.1791
19816TIP3    H180863   0.691   0.567   1.706  1.5313  0.4679 -1.6257
19816TIP3    H280864   0.826   0.499   1.692  1.2651 -1.0449  2.4092
19817TIP3   OH280865   1.504   1.972   6.326 -0.7081 -0.2658 -0.3381
19817TIP3    H180866   1.536   2.056   6.292 -3.1105  0.9349  0.2601
19817TIP3    H280867   1.570   1.946   6.391 -0.3320  1.5409  0.0488
19818TIP3   OH280868   1.374   4.435  11.750 -0.3403 -0.3204  0.2045
19818TIP3    H180869   1.437   4.422  11.679  0.6644 -2.3332  1.4111
19818TIP3    H280870   1.293   4.396  11.717 -0.2056 -0.2011 -0.2815
19819TIP3   OH280871   3.991   2.829   3.996 -0.4707  0.5543 -0.1820
19819TIP3    H180872   4.078   2.799   3.969 -0.9066  0.5320 -1.6041
19819TIP3    H280873   3.931   2.791   3.931 -1.2681  2.7755 -0.8022
19820TIP3   OH280874   6.075   1.423  15.060  0.0443 -0.5140  0.5164
19820TIP3    H180875   6.041   1.462  15.141  0.0539  0.5249  0.0387
19820TIP3    H280876   6.096   1.333  15.083  0.8191 -0.0040  1.8869
19821TIP3   OH280877   2.217   0.632  16.253 -0.1613 -0.1016 -0.4872
19821TIP3    H180878   2.171   0.605  16.174 -1.0557  2.0388 -0.7305
19821TIP3    H280879   2.152   0.680  16.303  0.8363 -0.0909  0.8315
19822TIP3   OH280880   5.906   3.028  17.183 -0.1746 -0.3307  0.3632
19822TIP3    H180881   5.875   2.938  17.191  0.2821 -0.3843  1.8014
19822TIP3    H280882   5.865   3.074  17.257 -1.2120  0.8869 -0.9399
19823TIP3   OH280883   4.986   3.148  13.633  0.2821 -0.5322  0.3148
19823TIP3    H180884   4.912   3.089  13.654 -1.4158  0.9352 -1.4043
19823TIP3    H280885   5.064   3.095  13.649 -1.1996 -3.1070 -0.7023
19824TIP3   OH280886   5.966   2.487   1.581 -0.4229 -0.2458  0.6895
19824TIP3    H180887   5.968   2.404   1.629  0.2137  0.0342  1.1607
19824TIP3    H280888   6.051   2.491   1.538 -1.2694 -0.8342 -1.0558
19825TIP3   OH280889   2.087   3.125   6.168  0.4270  0.1500 -0.3283
19825TIP3    H180890   2.123   3.207   6.133  0.6951  0.8619  1.5503
19825TIP3    H280891   1.995   3.145   6.185  0.6689  0.3023  0.8309
19826TIP3   OH280892   3.206   1.993  15.587 -0.0305 -0.2188 -0.1515
19826TIP3    H180893   3.250   2.012  15.504 -1.2112  0.2612 -0.6865
19826TIP3    H280894   3.199   2.078  15.631  1.3774 -0.6035  0.8525
19827TIP3   OH280895   0.360   5.185  15.155 -0.4178  0.1002 -0.0101
19827TIP3    H180896   0.418   5.261  15.145  0.6315 -0.4441  1.6541
19827TIP3    H280897   0.419   5.110  15.158 -1.2496 -0.5248  1.1208
19828TIP3   OH280898   2.191   0.218   3.834  0.5229  0.1790  0.3090
19828TIP3    H180899   2.175   0.173   3.917  0.6224  3.1159  1.9604
19828TIP3    H280900   2.163   0.155   3.768 -1.9033 -1.2988  2.6169
19829TIP3   OH280901   3.864   4.009  16.550 -0.0336  0.0986  0.5113
19829TIP3    H180902   3.801   3.973  16.613  0.0079 -0.4776  0.2232
19829TIP3    H280903   3.820   4.086  16.514 -0.0258  0.4877  1.3060
19830TIP3   OH280904   2.971   4.955  11.227 -0.6239  0.4846 -0.0048
19830TIP3    H180905   2.886   4.955  11.271 -0.5663 -3.0900  0.2098
19830TIP3    H280906   3.033   4.985  11.293 -1.4534  1.4059  0.3633
19831TIP3   OH280907   0.650   2.599   4.136 -0.0952 -0.1046  0.1564
19831TIP3    H180908   0.712   2.592   4.208  0.6940  1.3250 -0.3806
19831TIP3    H280909   0.566   2.571   4.174  0.7078 -1.3317  1.0695
19832TIP3   OH280910   2.184   3.265   1.966  0.2590 -0.6595  0.6344
19832TIP3    H180911   2.176   3.319   2.044  1.1806 -0.7459  0.7831
19832TIP3    H280912   2.217   3.324   1.899 -0.5969 -0.5676  0.2783
19833TIP3   OH280913   3.985   3.422   4.016  0.1211 -0.7254 -0.1513
19833TIP3    H180914   3.955   3.405   3.926 -0.6259  0.0125 -0.0524
19833TIP3    H280915   3.995   3.335   4.055  0.6237 -1.0514 -1.0056
19834TIP3   OH280916   5.616   0.870  14.980  0.2982  0.0777  0.6780
19834TIP3    H180917   5.556   0.811  14.935  0.7892 -1.0731  1.4955
19834TIP3    H280918   5.629   0.829  15.066  2.9754 -0.2015  0.1787
19835TIP3   OH280919   3.690   1.533   4.054 -0.5475  0.5218 -0.3167
19835TIP3    H180920   3.754   1.467   4.081  0.4615  2.0280  1.0763
19835TIP3    H280921   3.624   1.532   4.124 -0.5065  1.0187 -0.2710
19836TIP3   OH280922   3.204   5.279   0.194 -0.0950  0.2963 -0.0682
19836TIP3    H180923   3.122   5.261   0.147  0.1251 -1.0741  0.0442
19836TIP3    H280924   3.178   5.292   0.285 -0.0744 -1.4372  0.2070
19837TIP3   OH280925   4.351   3.113   3.836  0.3963  0.2028  0.3148
19837TIP3    H180926   4.378   3.121   3.745  1.3627 -1.2002  0.4582
19837TIP3    H280927   4.339   3.203   3.866 -0.4014  0.6462 -1.3354
19838TIP3   OH280928   0.354   5.702  13.005  0.1154 -0.5727 -0.5913
19838TIP3    H180929   0.342   5.796  12.991  0.6791 -0.3329  0.4574
19838TIP3    H280930   0.421   5.696  13.073  0.9109 -1.7583 -1.4549
19839TIP3   OH280931   1.026   6.697  16.787 -0.2689  0.6725  0.0942
19839TIP3    H180932   1.013   6.608  16.819 -1.0580  0.6633 -0.2397
19839TIP3    H280933   1.086   6.689  16.713  0.2638  0.5091  0.5427
19840TIP3   OH280934   2.428   2.746  15.654 -0.1851 -0.0800 -0.4341
19840TIP3    H180935   2.395   2.826  15.612  0.2715 -0.5646 -1.7323
19840TIP3    H280936   2.498   2.716  15.597 -0.2182 -1.3109  0.1583
19841TIP3   OH280937   4.276   0.534  11.648  0.0920 -0.2755  0.6950
19841TIP3    H180938   4.184   0.551  11.669  0.5638 -0.8058  3.3683
19841TIP3    H280939   4.282   0.438  11.644  0.3431 -0.2258 -0.5193
19842TIP3   OH280940   0.750   5.276  15.801 -0.6536 -0.5687  1.0828
19842TIP3    H180941   0.770   5.342  15.866 -0.7884  0.0191  0.5317
19842TIP3    H280942   0.669   5.305  15.761  0.9972  0.7300 -1.4695
19843TIP3   OH280943   2.231   0.796   3.460 -0.2076  0.2551 -0.8922
19843TIP3    H180944   2.260   0.818   3.548  0.4102 -1.4529 -0.6416
19843TIP3    H280945   2.140   0.824   3.457  0.1910  1.6694 -0.2106
19844TIP3   OH280946   0.279   1.117   1.353 -0.1648 -0.7640 -0.2769
19844TIP3    H180947   0.224   1.139   1.278 -1.2008 -0.7787  0.4749
19844TIP3    H280948   0.304   1.025   1.339 -1.8645 -1.3259  0.3284
19845TIP3   OH280949   6.155   6.622  16.094  0.5474  0.1675 -0.0989
19845TIP3    H180950   6.059   6.619  16.099  0.5323  1.9910  1.0842
19845TIP3    H280951   6.181   6.531  16.078 -1.4707 -0.0420 -2.4070
19846TIP3   OH280952   6.256   5.607  11.790 -0.0380  0.6986  0.3067
19846TIP3    H180953   6.337   5.629  11.744 -0.3022  1.5605  0.2499
19846TIP3    H280954   6.187   5.622  11.725 -0.1780 -0.9693  0.0379
19847TIP3   OH280955   0.868   0.645  13.140 -0.0121 -0.1750 -0.2006
19847TIP3    H180956   0.783   0.656  13.097  0.5557 -0.4447 -1.4163
19847TIP3    H280957   0.893   0.734  13.166 -0.5512 -0.0618 -0.0606
19848TIP3   OH280958   4.367   6.323   0.248  0.1520  0.2289  0.1092
19848TIP3    H180959   4.289   6.368   0.216  1.0149  0.4198 -1.7488
19848TIP3    H280960   4.432   6.392   0.261  0.9477 -0.2723 -1.1641
19849TIP3   OH280961   1.353   2.397   1.425 -0.3540 -0.0268 -0.1813
19849TIP3    H180962   1.352   2.365   1.515  0.9014  1.1299  0.2602
19849TIP3    H280963   1.413   2.472   1.427 -1.9065  1.2771 -1.5471
19850TIP3   OH280964   3.785   0.777   5.855 -0.2685 -0.2724  0.1826
19850TIP3    H180965   3.746   0.756   5.940 -0.9106 -0.1324 -0.0748
19850TIP3    H280966   3.711   0.797   5.799  0.2065  0.4801 -0.1857
19851TIP3   OH280967   4.002   6.381  15.275  0.6912  0.4419 -0.1537
19851TIP3    H180968   3.911   6.351  15.281  0.7950  0.1746  0.1238
19851TIP3    H280969   4.047   6.311  15.227  0.6546  0.7960 -0.7056
19852TIP3   OH280970   6.679   1.229  13.457  0.4500 -0.0524  0.1024
19852TIP3    H180971   6.758   1.176  13.456 -0.4500 -1.4281  0.1272
19852TIP3    H280972   6.609   1.168  13.482 -0.6226  1.1227  0.0563
19853TIP3   OH280973   6.554   0.956   5.886 -0.4092 -0.4413  0.6858
19853TIP3    H180974   6.492   1.016   5.845 -0.0197 -0.0007  0.7410
19853TIP3    H280975   6.530   0.957   5.979 -0.0334  0.0660  0.7739
19854TIP3   OH280976   1.902   0.004   1.750  0.1818  0.3992  0.4648
19854TIP3    H180977   1.810   0.005   1.724  0.3249  2.0718 -0.0513
19854TIP3    H280978   1.900  -0.005   1.846 -0.4682 -0.8600  0.3432
19855TIP3   OH280979   0.142   2.034  12.088  0.1834  0.1754  0.3071
19855TIP3    H180980   0.164   2.125  12.067 -0.1226  0.6886  2.1154
19855TIP3    H280981   0.091   2.040  12.169 -2.4549 -1.3937 -1.1912
19856TIP3   OH280982   5.868   0.538   4.537  0.0617 -0.3253 -0.2379
19856TIP3    H180983   5.949   0.554   4.586  0.9019 -0.5735 -1.5369
19856TIP3    H280984   5.881   0.584   4.454 -1.3762  0.1232 -0.2245
19857TIP3   OH280985   1.505   0.053  15.878  0.0513  0.5851 -0.3134
19857TIP3    H180986   1.595   0.054  15.846  0.0410 -0.7099 -0.4051
19857TIP3    H280987   1.452   0.081  15.804  0.3363  0.9123 -0.3940
19858TIP3   OH280988   4.829   1.967   2.843  0.7939 -0.1451 -0.2853
19858TIP3    H180989   4.906   1.971   2.900 -0.3205 -1.2211  1.3304
19858TIP3    H280990   4.809   1.874   2.836  1.8124 -0.1510 -3.7073
19859TIP3   OH280991   3.907   2.508   6.264  0.2621 -0.2978 -0.3004
19859TIP3    H180992   3.851   2.525   6.188 -1.4322 -0.2721  0.9337
19859TIP3    H280993   3.900   2.413   6.278  0.2967 -0.2538  0.0265
19860TIP3   OH280994   1.098   5.704  13.978 -0.1535 -0.6259 -0.3757
19860TIP3    H180995   1.107   5.689  13.884 -1.3371 -2.2009 -0.2579
19860TIP3    H280996   1.188   5.697  14.011  0.1714 -0.8613 -1.2785
19861TIP3   OH280997   4.245   1.061  16.156 -0.2502  0.3681  0.0541
19861TIP3    H180998   4.200   1.020  16.230  0.0455 -0.1292 -0.0475
19861TIP3    H280999   4.288   0.989  16.111 -1.0656  0.5731 -1.0600
19862TIP3   OH281000   1.564   3.215  13.860 -0.1896  0.2661  0.8213
19862TIP3    H181001   1.532   3.299  13.829  1.1765  0.4633 -0.1157
19862TIP3    H281002   1.488   3.173  13.899 -1.5979  0.6750 -1.4187
19863TIP3   OH281003   1.033   2.710  15.370  0.3020 -0.0795 -0.5369
19863TIP3    H181004   0.983   2.652  15.427  1.4820  0.0475  0.6694
19863TIP3    H281005   1.109   2.658  15.344  0.6826  0.4697 -0.5310
19864TIP3   OH281006   1.350   5.630   5.162 -0.2826  0.4949  0.2079
19864TIP3    H181007   1.406   5.673   5.227  0.7596  1.7103 -1.4384
19864TIP3    H281008   1.287   5.697   5.136 -0.1130  0.3078 -0.6991
19865TIP3   OH281009   4.730   1.690   0.711  0.4954  0.3933 -0.9145
19865TIP3    H181010   4.717   1.600   0.683 -1.7116  0.2787  0.4226
19865TIP3    H281011   4.642   1.726   0.719  1.3193  2.3155 -0.2533
19866TIP3   OH281012   4.582   6.513   1.074 -0.0194  0.1013 -0.5648
19866TIP3    H181013   4.629   6.432   1.052 -1.0656 -0.4874 -0.6629
19866TIP3    H281014   4.509   6.516   1.013 -1.5896 -0.3311  1.2426
19867TIP3   OH281015   2.229   0.568   2.133  0.1818 -0.0393  0.1795
19867TIP3    H181016   2.181   0.616   2.201 -0.4554  0.6952 -0.7621
19867TIP3    H281017   2.289   0.511   2.180 -0.2799  0.4426  1.3522
19868TIP3   OH281018   6.005   3.745  11.784  0.1116  0.6987 -0.4002
19868TIP3    H181019   6.062   3.754  11.708  0.4117 -0.0495 -0.2685
19868TIP3    H281020   6.064   3.756  11.859 -0.1653  1.3362 -0.2772
19869TIP3   OH281021   1.525   2.817   6.004 -0.2573  0.1281  0.9783
19869TIP3    H181022   1.444   2.865   5.984  0.5615  1.1500  0.0855
19869TIP3    H281023   1.589   2.884   6.026  1.3298 -0.4037 -1.7632
19870TIP3   OH281024   6.698   5.105  16.257 -0.3843  0.3076 -0.9185
19870TIP3    H181025   6.720   5.070  16.343  1.8793  0.3782 -1.4407
19870TIP3    H281026   6.757   5.060  16.196 -1.7971  0.4239 -2.4141
19871TIP3   OH281027   0.949   3.925   2.743  0.3431 -0.1851  0.0025
19871TIP3    H181028   1.005   3.916   2.666  0.7253  2.2203 -0.0401
19871TIP3    H281029   1.009   3.937   2.816 -0.0372 -1.4019  0.5161
19872TIP3   OH281030   2.293   3.690   0.506 -0.0126  0.5269  0.3646
19872TIP3    H181031   2.347   3.684   0.585 -2.8802  0.9199  2.4556
19872TIP3    H281032   2.331   3.762   0.456  2.5821 -0.5031  0.7762
19873TIP3   OH281033   4.768   4.627   0.590 -0.5068  0.0886  0.1402
19873TIP3    H181034   4.734   4.691   0.653  0.6402  1.0206 -0.1859
19873TIP3    H281035   4.778   4.676   0.509  0.8075 -0.3783  0.0060
19874TIP3   OH281036   5.880   0.711   1.250 -0.0306 -0.4698 -0.0391
19874TIP3    H181037   5.821   0.682   1.181 -0.0172 -0.0400 -0.2351
19874TIP3    H281038   5.844   0.795   1.278  0.6482 -0.0746 -0.3484
19875TIP3   OH281039   4.740   0.980   0.763  0.7627 -0.1263 -0.5947
19875TIP3    H181040   4.689   1.019   0.834  0.3431 -0.0091 -0.9590
19875TIP3    H281041   4.831   0.987   0.792  1.1291  4.7475 -2.3134
19876TIP3   OH281042   0.086   4.315  14.349 -0.0912  0.5957  0.0853
19876TIP3    H181043   0.028   4.283  14.419 -0.7002  0.6042 -0.4099
19876TIP3    H281044   0.165   4.344  14.394 -0.4804  0.5933  0.7732
19877TIP3   OH281045   1.154   1.627  16.258 -0.6178 -0.0219  0.2261
19877TIP3    H181046   1.124   1.548  16.212  0.7004 -0.6921  0.5048
19877TIP3    H281047   1.073   1.672  16.282 -1.4682 -2.3028  1.8138
19878TIP3   OH281048   0.721   6.220  11.043  0.4730  0.3588 -0.0668
19878TIP3    H181049   0.726   6.282  10.971  0.8685 -0.5520 -0.8380
19878TIP3    H281050   0.767   6.142  11.011 -0.3353 -0.4681  0.7286
19879TIP3   OH281051   5.233   4.197   0.093 -0.2867  0.1666  0.0038
19879TIP3    H181052   5.301   4.260   0.068  1.4562 -1.6715 -0.0911
19879TIP3    H281053   5.206   4.225   0.180  0.7010  0.8646  0.0972
19880TIP3   OH281054   2.141   2.090  13.453 -0.3633  0.1960  0.0456
19880TIP3    H181055   2.199   2.133  13.516 -0.4564 -0.3217  0.4873
19880TIP3    H281056   2.060   2.141  13.456  0.0323  0.8534 -0.4906
19881TIP3   OH281057   3.774   4.628  15.436 -0.1123 -0.1651 -0.3429
19881TIP3    H181058   3.837   4.652  15.368  1.1355  1.9002  1.5061
19881TIP3    H281059   3.766   4.532  15.428  2.0622 -0.2780 -1.6065
19882TIP3   OH281060   1.833   5.635   2.240  0.0224 -0.2254 -0.0346
19882TIP3    H181061   1.790   5.721   2.241  1.3563  0.4555  0.2570
19882TIP3    H281062   1.835   5.610   2.148  0.1012  0.3007 -0.1772
19883TIP3   OH281063   4.961   0.794  16.526 -0.0196  0.0015 -0.0673
19883TIP3    H181064   4.955   0.767  16.617 -0.0593  2.8312  0.7971
19883TIP3    H281065   4.873   0.780  16.491 -0.0281 -0.9933  0.3335
19884TIP3   OH281066   2.200   4.753   0.713 -0.1191  0.0356  0.2849
19884TIP3    H181067   2.221   4.812   0.640 -1.0587  0.7718  0.6003
19884TIP3    H281068   2.163   4.810   0.780 -3.6462 -1.2780 -0.4596
19885TIP3   OH281069   4.370   3.379  17.071 -0.3218  0.1971 -0.1133
19885TIP3    H181070   4.460   3.402  17.091 -0.2172  0.5169 -0.9406
19885TIP3    H281071   4.368   3.283  17.073 -0.3447  0.2223  1.5433
19886TIP3   OH281072   5.092   6.290   3.140  0.1979  0.1632  0.7341
19886TIP3    H181073   5.127   6.201   3.131 -1.2683 -0.4279  0.7826
19886TIP3    H281074   5.091   6.305   3.235  0.7229  0.3493  0.7120
19887TIP3   OH281075   3.164   5.514   1.566 -0.3757  0.2299  0.5108
19887TIP3    H181076   3.087   5.524   1.509  0.5396 -1.8795 -1.1921
19887TIP3    H281077   3.221   5.587   1.542 -0.9952  0.6738  0.3721
19888TIP3   OH281078   3.481   1.668   4.806 -0.1323  0.4930 -0.2648
19888TIP3    H181079   3.434   1.736   4.854 -0.6786 -0.6466  0.8439
19888TIP3    H281080   3.414   1.627   4.750  0.2406  1.0107 -1.0943
19889TIP3   OH281081   6.209   5.748  11.536 -0.1028 -0.5215  0.2508
19889TIP3    H181082   6.293   5.759  11.492  0.1326 -0.6007  0.6827
19889TIP3    H281083   6.188   5.655  11.525  0.2991 -0.6926  0.9246
19890TIP3   OH281084   5.167   5.437   1.785  0.1169 -0.3215  0.1428
19890TIP3    H181085   5.159   5.353   1.740 -2.7025 -0.0651  0.1075
19890TIP3    H281086   5.079   5.456   1.818  0.3910  3.1531 -0.8688
19891TIP3   OH281087   2.560   4.279   4.222 -0.1414  0.1711 -0.1375
19891TIP3    H181088   2.517   4.204   4.181 -1.6731  0.9061  0.0738
19891TIP3    H281089   2.631   4.241   4.274 -0.0460 -1.0098 -1.1136
19892TIP3   OH281090   0.707   5.724  12.935 -0.1080 -0.4951  0.0383
19892TIP3    H181091   0.643   5.653  12.941 -0.3188 -0.2429  0.8248
19892TIP3    H281092   0.792   5.681  12.942 -0.2440 -0.6346  0.8824
19893TIP3   OH281093   1.098   1.165   3.737  0.0318 -0.2928 -0.2965
19893TIP3    H181094   1.164   1.131   3.677  1.7687 -0.9213  1.9031
19893TIP3    H281095   1.131   1.143   3.824 -2.7074  0.0759  0.8855
19894TIP3   OH281096   4.172   4.958  17.098  0.1717 -0.8205  0.5853
19894TIP3    H181097   4.171   4.885  17.037 -1.7715 -1.0340  0.8473
19894TIP3    H281098   4.113   4.932  17.168  0.3576  0.5122  1.2524
19895TIP3   OH281099   1.551   6.214  14.773 -0.0018  0.0646  0.3164
19895TIP3    H181100   1.485   6.255  14.830  0.5474  1.3711  0.0327
19895TIP3    H281101   1.623   6.277  14.772  0.9352 -1.0135  0.0142
19896TIP3   OH281102   0.434   1.858   0.133  0.2545  0.0342 -0.3273
19896TIP3    H181103   0.368   1.803   0.090  0.4336 -0.5823  0.1936
19896TIP3    H281104   0.502   1.797   0.160 -0.2898  0.2968  1.6784
19897TIP3   OH281105   3.144   6.641  14.181  0.1776 -0.0031  0.3259
19897TIP3    H181106   3.069   6.636  14.241  0.4805 -1.0878  0.6223
19897TIP3    H281107   3.110   6.609  14.098 -0.2345  1.4725 -0.0844
19898TIP3   OH281108   4.099   6.424   2.296  0.2609  0.0198 -0.3370
19898TIP3    H181109   4.064   6.506   2.331  0.3818 -0.8744  1.9185
19898TIP3    H281110   4.079   6.428   2.202 -1.1931  1.8923  0.0211
19899TIP3   OH281111   4.543   5.177   5.352 -0.6233  0.0513 -0.2351
19899TIP3    H181112   4.472   5.233   5.382 -1.1347 -2.1101  2.7196
19899TIP3    H281113   4.502   5.118   5.289 -1.4504 -1.0205  1.2671
19900TIP3   OH281114   3.128   5.699   5.244 -0.5211  0.3309  0.5646
19900TIP3    H181115   3.033   5.709   5.239 -0.4406  0.9334  0.1310
19900TIP3    H281116   3.162   5.763   5.181  0.0914 -1.3546 -0.8836
19901TIP3   OH281117   0.012   5.451   1.093  0.4102  0.0963 -0.1051
19901TIP3    H181118  -0.080   5.425   1.099  0.3524  0.1886 -0.5840
19901TIP3    H281119   0.060   5.369   1.081  0.3567  0.0806 -0.2156
19902TIP3   OH281120   1.283   5.770   4.005 -0.3430 -0.2450  0.4581
19902TIP3    H181121   1.213   5.814   3.956  0.3571  0.2340 -0.1344
19902TIP3    H281122   1.259   5.782   4.097 -0.8505  0.2336  0.2680
19903TIP3   OH281123   4.561   5.484  17.063 -0.0359 -0.1674  0.1454
19903TIP3    H181124   4.480   5.509  17.107 -1.5546 -3.2460 -0.8129
19903TIP3    H281125   4.597   5.414  17.118  1.6273  0.6783  0.1630
19904TIP3   OH281126   6.279   1.630   6.328  0.1352  0.4863 -0.3176
19904TIP3    H181127   6.247   1.707   6.283  1.2507  1.2282  0.1403
19904TIP3    H281128   6.219   1.618   6.402  0.0968  1.0411 -0.2621
19905TIP3   OH281129   2.597   0.131  15.358  0.1122  0.1276 -0.0012
19905TIP3    H181130   2.656   0.072  15.312  0.8940 -0.2483  1.4396
19905TIP3    H281131   2.510   0.091  15.348  0.4287 -0.4930 -0.2773
19906TIP3   OH281132   1.782   1.870  12.059 -0.2494 -0.7984  0.3528
19906TIP3    H181133   1.856   1.893  12.002 -1.0495 -0.1554 -0.4514
19906TIP3    H281134   1.751   1.786  12.025 -0.4142 -0.6549  0.1421
19907TIP3   OH281135   5.246   5.114   4.915 -0.4177 -0.2934 -0.2604
19907TIP3    H181136   5.327   5.158   4.889 -0.8195 -0.0496 -1.0996
19907TIP3    H281137   5.243   5.124   5.010  0.1925  0.2982 -0.3037
19908TIP3   OH281138   1.986   4.260  13.268  0.2900  0.5574  0.1376
19908TIP3    H181139   1.993   4.257  13.173 -0.3796  1.5253  0.0508
19908TIP3    H281140   2.075   4.281  13.298  0.6633 -0.4820 -0.2256
19909TIP3   OH281141   3.437   0.428  14.146  0.8367  0.0092  0.4241
19909TIP3    H181142   3.371   0.494  14.125  1.7929  0.1910 -2.1454
19909TIP3    H281143   3.398   0.345  14.119  1.4307  0.0493 -0.5534
19910TIP3   OH281144   5.054   0.835   3.050  0.0716  0.2009  0.1981
19910TIP3    H181145   5.145   0.863   3.060  0.0889 -0.0044  0.6399
19910TIP3    H281146   5.060   0.749   3.009  0.0063  0.9645 -1.4575
19911TIP3   OH281147   3.101   5.546  10.805 -0.3224  0.4565 -0.3491
19911TIP3    H181148   3.059   5.628  10.831  0.2707  0.3943  0.8332
19911TIP3    H281149   3.154   5.521  10.881 -0.4620 -0.9967 -0.7178
19912TIP3   OH281150   5.497   0.272  15.590  0.6266 -0.3117 -0.1207
19912TIP3    H181151   5.413   0.302  15.625 -0.1591  1.3177 -3.1720
19912TIP3    H281152   5.558   0.344  15.606 -0.1091  1.1109 -3.2489
19913TIP3   OH281153   2.909   1.111  16.066  0.1379  0.5055 -0.0572
19913TIP3    H181154   2.894   1.173  15.994  2.5571  3.3146  1.7152
19913TIP3    H281155   3.004   1.102  16.070 -0.0668 -1.3243  1.4310
19914TIP3   OH281156   0.331   5.512   2.183 -0.3571 -0.0848 -0.4660
19914TIP3    H181157   0.375   5.562   2.252  0.8414 -0.5179 -0.9136
19914TIP3    H281158   0.401   5.488   2.123 -0.9094 -2.4443 -0.1859
19915TIP3   OH281159   5.704   2.737  17.208  0.5738 -0.5194 -0.1998
19915TIP3    H181160   5.657   2.678  17.267  1.8430 -1.5198 -0.1576
19915TIP3    H281161   5.636   2.779  17.156 -0.4618 -0.7111  0.9934
19916TIP3   OH281162   2.036   2.494  17.161 -0.0010  0.1850  0.2885
19916TIP3    H181163   2.065   2.584  17.149  1.2099 -0.1874  0.3900
19916TIP3    H281164   1.940   2.499  17.159  0.0709  1.1969 -1.7998
19917TIP3   OH281165   0.513   5.998   3.597 -0.2052  0.4223 -0.6183
19917TIP3    H181166   0.500   5.937   3.525 -1.2520  0.4475 -0.4526
19917TIP3    H281167   0.602   6.032   3.583  0.6762 -1.6978 -0.2632
19918TIP3   OH281168   0.037   5.427  15.048 -0.0176  0.2040  0.0006
19918TIP3    H181169  -0.018   5.465  14.980 -1.1165  0.7567  1.1785
19918TIP3    H281170   0.089   5.501  15.080  0.4238 -0.0365 -0.1493
19919TIP3   OH281171   4.205   5.074   2.364 -0.2937 -0.3200  0.4886
19919TIP3    H181172   4.168   5.161   2.351  1.4567  0.1584 -1.6508
19919TIP3    H281173   4.206   5.035   2.276 -2.3976 -3.0740  1.6186
19920TIP3   OH281174   6.536   5.333   1.247  0.3536 -0.3813 -0.5311
19920TIP3    H181175   6.494   5.309   1.329  0.1146 -1.1956 -0.8873
19920TIP3    H281176   6.623   5.293   1.252  1.2121  1.5101  0.3157
19921TIP3   OH281177   5.851   5.015  11.976  0.5127 -0.7374 -1.1937
19921TIP3    H181178   5.766   4.971  11.969 -0.4209  0.8390  0.0522
19921TIP3    H281179   5.902   4.980  11.903 -2.2832  0.7027 -3.9172
19922TIP3   OH281180   2.187   3.643  12.028  0.7076 -0.0171 -0.3979
19922TIP3    H181181   2.179   3.716  11.966 -0.8676 -0.0659 -0.2718
19922TIP3    H281182   2.239   3.678  12.100  0.5989  0.7565 -0.6912
19923TIP3   OH281183   6.453   2.363   5.935 -0.0492 -0.4688 -0.7391
19923TIP3    H181184   6.461   2.448   5.892 -1.9486 -0.3760 -0.9692
19923TIP3    H281185   6.543   2.336   5.953  0.6142  1.1028 -1.6136
19924TIP3   OH281186   0.185   2.671   5.749 -0.2896  0.2110 -0.1914
19924TIP3    H181187   0.219   2.685   5.837  2.4120  0.8328 -1.2855
19924TIP3    H281188   0.103   2.623   5.762  0.7811 -0.9602  2.5643
19925TIP3   OH281189   5.470   6.010  14.109  0.2170 -0.3494  0.8306
19925TIP3    H181190   5.472   5.918  14.084 -0.2801  0.3013 -1.7758
19925TIP3    H281191   5.551   6.046  14.072 -0.0372  0.4338  1.0310
19926TIP3   OH281192   4.407   3.290   1.747  0.0781  0.1630  0.2601
19926TIP3    H181193   4.430   3.243   1.666  3.2735 -0.8348  1.6546
19926TIP3    H281194   4.334   3.239   1.783  0.0172 -0.6285 -0.9149
19927TIP3   OH281195   1.841   3.377   3.329 -0.4704 -0.4802 -0.0063
19927TIP3    H181196   1.865   3.340   3.414  0.8709 -0.1368 -0.2292
19927TIP3    H281197   1.748   3.398   3.337 -0.1112  0.4952  1.7137
19928TIP3   OH281198   1.451   2.500  14.714  0.0393  0.0923 -0.2688
19928TIP3    H181199   1.372   2.460  14.750 -2.4215  3.0442 -2.1156
19928TIP3    H281200   1.452   2.588  14.752  2.0601  0.3299 -0.8245
19929TIP3   OH281201   1.033   3.285  11.718  0.1836 -0.0108 -0.2178
19929TIP3    H181202   1.013   3.320  11.631 -1.5531 -1.9286 -0.6379
19929TIP3    H281203   0.970   3.327  11.776 -1.7229 -2.1416 -0.6787
19930TIP3   OH281204   2.241   4.364  16.745  0.4004  0.3953  0.4024
19930TIP3    H181205   2.320   4.417  16.734  0.4665  1.0360  3.6424
19930TIP3    H281206   2.173   4.428  16.768 -0.3513 -0.5118  0.7232
19931TIP3   OH281207   0.466   6.548  11.563 -0.3479 -0.0465 -0.1949
19931TIP3    H181208   0.534   6.487  11.534 -1.2461 -1.5195  0.7471
19931TIP3    H281209   0.454   6.607  11.489  1.6069 -0.0676 -0.5566
19932TIP3   OH281210   4.022   4.966   5.494  0.1804  0.0686  0.3034
19932TIP3    H181211   4.025   5.056   5.525 -0.9866 -0.0361  0.7598
19932TIP3    H281212   4.094   4.959   5.431 -0.1866  1.5278 -0.2927
19933TIP3   OH281213   2.860   2.093   2.107  0.3731  0.2630  0.5784
19933TIP3    H181214   2.953   2.086   2.129  0.8698 -0.1226 -1.5639
19933TIP3    H281215   2.829   2.002   2.101  0.0144  0.3797  0.6110
19934TIP3   OH281216   6.310   0.486   0.347 -0.3652 -0.2899  0.1004
19934TIP3    H181217   6.284   0.394   0.356  0.1174 -0.2999  1.5404
19934TIP3    H281218   6.380   0.497   0.411 -1.7462  1.5707  1.3616
19935TIP3   OH281219   6.054   0.753   4.108 -0.9202  0.3089 -0.5407
19935TIP3    H181220   6.133   0.701   4.123 -1.3813 -0.6419 -1.3652
19935TIP3    H281221   6.070   0.835   4.155  0.1382 -0.2687  0.1149
19936TIP3   OH281222   0.269   6.684   0.065 -0.6574 -0.2202  0.0713
19936TIP3    H181223   0.364   6.678   0.057 -0.6317 -1.2030  1.0049
19936TIP3    H281224   0.235   6.649  -0.017 -0.1912  1.8333 -1.0273
19937TIP3   OH281225   2.944   1.344  11.803  0.2627 -0.5477  0.1145
19937TIP3    H181226   2.968   1.346  11.896 -3.5738 -1.7945  1.2555
19937TIP3    H281227   2.989   1.268  11.768  1.2401 -0.4370  1.0944
19938TIP3   OH281228   3.299   1.316  14.439 -0.0169  0.0339 -0.2407
19938TIP3    H181229   3.318   1.406  14.467 -0.3415 -0.1290  0.5244
19938TIP3    H281230   3.364   1.262  14.485 -0.1231 -0.1658 -0.3252
19939TIP3   OH281231   0.218   3.680  15.492  0.0953 -0.4194 -0.0902
19939TIP3    H181232   0.271   3.720  15.560  2.0509  0.5452 -2.1211
19939TIP3    H281233   0.150   3.744  15.473  1.0158  0.3653 -0.7562
19940TIP3   OH281234   1.801   1.735  12.564  0.3458  0.1760  0.3904
19940TIP3    H181235   1.746   1.771  12.495  0.9874 -0.6700 -0.5688
19940TIP3    H281236   1.783   1.790  12.640  0.2386  1.6126 -0.6615
19941TIP3   OH281237   2.933   2.724   0.331  0.6992  0.3808  0.1731
19941TIP3    H181238   3.026   2.703   0.331  0.3287 -1.3561  0.8482
19941TIP3    H281239   2.890   2.644   0.299 -0.5420  1.2797 -0.4850
19942TIP3   OH281240   3.024   5.311  15.783 -0.4053 -0.0212  0.1899
19942TIP3    H181241   3.001   5.281  15.695 -0.0413 -0.4927  0.2491
19942TIP3    H281242   3.076   5.390  15.769 -2.8050  1.5943  0.0839
19943TIP3   OH281243   3.051   3.729  17.103  0.1090 -0.0327 -0.2950
19943TIP3    H181244   3.013   3.804  17.058 -0.5217 -0.6530 -0.8099
19943TIP3    H281245   3.088   3.766  17.183  0.9578  1.0243 -1.1598
19944TIP3   OH281246   1.254   2.030  16.543 -0.1320  0.3957  0.3328
19944TIP3    H181247   1.317   2.027  16.614  1.5147  1.0528 -1.0667
19944TIP3    H281248   1.272   1.952  16.491 -0.0487  0.8916 -0.4037
19945TIP3   OH281249   1.860   6.011  16.669  0.1363 -0.0271 -0.6491
19945TIP3    H181250   1.837   5.963  16.589  1.1873  1.7083 -2.0205
19945TIP3    H281251   1.948   6.044  16.653 -0.5867  2.4441  0.2187
19946TIP3   OH281252   0.024   6.610  16.664 -0.3752 -0.7226  0.1021
19946TIP3    H181253  -0.026   6.547  16.611 -0.5127 -0.3275 -0.2344
19946TIP3    H281254  -0.043   6.664  16.706 -0.2142  0.5082 -1.1961
19947TIP3   OH281255   1.371   5.529  16.817  0.5742  0.0981 -0.4900
19947TIP3    H181256   1.341   5.519  16.907  0.1132 -0.6534 -0.7270
19947TIP3    H281257   1.323   5.463  16.768  0.9164  0.4218 -1.2713
19948TIP3   OH281258   0.331   3.784  11.166  0.0993 -0.4497  0.0628
19948TIP3    H181259   0.342   3.718  11.234 -1.2007 -1.8514 -1.0797
19948TIP3    H281260   0.274   3.743  11.101 -1.9081  2.2737  0.0108
19949TIP3   OH281261   4.110   4.479   2.723  0.7163  0.0204 -0.0638
19949TIP3    H181262   4.066   4.439   2.798  0.6447  1.9187  0.9261
19949TIP3    H281263   4.109   4.411   2.656  2.0888 -2.2538  2.1310
19950TIP3   OH281264   6.220   3.973  15.122  0.0516 -0.8027 -0.4236
19950TIP3    H181265   6.244   4.034  15.193 -0.6483 -0.6929 -0.2765
19950TIP3    H281266   6.205   3.890  15.167 -2.6618 -0.1888 -0.1135
19951TIP3   OH281267   3.635   0.591   3.254 -1.1788  0.0854  0.0703
19951TIP3    H181268   3.713   0.602   3.308 -2.4437  2.1628  1.4980
19951TIP3    H281269   3.579   0.533   3.305 -1.3099  0.0029 -0.1692
19952LIG     O181270   1.545   5.377  16.429  0.0174 -0.3364 -0.4618
19952LIG     O281271   1.548   5.133  16.496 -0.3382 -0.2180 -0.5665
19952LIG     O381272   1.616   5.299  16.135 -0.1518  0.2436 -0.3161
19952LIG     O481273   1.365   5.012  16.588 -0.8202  0.0860 -0.4601
19952LIG     O581274   1.250   5.064  16.293 -0.3570 -0.5348  0.7602
19952LIG     O681275   1.435   4.836  16.219 -0.4691 -0.2612  0.3197
19952LIG     O781276   1.503   4.702  16.468 -0.4324  0.0762 -0.3456
19952LIG     O881277   1.509   4.900  16.829 -0.1605  0.2656  0.0312
19952LIG     O981278   1.659   4.830  16.679 -0.4624 -0.7470  0.7198
19952LIG      N81279   1.912   5.604  16.679 -0.4512  0.1607 -0.4216
19952LIG     C181280   1.702   5.428  16.584  0.3339  0.1200 -0.0671
19952LIG     C281281   1.795   5.386  16.699 -0.6653  0.9517 -0.8813
19952LIG     C381282   1.567   5.367  16.577  0.3831  0.4869  0.0025
19952LIG     C481283   1.929   5.455  16.672  0.5371 -0.2506 -0.4785
19952LIG     C581284   1.680   5.585  16.585  0.0687  0.3994  0.1184
19952LIG     C681285   1.775   5.400  16.453  0.0094 -0.2668 -0.6162
19952LIG     C781286   2.007   5.414  16.536  0.7049 -0.2053 -0.9280
19952LIG     C881287   1.817   5.667  16.588  0.5105 -0.9690  0.3174
19952LIG     C981288   1.558   5.217  16.610 -0.0681  0.1490 -0.2318
19952LIG    C1081289   1.906   5.385  16.425 -0.4819 -0.9664 -0.1972
19952LIG    C1181290   1.790   5.238  16.715 -0.0268 -0.4000  0.3785
19952LIG    C1281291   1.673   5.361  16.368 -0.6937 -0.1385 -0.1992
19952LIG    C1381292   1.682   5.160  16.675 -0.4632 -0.5729  0.5493
19952LIG    C1481293   2.041   5.679  16.684  0.2354 -0.3716 -0.0705
19952LIG    C1581294   1.944   5.336  16.297 -0.3273  0.1889 -0.2363
19952LIG    C1681295   1.710   5.321  16.240 -0.2347 -0.4769  0.9185
19952LIG    C1781296   1.845   5.301  16.203 -0.0819  0.2674 -0.5320
19952LIG    C1881297   1.410   5.095  16.481  0.1751  0.7635 -0.0190
19952LIG    C1981298   1.381   5.029  16.344 -0.5334  0.0167 -0.4444
19952LIG    C2081299   1.387   4.876  16.348  0.5364  0.5158  0.1745
19952LIG    C2181300   1.491   4.841  16.459 -0.8134 -0.2036  0.5569
19952LIG    C2281301   1.431   4.885  16.593  0.1291 -0.5397  0.5933
19952LIG    C2381302   1.546   4.874  16.698  0.2522  0.1718  0.3815
19952LIG     H181303   1.751   5.424  16.794  2.6379 -2.4882  2.2213
19952LIG     H281304   1.491   5.427  16.630 -0.2471  1.9632 -2.4816
19952LIG     H381305   1.992   5.423  16.758  1.3772  0.0779 -0.9673
19952LIG     H481306   1.629   5.607  16.681 -1.1967  0.4325 -0.5494
19952LIG     H581307   1.627   5.615  16.492 -0.7747 -0.7639  0.2158
19952LIG     H681308   2.056   5.320  16.570  1.6583  0.2572 -0.9984
19952LIG     H781309   2.081   5.491  16.508 -0.8817  1.2442 -1.1937
19952LIG     H881310   1.868   5.683  16.491  1.0137  1.0496  0.9012
19952LIG     H981311   1.784   5.763  16.634 -1.6145 -1.4047 -0.2570
19952LIG    H1081312   1.472   5.198  16.677  1.5006 -0.1431  1.7469
19952LIG    H1181313   1.862   5.194  16.784 -0.2442 -0.4370  0.5840
19952LIG    H1281314   1.702   5.052  16.661 -1.9555 -0.7978  0.0421
19952LIG    H1381315   2.126   5.607  16.696 -0.1338 -0.3697  2.8350
19952LIG    H1481316   2.056   5.753  16.765  2.4967 -1.8683  0.9500
19952LIG    H1581317   2.057   5.721  16.582  0.8614 -0.8152 -0.1634
19952LIG    H1681318   2.051   5.334  16.282 -0.3409 -2.6291 -0.1947
19952LIG    H1781319   1.884   5.266  16.109 -1.5467 -2.3401 -0.2164
19952LIG    H1881320   1.353   5.190  16.482 -0.4192  0.4264  3.3440
19952LIG    H1981321   1.464   5.071  16.283 -1.0422  2.1319  0.2631
19952LIG    H2081322   1.290   4.828  16.373  1.6774 -1.1127  1.5844
19952LIG    H2181323   1.660   5.254  16.063  0.3375  2.8912 -1.7316
19952LIG    H2281324   1.592   4.883  16.441 -1.0035  1.3026  2.7757
19952LIG    H2381325   1.352   4.817  16.632 -2.0027  1.9324  0.6809
19952LIG    H2481326   1.265   5.133  16.227  0.2459  0.3274  1.7713
19952LIG    H2581327   1.366   4.853  16.155  0.7064 -0.0866 -0.9336
19952LIG    H2681328   1.570   4.685  16.402 -0.0748 -1.9851  0.5092
19952LIG    H2781329   1.579   4.881  16.893 -1.3680 -0.6783  1.0965
   6.78697   6.78697  17.23950
